

 Parallel Execution: Process Information
 ==============================================================================
 Rank   Node Name                              NodeID   MyNodeRank  NodeMaster
    0   ubuntu-kch                                0          0          0
    1   ubuntu-kch                                0          1         -1
    2   ubuntu-kch                                0          2         -1
    3   ubuntu-kch                                0          3         -1
 ==============================================================================


May use up to 7570MB of RAM as shared memory on node 0

 *******************************************************************************
 *                                                                             *
 *  --------------------------------                                           *
 *   Amsterdam Modeling Suite (AMS)              2019.405                      *
 *  --------------------------------                                           *
 *                                               r87318 2020-08-31             *
 *                                                                             *
 *                                                                             *
 *                              =================                              *
 *                              |               |                              *
 *                              |     A M S     |                              *
 *                              |               |                              *
 *                              =================                              *
 *                                                                             *
 *                                                                             *
 *   Online information and documentation:  https://www.scm.com/support/       *
 *   E-mail:  support@scm.com   info@scm.com                                   *
 *                                                                             *
 *   Scientific publications using AMS results must be properly referenced     *
 *   See the User Manuals (or the web site) for recommended citations          *
 *   The terms and conditions of the End User License Agreement apply to       *
 *   the use of AMS, https://www.scm.com/license-terms/                        *
 *                                                                             *
 **********************  x86_64_linux_intel / intelmpi  ************************
 
 Licensed to: Dr. Miroslav Ilias / Matej Bel University, Department Chemistry, Fac. Natural Sciences / Banska Bystrica / SLOVAKIA
 SCM User ID: u17848
  
 AMS 2019.405  RunTime: Dec16-2020 16:40:30  Nodes: 1  Procs: 4

 AMS jobname: ams
 AMS jobid  : 1056815900

 Start   directory: /home/milias/work/projects/open-collection/theoretical_chemistry/projects/nmr_diplomovky/reference_compounds/trimethylsilane/ams/nmr_shieldings/tz2p/tmp.milias.20192.0.noindex/
 Results directory: /home/milias/work/projects/open-collection/theoretical_chemistry/projects/nmr_diplomovky/reference_compounds/trimethylsilane/ams/nmr_shieldings/tz2p/trimethyl-silane.nmrshield_b3lyp_tz2p.results/
 Scratch directory: /tmp/amstmp_ams_kid0.1056815900/


 Communication costs MPI_COMM_WORLD:      0.256 usec per message,   0.0033 usec per 8-byte item
 Communication costs for intra-node:      0.263 usec per message,   0.0033 usec per 8-byte item

 RNG seed: -1503555906 -1470086216 -987387596 -1511543724 -87124146 -1371731424 -205543200 -359495305



                        ********************************************************************
                        *  ADF 2019.405  RunTime: Dec16-2020 16:40:31  Nodes: 1  Procs: 4  *
                        ********************************************************************
  
       ****************************
       * SINGLE POINT CALCULATION *
       ****************************
 
--------
Geometry
--------
Atoms
  Index Symbol   x (angstrom)   y (angstrom)   z (angstrom)
      1     Si     0.00000000    -0.00000000    -0.48118424
      2      C     1.80080658    -0.00000000     0.11251406
      3      C    -0.90040329     1.55954425     0.11251406
      4      C    -0.90040329    -1.55954425     0.11251406
      5      H     0.00000000    -0.00000000    -1.97818895
      6      H     2.33733893    -0.88641039    -0.25125148
      7      H     2.33733893     0.88641039    -0.25125148
      8      H     1.86071480    -0.00000000     1.20977997
      9      H    -0.40101555     2.46740008    -0.25125148
     10      H    -1.93632337     1.58098969    -0.25125148
     11      H    -0.93035740     1.61142629     1.20977997
     12      H    -1.93632337    -1.58098969    -0.25125148
     13      H    -0.40101555    -2.46740008    -0.25125148
     14      H    -0.93035740    -1.61142629     1.20977997
 
Total System Charge             0.00000
Bonding info available!
 
 
----------------
ADF Engine Input
----------------
 
 Basis
 Type TZ2P
 Core None
 End
 Save TAPE10
 XC
 GGA BLYP
 End
 Relativity
 Level None
 End
 

 Title: *** (NO TITLE) ***

 *** (NO TITLE) ***



 ===========================
 A T T A C H E D   F I L E S
 ===========================
  



 ===============================
 M O D E L   P A R A M E T E R S
 ===============================
  
 DENSITY FUNCTIONAL POTENTIAL (scf)
    LDA:                               Exchange only                           == Not Default ==
    Gradient Corrections:              Becke88 LYP                             == Not Default ==

 SPIN  (restricted / unrestr.)
    Molecule:                          Restricted                               
    Fragments:                         Restricted                               

 OTHER ASPECTS
    Relativistic Corrections:          ---                                      

    Nuclear Charge Density Model:      Point Charge Nuclei                      
    Core Treatment:                    Frozen Orbital(s)                        

    Hyperfine or Zeeman Interaction:   ---                                      


 Fragment File(s)
 ----------------
 Si:
         file : /home/milias/work/projects/open-collection/theoretical_chemistry/projects/nmr_diplomovky/reference_compounds/trimethylsilane/ams/nmr_shieldings/tz2p/trimethyl-silane.nmrshield_b3lyp_tz2p.results/t21.1841A6C3.Si
         jobid: 0
         title: Silicon (TZ2P)
 C:
         file : /home/milias/work/projects/open-collection/theoretical_chemistry/projects/nmr_diplomovky/reference_compounds/trimethylsilane/ams/nmr_shieldings/tz2p/trimethyl-silane.nmrshield_b3lyp_tz2p.results/t21.703F09DE.C
         jobid: 0
         title: Carbon (TZ2P)
 H:
         file : /home/milias/work/projects/open-collection/theoretical_chemistry/projects/nmr_diplomovky/reference_compounds/trimethylsilane/ams/nmr_shieldings/tz2p/trimethyl-silane.nmrshield_b3lyp_tz2p.results/t21.3E8CFE58.H
         jobid: 0
         title: Hydrogen (TZ2P)



 ===============
 G E O M E T R Y  ***  3D  Molecule  ***
 ===============
  

 ATOMS
 =====                            X Y Z                    CHARGE
                                (Angstrom)             Nucl     +Core       At.Mass
                       --------------------------    ----------------       -------
    1  Si              0.0000   -0.0000   -0.4812     14.00     14.00       27.9769
    2  C               1.8008   -0.0000    0.1125      6.00      6.00       12.0000
    3  C              -0.9004    1.5595    0.1125      6.00      6.00       12.0000
    4  C              -0.9004   -1.5595    0.1125      6.00      6.00       12.0000
    5  H               0.0000   -0.0000   -1.9782      1.00      1.00        1.0078
    6  H               2.3373   -0.8864   -0.2513      1.00      1.00        1.0078
    7  H               2.3373    0.8864   -0.2513      1.00      1.00        1.0078
    8  H               1.8607   -0.0000    1.2098      1.00      1.00        1.0078
    9  H              -0.4010    2.4674   -0.2513      1.00      1.00        1.0078
   10  H              -1.9363    1.5810   -0.2513      1.00      1.00        1.0078
   11  H              -0.9304    1.6114    1.2098      1.00      1.00        1.0078
   12  H              -1.9363   -1.5810   -0.2513      1.00      1.00        1.0078
   13  H              -0.4010   -2.4674   -0.2513      1.00      1.00        1.0078
   14  H              -0.9304   -1.6114    1.2098      1.00      1.00        1.0078


 FRAGMENTS
 =========                                     Atoms in this Fragment     Cart. coord.s (Angstrom)
                                               -------------------------------------------------------
    1  Si                                                1  Si           0.0000   -0.0000   -0.4812
    2  C                                                 2  C            1.8008   -0.0000    0.1125
    3  C                                                 3  C           -0.9004    1.5595    0.1125
    4  C                                                 4  C           -0.9004   -1.5595    0.1125
    5  H                                                 5  H            0.0000   -0.0000   -1.9782
    6  H                                                 6  H            2.3373   -0.8864   -0.2513
    7  H                                                 7  H            2.3373    0.8864   -0.2513
    8  H                                                 8  H            1.8607   -0.0000    1.2098
    9  H                                                 9  H           -0.4010    2.4674   -0.2513
   10  H                                                10  H           -1.9363    1.5810   -0.2513
   11  H                                                11  H           -0.9304    1.6114    1.2098
   12  H                                                12  H           -1.9363   -1.5810   -0.2513
   13  H                                                13  H           -0.4010   -2.4674   -0.2513
   14  H                                                14  H           -0.9304   -1.6114    1.2098


 Interatomic Distance Matrix (Angstrom)
 --------------------------------------

   1)     0.000
   2)     1.896   0.000
   3)     1.896   3.119   0.000
   4)     1.896   3.119   3.119   0.000
   5)     1.497   2.759   2.759   2.759   0.000
   6)     2.510   1.098   4.074   3.327   3.038   0.000
   7)     2.510   1.098   3.327   4.074   3.038   1.773   0.000
   8)     2.514   1.099   3.356   3.356   3.691   1.774   1.774   0.000
   9)     2.510   3.327   1.098   4.074   3.038   4.330   3.162   3.652   0.000
  10)     2.510   4.074   1.098   3.327   3.038   4.935   4.330   4.365   1.773   0.000
  11)     2.514   3.356   1.099   3.356   3.691   4.365   3.652   3.223   1.774   1.774
          0.000
  12)     2.510   4.074   3.327   1.098   3.038   4.330   4.935   4.365   4.330   3.162
          3.652   0.000
  13)     2.510   3.327   4.074   1.098   3.038   3.162   4.330   3.652   4.935   4.330
          4.365   1.773   0.000
  14)     2.514   3.356   3.356   1.099   3.691   3.652   4.365   3.223   4.365   3.652
          3.223   1.774   1.774   0.000

 Min. Distance =    1.0981
 Max. Distance =    4.9348



 =====================================
 S Y M M E T R Y ,   E L E C T R O N S
 =====================================
  
 Symmetry: C(3V)

 Irreducible Representations, including subspecies
 -------------------------------------------------
 A1
 A2
 E1:1  E1:2


 Configuration of Valence Electrons
 ==================================
 ( determined in the SCF procedure )

 Total:   42

 Net Charge: 0 (Nuclei minus Electrons)

 Aufbau principle for MO occupations will be applied through SCF cycle no.     150
 Thereafter, the program will assign electrons to MOs that are spatially
 similar to the occupied MOs in a "reference" cycle ("KeepOrbitals").
 The reference cycle is always the PREVIOUS cycle: it will evolve with
 the SCF procedure.
1
 ***************************************************************************************************



                                      ****************************************
                                      *  B U I L D : (Fragments, Functions)  *
                                      ****************************************
  



 =======
 S F O s  ***  (Symmetrized Fragment Orbitals)  ***
 =======
  
 SFOs are linear combinations of (valence) Fragment Orbitals (FOs), such that the SFOs transform as the
 irreducible representations of the (molecular) symmetry group. Each SFO is therefore characterized by
 an irrep of the molecule and by a few (or only one) generating FOs.
 The SFOs constitute a symmetry-adapted basis for the Fock matrix. The MO eigenvector coefficients in
 this basis provide a direct interpretation of the MOs in terms of Frontier Orbital Theory.

 The SFOs are combined with auxiliary Core Functions (CFs) to ensure orthogonalization on the (frozen)
 Core Orbitals (COs). The Core-orthogonalized SFOs (CSFOs) constitute the true Fock basis.

 The FOs, and hence also the (C)SFOs are combinations of the elementary basis functions (BAS). The basis
 functions that participate in the description of the SFOs depend on the irrep. The indices of the
 involved functions are printed below for each irrep.
 (The complete list of primitive basis functions is printed in another section)

 Total nr. of (C)SFOs (summation over all irreps) :   222

 NOTE: a (C)SFO that is defined as a combination of more than one FO is usually NOT normalized.



                                       === A1 ===
 Nr. of SFOs :   57
 Cartesian basis functions that participate in this irrep (total number =   213) :
      1     2     3     4    11    12    13     7    10    16
     19    22    28    23    26    38    31    36    29    32
     39    69    99    40    70   100    41    71   101    42
     72   102    43    73   103    46    76   106    49    79
    109    52    82   112    44    74    75   104   105    47
     77    78   107   108    50    80    81   110   111    58
     88   118    55    85    87   115   117    53    56    83
     84    86   113   114   116    68    98   128    64    94
     97   124   127    61    66    91    93    96   121   123
    126    59    62    89    90    92    95   119   120   122
    125   129   130   131   134   140   135   138   141   153
    177   189   213   225   142   154   178   190   214   226
    143   155   179   191   215   227   146   158   182   194
    218   230   144   145   156   157   180   181   192   193
    216   217   228   229   152   164   188   200   224   236
    149   151   161   163   185   187   197   199   221   223
    233   235   147   148   150   159   160   162   183   184
    186   195   196   198   219   220   222   231   232   234
    165   201   237   166   202   238   167   203   239   170
    206   242   168   204   205   240   241   176   212   248
    173   209   211   245   247   171   174   207   208   210
    243   244   246

    SFO  (index         Fragment          Generating    Expansion in Fragment Orbitals
  indx  incl.CFs)   Occup   Orb.Energy   FragmentType  Coeff.   Orbital     on Fragment
 --------------------------------------------------------------------------------------
     1       1      2.000     -65.507 au  Si            1.00      1 S               1
                        (   -1782.534 eV)
     2       2      2.000      -5.093 au  Si            1.00      2 S               1
                        (    -138.593 eV)
     3       3      2.000      -0.391 au  Si            1.00      3 S               1
                        (     -10.641 eV)
     4       4       --         0.128 au  Si            1.00      4 S               1
                        (       3.470 eV)
     5       5       --         1.507 au  Si            1.00      5 S               1
                        (      40.998 eV)
     6       6       --         9.481 au  Si            1.00      6 S               1
                        (     257.986 eV)
     7       7       --       150.257 au  Si            1.00      7 S               1
                        (    4088.710 eV)
     8       8      2.000      -3.508 au  Si            1.00      1 P:z             1
                        (     -95.456 eV)
     9       9      0.667      -0.145 au  Si            1.00      2 P:z             1
                        (      -3.936 eV)
    10      10       --         0.067 au  Si            1.00      3 P:z             1
                        (       1.821 eV)
    11      11       --         0.686 au  Si            1.00      4 P:z             1
                        (      18.654 eV)
    12      12       --         8.293 au  Si            1.00      5 P:z             1
                        (     225.656 eV)
    13      13       --         0.371 au  Si            1.00      1 D:z2            1
                        (      10.085 eV)
    14      14       --         1.060 au  Si            1.00      1 F:z3            1
                        (      28.834 eV)
    15      15       --         1.060 au  Si            1.00      1 F:x             1
                        (      28.834 eV)
    16      16      2.000     -10.063 au  C             0.58      1 S               2
                        (    -273.823 eV)               0.58      1 S               3
                                                        0.58      1 S               4
    17      17      2.000      -0.500 au  C             0.58      2 S               2
                        (     -13.609 eV)               0.58      2 S               3
                                                        0.58      2 S               4
    18      18       --         0.374 au  C             0.58      3 S               2
                        (      10.173 eV)               0.58      3 S               3
                                                        0.58      3 S               4
    19      19       --         5.411 au  C             0.58      4 S               2
                        (     147.253 eV)               0.58      4 S               3
                                                        0.58      4 S               4
    20      20       --        50.155 au  C             0.58      5 S               2
                        (    1364.777 eV)               0.58      5 S               3
                                                        0.58      5 S               4
    21      21      0.667      -0.193 au  C             0.58      1 P:x             2
                        (      -5.243 eV)              -0.29      1 P:x             3
                                                        0.50      1 P:y             3
                                                       -0.29      1 P:x             4
                                                       -0.50      1 P:y             4
    22      22       --         0.169 au  C             0.58      2 P:x             2
                        (       4.588 eV)              -0.29      2 P:x             3
                                                        0.50      2 P:y             3
                                                       -0.29      2 P:x             4
                                                       -0.50      2 P:y             4
    23      23       --         2.015 au  C             0.58      3 P:x             2
                        (      54.822 eV)              -0.29      3 P:x             3
                                                        0.50      3 P:y             3
                                                       -0.29      3 P:x             4
                                                       -0.50      3 P:y             4
    24      24      0.667      -0.193 au  C             0.58      1 P:z             2
                        (      -5.243 eV)               0.58      1 P:z             3
                                                        0.58      1 P:z             4
    25      25       --         0.169 au  C             0.58      2 P:z             2
                        (       4.588 eV)               0.58      2 P:z             3
                                                        0.58      2 P:z             4
    26      26       --         2.015 au  C             0.58      3 P:z             2
                        (      54.822 eV)               0.58      3 P:z             3
                                                        0.58      3 P:z             4
    27      27       --         1.243 au  C             0.58      1 D:z2            2
                        (      33.823 eV)               0.58      1 D:z2            3
                                                        0.58      1 D:z2            4
    28      28       --         1.243 au  C             0.58      1 D:x2-y2         2
                        (      33.823 eV)              -0.29      1 D:x2-y2         3
                                                       -0.50      1 D:xy            3
                                                       -0.29      1 D:x2-y2         4
                                                        0.50      1 D:xy            4
    29      29       --         1.243 au  C             0.58      1 D:xz            2
                        (      33.823 eV)              -0.29      1 D:xz            3
                                                        0.50      1 D:yz            3
                                                       -0.29      1 D:xz            4
                                                       -0.50      1 D:yz            4
    30      30       --         4.016 au  C             0.58      1 F:z3            2
                        (     109.288 eV)               0.58      1 F:z3            3
                                                        0.58      1 F:z3            4
    31      31       --         4.016 au  C             0.58      1 F:z             2
                        (     109.288 eV)              -0.29      1 F:z             3
                                                       -0.50      1 F:x             3
                                                       -0.29      1 F:z             4
                                                        0.50      1 F:x             4
    32      32       --         4.016 au  C             0.58      1 F:z2x           2
                        (     109.288 eV)              -0.29      1 F:z2x           3
                                                        0.50      1 F:z2y           3
                                                       -0.29      1 F:z2x           4
                                                       -0.50      1 F:z2y           4
    33      33       --         4.016 au  C             0.58      1 F:x             2
                        (     109.288 eV)               0.58      1 F:x             3
                                                        0.58      1 F:x             4
    34      34      1.000      -0.240 au  H             1.00      1 S               5
                        (      -6.532 eV)
    35      35       --         0.088 au  H             1.00      2 S               5
                        (       2.394 eV)
    36      36       --         1.502 au  H             1.00      3 S               5
                        (      40.877 eV)
    37      37       --         0.406 au  H             1.00      1 P:z             5
                        (      11.052 eV)
    38      38       --         2.570 au  H             1.00      1 D:z2            5
                        (      69.925 eV)
    39      39      1.000      -0.240 au  H             0.41      1 S               6
                        (      -6.532 eV)               0.41      1 S               7
                                                        0.41      1 S               9
                                                        0.41      1 S              10
                                                        0.41      1 S              12
                                                        0.41      1 S              13
    40      40       --         0.088 au  H             0.41      2 S               6
                        (       2.394 eV)               0.41      2 S               7
                                                        0.41      2 S               9
                                                        0.41      2 S              10
                                                        0.41      2 S              12
                                                        0.41      2 S              13
    41      41       --         1.502 au  H             0.41      3 S               6
                        (      40.877 eV)               0.41      3 S               7
                                                        0.41      3 S               9
                                                        0.41      3 S              10
                                                        0.41      3 S              12
                                                        0.41      3 S              13
    42      42       --         0.406 au  H             0.41      1 P:x             6
                        (      11.052 eV)               0.41      1 P:x             7
                                                       -0.20      1 P:x             9
                                                        0.35      1 P:y             9
                                                       -0.20      1 P:x            10
                                                        0.35      1 P:y            10
                                                       -0.20      1 P:x            12
                                                       -0.35      1 P:y            12
                                                       -0.20      1 P:x            13
                                                       -0.35      1 P:y            13
    43      43       --         0.406 au  H             0.41      1 P:y             6
                        (      11.052 eV)              -0.41      1 P:y             7
                                                       -0.35      1 P:x             9
                                                       -0.20      1 P:y             9
                                                        0.35      1 P:x            10
                                                        0.20      1 P:y            10
                                                        0.35      1 P:x            12
                                                       -0.20      1 P:y            12
                                                       -0.35      1 P:x            13
                                                        0.20      1 P:y            13
    44      44       --         0.406 au  H             0.41      1 P:z             6
                        (      11.052 eV)               0.41      1 P:z             7
                                                        0.41      1 P:z             9
                                                        0.41      1 P:z            10
                                                        0.41      1 P:z            12
                                                        0.41      1 P:z            13
    45      45       --         2.570 au  H             0.41      1 D:z2            6
                        (      69.925 eV)               0.41      1 D:z2            7
                                                        0.41      1 D:z2            9
                                                        0.41      1 D:z2           10
                                                        0.41      1 D:z2           12
                                                        0.41      1 D:z2           13
    46      46       --         2.570 au  H             0.41      1 D:x2-y2         6
                        (      69.925 eV)               0.41      1 D:x2-y2         7
                                                       -0.20      1 D:x2-y2         9
                                                       -0.35      1 D:xy            9
                                                       -0.20      1 D:x2-y2        10
                                                       -0.35      1 D:xy           10
                                                       -0.20      1 D:x2-y2        12
                                                        0.35      1 D:xy           12
                                                       -0.20      1 D:x2-y2        13
                                                        0.35      1 D:xy           13
    47      47       --         2.570 au  H             0.41      1 D:xy            6
                        (      69.925 eV)              -0.41      1 D:xy            7
                                                        0.35      1 D:x2            9
                                                       -0.20      1 D:xy            9
                                                       -0.35      1 D:x2           10
                                                        0.20      1 D:xy           10
                                                       -0.35      1 D:x2           12
                                                       -0.20      1 D:xy           12
                                                        0.35      1 D:x2           13
                                                        0.20      1 D:xy           13
    48      48       --         2.570 au  H             0.41      1 D:xz            6
                        (      69.925 eV)               0.41      1 D:xz            7
                                                       -0.20      1 D:xz            9
                                                        0.35      1 D:yz            9
                                                       -0.20      1 D:xz           10
                                                        0.35      1 D:yz           10
                                                       -0.20      1 D:xz           12
                                                       -0.35      1 D:yz           12
                                                       -0.20      1 D:xz           13
                                                       -0.35      1 D:yz           13
    49      49       --         2.570 au  H             0.41      1 D:yz            6
                        (      69.925 eV)              -0.41      1 D:yz            7
                                                       -0.35      1 D:xz            9
                                                       -0.20      1 D:yz            9
                                                        0.35      1 D:xz           10
                                                        0.20      1 D:yz           10
                                                        0.35      1 D:xz           12
                                                       -0.20      1 D:yz           12
                                                       -0.35      1 D:xz           13
                                                        0.20      1 D:yz           13
    50      50      1.000      -0.240 au  H             0.58      1 S               8
                        (      -6.532 eV)               0.58      1 S              11
                                                        0.58      1 S              14
    51      51       --         0.088 au  H             0.58      2 S               8
                        (       2.394 eV)               0.58      2 S              11
                                                        0.58      2 S              14
    52      52       --         1.502 au  H             0.58      3 S               8
                        (      40.877 eV)               0.58      3 S              11
                                                        0.58      3 S              14
    53      53       --         0.406 au  H             0.58      1 P:x             8
                        (      11.052 eV)              -0.29      1 P:x            11
                                                        0.50      1 P:y            11
                                                       -0.29      1 P:x            14
                                                       -0.50      1 P:y            14
    54      54       --         0.406 au  H             0.58      1 P:z             8
                        (      11.052 eV)               0.58      1 P:z            11
                                                        0.58      1 P:z            14
    55      55       --         2.570 au  H             0.58      1 D:z2            8
                        (      69.925 eV)               0.58      1 D:z2           11
                                                        0.58      1 D:z2           14
    56      56       --         2.570 au  H             0.58      1 D:x2-y2         8
                        (      69.925 eV)              -0.29      1 D:x2-y2        11
                                                       -0.50      1 D:xy           11
                                                       -0.29      1 D:x2-y2        14
                                                        0.50      1 D:xy           14
    57      57       --         2.570 au  H             0.58      1 D:xz            8
                        (      69.925 eV)              -0.29      1 D:xz           11
                                                        0.50      1 D:yz           11
                                                       -0.29      1 D:xz           14
                                                       -0.50      1 D:yz           14



                                       === A2 ===
 Nr. of SFOs :   23
 Cartesian basis functions that participate in this irrep (total number =   140) :
     30    35    45    74    75   104   105    48    77    78
    107   108    51    80    81   110   111    57    85    87
    115   117    54    83    84    86   113   114   116    67
     94    97   124   127    63    91    93    96   121   123
    126    60    65    89    90    92    95   119   120   122
    125   141   153   177   189   213   225   142   154   178
    190   214   226   143   155   179   191   215   227   146
    158   182   194   218   230   144   145   156   157   180
    181   192   193   216   217   228   229   152   164   188
    200   224   236   149   151   161   163   185   187   197
    199   221   223   233   235   147   148   150   159   160
    162   183   184   186   195   196   198   219   220   222
    231   232   234   169   204   205   240   241   175   209
    211   245   247   172   207   208   210   243   244   246

    SFO  (index         Fragment          Generating    Expansion in Fragment Orbitals
  indx  incl.CFs)   Occup   Orb.Energy   FragmentType  Coeff.   Orbital     on Fragment
 --------------------------------------------------------------------------------------
     1       1       --         1.060 au  Si            1.00      1 F:y             1
                        (      28.834 eV)
     2       2      0.667      -0.193 au  C             0.58      1 P:y             2
                        (      -5.243 eV)              -0.50      1 P:x             3
                                                       -0.29      1 P:y             3
                                                        0.50      1 P:x             4
                                                       -0.29      1 P:y             4
     3       3       --         0.169 au  C             0.58      2 P:y             2
                        (       4.588 eV)              -0.50      2 P:x             3
                                                       -0.29      2 P:y             3
                                                        0.50      2 P:x             4
                                                       -0.29      2 P:y             4
     4       4       --         2.015 au  C             0.58      3 P:y             2
                        (      54.822 eV)              -0.50      3 P:x             3
                                                       -0.29      3 P:y             3
                                                        0.50      3 P:x             4
                                                       -0.29      3 P:y             4
     5       5       --         1.243 au  C             0.58      1 D:xy            2
                        (      33.823 eV)               0.50      1 D:x2            3
                                                       -0.29      1 D:xy            3
                                                       -0.50      1 D:x2            4
                                                       -0.29      1 D:xy            4
     6       6       --         1.243 au  C             0.58      1 D:yz            2
                        (      33.823 eV)              -0.50      1 D:xz            3
                                                       -0.29      1 D:yz            3
                                                        0.50      1 D:xz            4
                                                       -0.29      1 D:yz            4
     7       7       --         4.016 au  C             0.58      1 F:xyz           2
                        (     109.288 eV)               0.50      1 F:z             3
                                                       -0.29      1 F:xyz           3
                                                       -0.50      1 F:z             4
                                                       -0.29      1 F:xyz           4
     8       8       --         4.016 au  C             0.58      1 F:z2y           2
                        (     109.288 eV)              -0.50      1 F:z2x           3
                                                       -0.29      1 F:z2y           3
                                                        0.50      1 F:z2x           4
                                                       -0.29      1 F:z2y           4
     9       9       --         4.016 au  C             0.58      1 F:y             2
                        (     109.288 eV)               0.58      1 F:y             3
                                                        0.58      1 F:y             4
    10      10      1.000      -0.240 au  H             0.41      1 S               6
                        (      -6.532 eV)              -0.41      1 S               7
                                                        0.41      1 S               9
                                                       -0.41      1 S              10
                                                        0.41      1 S              12
                                                       -0.41      1 S              13
    11      11       --         0.088 au  H             0.41      2 S               6
                        (       2.394 eV)              -0.41      2 S               7
                                                        0.41      2 S               9
                                                       -0.41      2 S              10
                                                        0.41      2 S              12
                                                       -0.41      2 S              13
    12      12       --         1.502 au  H             0.41      3 S               6
                        (      40.877 eV)              -0.41      3 S               7
                                                        0.41      3 S               9
                                                       -0.41      3 S              10
                                                        0.41      3 S              12
                                                       -0.41      3 S              13
    13      13       --         0.406 au  H             0.41      1 P:x             6
                        (      11.052 eV)              -0.41      1 P:x             7
                                                       -0.20      1 P:x             9
                                                        0.35      1 P:y             9
                                                        0.20      1 P:x            10
                                                       -0.35      1 P:y            10
                                                       -0.20      1 P:x            12
                                                       -0.35      1 P:y            12
                                                        0.20      1 P:x            13
                                                        0.35      1 P:y            13
    14      14       --         0.406 au  H             0.41      1 P:y             6
                        (      11.052 eV)               0.41      1 P:y             7
                                                       -0.35      1 P:x             9
                                                       -0.20      1 P:y             9
                                                       -0.35      1 P:x            10
                                                       -0.20      1 P:y            10
                                                        0.35      1 P:x            12
                                                       -0.20      1 P:y            12
                                                        0.35      1 P:x            13
                                                       -0.20      1 P:y            13
    15      15       --         0.406 au  H             0.41      1 P:z             6
                        (      11.052 eV)              -0.41      1 P:z             7
                                                        0.41      1 P:z             9
                                                       -0.41      1 P:z            10
                                                        0.41      1 P:z            12
                                                       -0.41      1 P:z            13
    16      16       --         2.570 au  H             0.41      1 D:z2            6
                        (      69.925 eV)              -0.41      1 D:z2            7
                                                        0.41      1 D:z2            9
                                                       -0.41      1 D:z2           10
                                                        0.41      1 D:z2           12
                                                       -0.41      1 D:z2           13
    17      17       --         2.570 au  H             0.41      1 D:x2-y2         6
                        (      69.925 eV)              -0.41      1 D:x2-y2         7
                                                       -0.20      1 D:x2-y2         9
                                                       -0.35      1 D:xy            9
                                                        0.20      1 D:x2-y2        10
                                                        0.35      1 D:xy           10
                                                       -0.20      1 D:x2-y2        12
                                                        0.35      1 D:xy           12
                                                        0.20      1 D:x2-y2        13
                                                       -0.35      1 D:xy           13
    18      18       --         2.570 au  H             0.41      1 D:xy            6
                        (      69.925 eV)               0.41      1 D:xy            7
                                                        0.35      1 D:x2            9
                                                       -0.20      1 D:xy            9
                                                        0.35      1 D:x2           10
                                                       -0.20      1 D:xy           10
                                                       -0.35      1 D:x2           12
                                                       -0.20      1 D:xy           12
                                                       -0.35      1 D:x2           13
                                                       -0.20      1 D:xy           13
    19      19       --         2.570 au  H             0.41      1 D:xz            6
                        (      69.925 eV)              -0.41      1 D:xz            7
                                                       -0.20      1 D:xz            9
                                                        0.35      1 D:yz            9
                                                        0.20      1 D:xz           10
                                                       -0.35      1 D:yz           10
                                                       -0.20      1 D:xz           12
                                                       -0.35      1 D:yz           12
                                                        0.20      1 D:xz           13
                                                        0.35      1 D:yz           13
    20      20       --         2.570 au  H             0.41      1 D:yz            6
                        (      69.925 eV)               0.41      1 D:yz            7
                                                       -0.35      1 D:xz            9
                                                       -0.20      1 D:yz            9
                                                       -0.35      1 D:xz           10
                                                       -0.20      1 D:yz           10
                                                        0.35      1 D:xz           12
                                                       -0.20      1 D:yz           12
                                                        0.35      1 D:xz           13
                                                       -0.20      1 D:yz           13
    21      21       --         0.406 au  H             0.58      1 P:y             8
                        (      11.052 eV)              -0.50      1 P:x            11
                                                       -0.29      1 P:y            11
                                                        0.50      1 P:x            14
                                                       -0.29      1 P:y            14
    22      22       --         2.570 au  H             0.58      1 D:xy            8
                        (      69.925 eV)               0.50      1 D:x2           11
                                                       -0.29      1 D:xy           11
                                                       -0.50      1 D:x2           14
                                                       -0.29      1 D:xy           14
    23      23       --         2.570 au  H             0.58      1 D:yz            8
                        (      69.925 eV)              -0.50      1 D:xz           11
                                                       -0.29      1 D:yz           11
                                                        0.50      1 D:xz           14
                                                       -0.29      1 D:yz           14



                                       === E1:1 ===
 Nr. of SFOs :   71
 Cartesian basis functions that participate in this irrep (total number =   203) :
      5     8    14    17    20    25    23    26    34    31
     36    29    32    39    69    99    40    70   100    41
     71   101    42    72   102    43    73   103    46    76
    106    49    79   109    52    82   112    44    74    75
    104   105    47    77    78   107   108    50    80    81
    110   111    58    88   118    55    85    87   115   117
     53    56    83    84    86   113   114   116    68    98
    128    64    94    97   124   127    61    66    91    93
     96   121   123   126    59    62    89    90    92    95
    119   120   122   125   132   137   135   138   141   153
    177   189   213   225   142   154   178   190   214   226
    143   155   179   191   215   227   146   158   182   194
    218   230   144   145   156   157   180   181   192   193
    216   217   228   229   152   164   188   200   224   236
    149   151   161   163   185   187   197   199   221   223
    233   235   147   148   150   159   160   162   183   184
    186   195   196   198   219   220   222   231   232   234
    165   201   237   166   202   238   167   203   239   170
    206   242   168   204   205   240   241   176   212   248
    173   209   211   245   247   171   174   207   208   210
    243   244   246

    SFO  (index         Fragment          Generating    Expansion in Fragment Orbitals
  indx  incl.CFs)   Occup   Orb.Energy   FragmentType  Coeff.   Orbital     on Fragment
 --------------------------------------------------------------------------------------
     1       1      2.000      -3.508 au  Si            1.00      1 P:x             1
                        (     -95.456 eV)
     2       2      0.667      -0.145 au  Si            1.00      2 P:x             1
                        (      -3.936 eV)
     3       3       --         0.067 au  Si            1.00      3 P:x             1
                        (       1.821 eV)
     4       4       --         0.686 au  Si            1.00      4 P:x             1
                        (      18.654 eV)
     5       5       --         8.293 au  Si            1.00      5 P:x             1
                        (     225.656 eV)
     6       6       --         0.371 au  Si            1.00      1 D:x2-y2         1
                        (      10.085 eV)
     7       7       --         0.371 au  Si            1.00      1 D:xz            1
                        (      10.085 eV)
     8       8       --         1.060 au  Si            1.00      1 F:z             1
                        (      28.834 eV)
     9       9       --         1.060 au  Si            1.00      1 F:z2x           1
                        (      28.834 eV)
    10      10      2.000     -10.063 au  C             0.82      1 S               2
                        (    -273.823 eV)              -0.41      1 S               3
                                                       -0.41      1 S               4
    11      11      2.000      -0.500 au  C             0.82      2 S               2
                        (     -13.609 eV)              -0.41      2 S               3
                                                       -0.41      2 S               4
    12      12       --         0.374 au  C             0.82      3 S               2
                        (      10.173 eV)              -0.41      3 S               3
                                                       -0.41      3 S               4
    13      13       --         5.411 au  C             0.82      4 S               2
                        (     147.253 eV)              -0.41      4 S               3
                                                       -0.41      4 S               4
    14      14       --        50.155 au  C             0.82      5 S               2
                        (    1364.777 eV)              -0.41      5 S               3
                                                       -0.41      5 S               4
    15      15      0.667      -0.193 au  C             0.82      1 P:x             2
                        (      -5.243 eV)               0.20      1 P:x             3
                                                       -0.35      1 P:y             3
                                                        0.20      1 P:x             4
                                                        0.35      1 P:y             4
    16      16       --         0.169 au  C             0.82      2 P:x             2
                        (       4.588 eV)               0.20      2 P:x             3
                                                       -0.35      2 P:y             3
                                                        0.20      2 P:x             4
                                                        0.35      2 P:y             4
    17      17       --         2.015 au  C             0.82      3 P:x             2
                        (      54.822 eV)               0.20      3 P:x             3
                                                       -0.35      3 P:y             3
                                                        0.20      3 P:x             4
                                                        0.35      3 P:y             4
    18      18      0.667      -0.193 au  C             0.82      1 P:z             2
                        (      -5.243 eV)              -0.41      1 P:z             3
                                                       -0.41      1 P:z             4
    19      19       --         0.169 au  C             0.82      2 P:z             2
                        (       4.588 eV)              -0.41      2 P:z             3
                                                       -0.41      2 P:z             4
    20      20       --         2.015 au  C             0.82      3 P:z             2
                        (      54.822 eV)              -0.41      3 P:z             3
                                                       -0.41      3 P:z             4
    21      21      0.667      -0.193 au  C             0.61      1 P:x             3
                        (      -5.243 eV)               0.35      1 P:y             3
                                                        0.61      1 P:x             4
                                                       -0.35      1 P:y             4
    22      22       --         0.169 au  C             0.61      2 P:x             3
                        (       4.588 eV)               0.35      2 P:y             3
                                                        0.61      2 P:x             4
                                                       -0.35      2 P:y             4
    23      23       --         2.015 au  C             0.61      3 P:x             3
                        (      54.822 eV)               0.35      3 P:y             3
                                                        0.61      3 P:x             4
                                                       -0.35      3 P:y             4
    24      24       --         1.243 au  C             0.82      1 D:z2            2
                        (      33.823 eV)              -0.41      1 D:z2            3
                                                       -0.41      1 D:z2            4
    25      25       --         1.243 au  C             0.82      1 D:x2-y2         2
                        (      33.823 eV)               0.20      1 D:x2-y2         3
                                                        0.35      1 D:xy            3
                                                        0.20      1 D:x2-y2         4
                                                       -0.35      1 D:xy            4
    26      26       --         1.243 au  C             0.82      1 D:xz            2
                        (      33.823 eV)               0.20      1 D:xz            3
                                                       -0.35      1 D:yz            3
                                                        0.20      1 D:xz            4
                                                        0.35      1 D:yz            4
    27      27       --         1.243 au  C             0.61      1 D:x2-y2         3
                        (      33.823 eV)              -0.35      1 D:xy            3
                                                        0.61      1 D:x2-y2         4
                                                        0.35      1 D:xy            4
    28      28       --         1.243 au  C             0.61      1 D:xz            3
                        (      33.823 eV)               0.35      1 D:yz            3
                                                        0.61      1 D:xz            4
                                                       -0.35      1 D:yz            4
    29      29       --         4.016 au  C             0.82      1 F:z3            2
                        (     109.288 eV)              -0.41      1 F:z3            3
                                                       -0.41      1 F:z3            4
    30      30       --         4.016 au  C             0.82      1 F:z             2
                        (     109.288 eV)               0.20      1 F:z             3
                                                        0.35      1 F:x             3
                                                        0.20      1 F:z             4
                                                       -0.35      1 F:x             4
    31      31       --         4.016 au  C             0.82      1 F:z2x           2
                        (     109.288 eV)               0.20      1 F:z2x           3
                                                       -0.35      1 F:z2y           3
                                                        0.20      1 F:z2x           4
                                                        0.35      1 F:z2y           4
    32      32       --         4.016 au  C             0.82      1 F:x             2
                        (     109.288 eV)              -0.41      1 F:x             3
                                                       -0.41      1 F:x             4
    33      33       --         4.016 au  C             0.61      1 F:z             3
                        (     109.288 eV)              -0.35      1 F:x             3
                                                        0.61      1 F:z             4
                                                        0.35      1 F:x             4
    34      34       --         4.016 au  C             0.61      1 F:z2x           3
                        (     109.288 eV)               0.35      1 F:z2y           3
                                                        0.61      1 F:z2x           4
                                                       -0.35      1 F:z2y           4
    35      35       --         4.016 au  C             0.71      1 F:y             3
                        (     109.288 eV)              -0.71      1 F:y             4
    36      36       --         0.406 au  H             1.00      1 P:x             5
                        (      11.052 eV)
    37      37       --         2.570 au  H             1.00      1 D:x2-y2         5
                        (      69.925 eV)
    38      38       --         2.570 au  H             1.00      1 D:xz            5
                        (      69.925 eV)
    39      39      1.000      -0.240 au  H             0.58      1 S               6
                        (      -6.532 eV)               0.58      1 S               7
                                                       -0.29      1 S               9
                                                       -0.29      1 S              10
                                                       -0.29      1 S              12
                                                       -0.29      1 S              13
    40      40       --         0.088 au  H             0.58      2 S               6
                        (       2.394 eV)               0.58      2 S               7
                                                       -0.29      2 S               9
                                                       -0.29      2 S              10
                                                       -0.29      2 S              12
                                                       -0.29      2 S              13
    41      41       --         1.502 au  H             0.58      3 S               6
                        (      40.877 eV)               0.58      3 S               7
                                                       -0.29      3 S               9
                                                       -0.29      3 S              10
                                                       -0.29      3 S              12
                                                       -0.29      3 S              13
    42      42      1.000      -0.240 au  H             0.50      1 S               9
                        (      -6.532 eV)              -0.50      1 S              10
                                                       -0.50      1 S              12
                                                        0.50      1 S              13
    43      43       --         0.088 au  H             0.50      2 S               9
                        (       2.394 eV)              -0.50      2 S              10
                                                       -0.50      2 S              12
                                                        0.50      2 S              13
    44      44       --         1.502 au  H             0.50      3 S               9
                        (      40.877 eV)              -0.50      3 S              10
                                                       -0.50      3 S              12
                                                        0.50      3 S              13
    45      45       --         0.406 au  H             0.58      1 P:x             6
                        (      11.052 eV)               0.58      1 P:x             7
                                                        0.14      1 P:x             9
                                                       -0.25      1 P:y             9
                                                        0.14      1 P:x            10
                                                       -0.25      1 P:y            10
                                                        0.14      1 P:x            12
                                                        0.25      1 P:y            12
                                                        0.14      1 P:x            13
                                                        0.25      1 P:y            13
    46      46       --         0.406 au  H             0.58      1 P:y             6
                        (      11.052 eV)              -0.58      1 P:y             7
                                                        0.25      1 P:x             9
                                                        0.14      1 P:y             9
                                                       -0.25      1 P:x            10
                                                       -0.14      1 P:y            10
                                                       -0.25      1 P:x            12
                                                        0.14      1 P:y            12
                                                        0.25      1 P:x            13
                                                       -0.14      1 P:y            13
    47      47       --         0.406 au  H             0.58      1 P:z             6
                        (      11.052 eV)               0.58      1 P:z             7
                                                       -0.29      1 P:z             9
                                                       -0.29      1 P:z            10
                                                       -0.29      1 P:z            12
                                                       -0.29      1 P:z            13
    48      48       --         0.406 au  H             0.50      1 P:x             9
                        (      11.052 eV)               0.25      1 P:x            10
                                                        0.43      1 P:y            10
                                                        0.25      1 P:x            12
                                                       -0.43      1 P:y            12
                                                        0.50      1 P:x            13
    49      49       --         0.406 au  H             0.50      1 P:y             9
                        (      11.052 eV)               0.43      1 P:x            10
                                                       -0.25      1 P:y            10
                                                        0.43      1 P:x            12
                                                        0.25      1 P:y            12
                                                       -0.50      1 P:y            13
    50      50       --         0.406 au  H             0.50      1 P:z             9
                        (      11.052 eV)              -0.50      1 P:z            10
                                                       -0.50      1 P:z            12
                                                        0.50      1 P:z            13
    51      51       --         2.570 au  H             0.58      1 D:z2            6
                        (      69.925 eV)               0.58      1 D:z2            7
                                                       -0.29      1 D:z2            9
                                                       -0.29      1 D:z2           10
                                                       -0.29      1 D:z2           12
                                                       -0.29      1 D:z2           13
    52      52       --         2.570 au  H             0.58      1 D:x2-y2         6
                        (      69.925 eV)               0.58      1 D:x2-y2         7
                                                        0.14      1 D:x2-y2         9
                                                        0.25      1 D:xy            9
                                                        0.14      1 D:x2-y2        10
                                                        0.25      1 D:xy           10
                                                        0.14      1 D:x2-y2        12
                                                       -0.25      1 D:xy           12
                                                        0.14      1 D:x2-y2        13
                                                       -0.25      1 D:xy           13
    53      53       --         2.570 au  H             0.58      1 D:xy            6
                        (      69.925 eV)              -0.58      1 D:xy            7
                                                       -0.25      1 D:x2            9
                                                        0.14      1 D:xy            9
                                                        0.25      1 D:x2           10
                                                       -0.14      1 D:xy           10
                                                        0.25      1 D:x2           12
                                                        0.14      1 D:xy           12
                                                       -0.25      1 D:x2           13
                                                       -0.14      1 D:xy           13
    54      54       --         2.570 au  H             0.58      1 D:xz            6
                        (      69.925 eV)               0.58      1 D:xz            7
                                                        0.14      1 D:xz            9
                                                       -0.25      1 D:yz            9
                                                        0.14      1 D:xz           10
                                                       -0.25      1 D:yz           10
                                                        0.14      1 D:xz           12
                                                        0.25      1 D:yz           12
                                                        0.14      1 D:xz           13
                                                        0.25      1 D:yz           13
    55      55       --         2.570 au  H             0.58      1 D:yz            6
                        (      69.925 eV)              -0.58      1 D:yz            7
                                                        0.25      1 D:xz            9
                                                        0.14      1 D:yz            9
                                                       -0.25      1 D:xz           10
                                                       -0.14      1 D:yz           10
                                                       -0.25      1 D:xz           12
                                                        0.14      1 D:yz           12
                                                        0.25      1 D:xz           13
                                                       -0.14      1 D:yz           13
    56      56       --         2.570 au  H             0.50      1 D:z2            9
                        (      69.925 eV)              -0.50      1 D:z2           10
                                                       -0.50      1 D:z2           12
                                                        0.50      1 D:z2           13
    57      57       --         2.570 au  H             0.50      1 D:x2-y2         9
                        (      69.925 eV)               0.25      1 D:x2-y2        10
                                                       -0.43      1 D:xy           10
                                                        0.25      1 D:x2-y2        12
                                                        0.43      1 D:xy           12
                                                        0.50      1 D:x2-y2        13
    58      58       --         2.570 au  H             0.50      1 D:xy            9
                        (      69.925 eV)              -0.43      1 D:x2           10
                                                       -0.25      1 D:xy           10
                                                       -0.43      1 D:x2           12
                                                        0.25      1 D:xy           12
                                                       -0.50      1 D:xy           13
    59      59       --         2.570 au  H             0.50      1 D:xz            9
                        (      69.925 eV)               0.25      1 D:xz           10
                                                        0.43      1 D:yz           10
                                                        0.25      1 D:xz           12
                                                       -0.43      1 D:yz           12
                                                        0.50      1 D:xz           13
    60      60       --         2.570 au  H             0.50      1 D:yz            9
                        (      69.925 eV)               0.43      1 D:xz           10
                                                       -0.25      1 D:yz           10
                                                        0.43      1 D:xz           12
                                                        0.25      1 D:yz           12
                                                       -0.50      1 D:yz           13
    61      61      1.000      -0.240 au  H             0.82      1 S               8
                        (      -6.532 eV)              -0.41      1 S              11
                                                       -0.41      1 S              14
    62      62       --         0.088 au  H             0.82      2 S               8
                        (       2.394 eV)              -0.41      2 S              11
                                                       -0.41      2 S              14
    63      63       --         1.502 au  H             0.82      3 S               8
                        (      40.877 eV)              -0.41      3 S              11
                                                       -0.41      3 S              14
    64      64       --         0.406 au  H             0.82      1 P:x             8
                        (      11.052 eV)               0.20      1 P:x            11
                                                       -0.35      1 P:y            11
                                                        0.20      1 P:x            14
                                                        0.35      1 P:y            14
    65      65       --         0.406 au  H             0.82      1 P:z             8
                        (      11.052 eV)              -0.41      1 P:z            11
                                                       -0.41      1 P:z            14
    66      66       --         0.406 au  H             0.61      1 P:x            11
                        (      11.052 eV)               0.35      1 P:y            11
                                                        0.61      1 P:x            14
                                                       -0.35      1 P:y            14
    67      67       --         2.570 au  H             0.82      1 D:z2            8
                        (      69.925 eV)              -0.41      1 D:z2           11
                                                       -0.41      1 D:z2           14
    68      68       --         2.570 au  H             0.82      1 D:x2-y2         8
                        (      69.925 eV)               0.20      1 D:x2-y2        11
                                                        0.35      1 D:xy           11
                                                        0.20      1 D:x2-y2        14
                                                       -0.35      1 D:xy           14
    69      69       --         2.570 au  H             0.82      1 D:xz            8
                        (      69.925 eV)               0.20      1 D:xz           11
                                                       -0.35      1 D:yz           11
                                                        0.20      1 D:xz           14
                                                        0.35      1 D:yz           14
    70      70       --         2.570 au  H             0.61      1 D:x2-y2        11
                        (      69.925 eV)              -0.35      1 D:xy           11
                                                        0.61      1 D:x2-y2        14
                                                        0.35      1 D:xy           14
    71      71       --         2.570 au  H             0.61      1 D:xz           11
                        (      69.925 eV)               0.35      1 D:yz           11
                                                        0.61      1 D:xz           14
                                                       -0.35      1 D:yz           14



                                       === E1:2 ===
 Nr. of SFOs :   71
 Cartesian basis functions that participate in this irrep (total number =   182) :
      6     9    15    18    21    27    24    37    33    30
     35    69    99    70   100    71   101    72   102    73
    103    76   106    79   109    82   112    45    74    75
    104   105    48    77    78   107   108    51    80    81
    110   111    88   118    57    85    87   115   117    54
     83    84    86   113   114   116    98   128    67    94
     97   124   127    63    91    93    96   121   123   126
     60    65    89    90    92    95   119   120   122   125
    133   139   136   141   153   177   189   213   225   142
    154   178   190   214   226   143   155   179   191   215
    227   146   158   182   194   218   230   144   145   156
    157   180   181   192   193   216   217   228   229   152
    164   188   200   224   236   149   151   161   163   185
    187   197   199   221   223   233   235   147   148   150
    159   160   162   183   184   186   195   196   198   219
    220   222   231   232   234   201   237   202   238   203
    239   206   242   169   204   205   240   241   212   248
    175   209   211   245   247   172   207   208   210   243
    244   246

    SFO  (index         Fragment          Generating    Expansion in Fragment Orbitals
  indx  incl.CFs)   Occup   Orb.Energy   FragmentType  Coeff.   Orbital     on Fragment
 --------------------------------------------------------------------------------------
     1       1      2.000      -3.508 au  Si            1.00      1 P:y             1
                        (     -95.456 eV)
     2       2      0.667      -0.145 au  Si            1.00      2 P:y             1
                        (      -3.936 eV)
     3       3       --         0.067 au  Si            1.00      3 P:y             1
                        (       1.821 eV)
     4       4       --         0.686 au  Si            1.00      4 P:y             1
                        (      18.654 eV)
     5       5       --         8.293 au  Si            1.00      5 P:y             1
                        (     225.656 eV)
     6       6       --         0.371 au  Si           -1.00      1 D:xy            1
                        (      10.085 eV)
     7       7       --         0.371 au  Si            1.00      1 D:yz            1
                        (      10.085 eV)
     8       8       --         1.060 au  Si           -1.00      1 F:xyz           1
                        (      28.834 eV)
     9       9       --         1.060 au  Si            1.00      1 F:z2y           1
                        (      28.834 eV)
    10      10      2.000     -10.063 au  C             0.71      1 S               3
                        (    -273.823 eV)              -0.71      1 S               4
    11      11      2.000      -0.500 au  C             0.71      2 S               3
                        (     -13.609 eV)              -0.71      2 S               4
    12      12       --         0.374 au  C             0.71      3 S               3
                        (      10.173 eV)              -0.71      3 S               4
    13      13       --         5.411 au  C             0.71      4 S               3
                        (     147.253 eV)              -0.71      4 S               4
    14      14       --        50.155 au  C             0.71      5 S               3
                        (    1364.777 eV)              -0.71      5 S               4
    15      15      0.667      -0.193 au  C            -0.35      1 P:x             3
                        (      -5.243 eV)               0.61      1 P:y             3
                                                        0.35      1 P:x             4
                                                        0.61      1 P:y             4
    16      16       --         0.169 au  C            -0.35      2 P:x             3
                        (       4.588 eV)               0.61      2 P:y             3
                                                        0.35      2 P:x             4
                                                        0.61      2 P:y             4
    17      17       --         2.015 au  C            -0.35      3 P:x             3
[...]
                               0.374    -0.583    -0.721
                               0.924     0.298     0.239
                        -----------------------------------
 
================================================================================
 
 
===  TOTAL NMR SHIELDING TENSOR (ppm)
 
                        ***********************************
                        CARTESIAN AXIS REPRESENTATION

                        ==== total shielding tensor
                        -----------------------------------
                              32.916     3.807    -1.434
                               3.807    32.880    -1.967
                              -1.434    -1.967    28.244
                        -----------------------------------
                                  isotropic =     31.347

                        ***********************************
                        -----------------------------------
                        PRINCIPAL AXIS REPRESENTATION

                        ==== Principal components:

                              27.522    29.177    37.342
 
                        ==== Principal Axis System:

                               0.013     0.736    -0.677
                               0.337    -0.640    -0.690
                               0.942     0.219     0.256
                        -----------------------------------
################################################################################
********************************************************************************
****  N U C L E U S : H(8)
 
 ADF-GUI atom: H(8)
 Internal NMR numbering of atoms: H(8)
 
 
================================================================================
 
 
===  PARAMAGNETIC NMR SHIELDING TENSORS (ppm)
 
    ===     paramagnetic b^(1) tensor       ===     paramagnetic u^(1) tensor
    -----------------------------------     -----------------------------------
           0.000     0.000     0.000               0.423     0.000   -10.077
           0.000     0.000     0.000               0.000     2.558     0.000
           0.000     0.000     0.000             -10.077     0.000   -13.235
    -----------------------------------     -----------------------------------
              isotropic =      0.000                  isotropic =     -3.418

    ===     paramagnetic s^(1) tensor       ===     paramagnetic gauge tensor
    -----------------------------------     -----------------------------------
           2.116     0.000    10.656               1.052    -0.000    -0.393
           0.000     0.514     0.000              -0.000     1.321    -0.000
          10.656     0.000    15.491              -0.393    -0.000     0.980
    -----------------------------------     -----------------------------------
              isotropic =      6.040                  isotropic =      1.117

                        ***********************************
                        CARTESIAN AXIS REPRESENTATION

                        ==== total paramagnetic tensor
                        -----------------------------------
                               3.590     0.000     0.186
                               0.000     4.393     0.000
                               0.186     0.000     3.236
                        -----------------------------------
                                  isotropic =      3.739

                        ***********************************
                        -----------------------------------
                        PRINCIPAL AXIS REPRESENTATION

                        ==== Principal components:

                               3.156     3.669     4.393
 
                        ==== Principal Axis System:

                              -0.394    -0.919    -0.000
                              -0.000     0.000    -1.000
                               0.919    -0.394    -0.000
                        -----------------------------------
 
================================================================================
 
 
===  DIAMAGNETIC NMR SHIELDING TENSORS (ppm)
 
    ===       diamagnetic core tensor       ===    diamagnetic valence tensor
    -----------------------------------     -----------------------------------
           0.000     0.000     0.000              26.671    -0.000     1.832
           0.000     0.000     0.000              -0.000    23.988     0.000
           0.000     0.000     0.000               1.832     0.000    32.691
    -----------------------------------     -----------------------------------
              isotropic =      0.000                  isotropic =     27.783

                        ***********************************
                        CARTESIAN AXIS REPRESENTATION

                        ==== total diamagnetic tensor
                        -----------------------------------
                              26.671    -0.000     1.832
                              -0.000    23.988     0.000
                               1.832     0.000    32.691
                        -----------------------------------
                                  isotropic =     27.783

                        ***********************************
                        -----------------------------------
                        PRINCIPAL AXIS REPRESENTATION

                        ==== Principal components:

                              23.988    26.158    33.205
 
                        ==== Principal Axis System:

                              -0.000    -0.963     0.270
                              -1.000     0.000     0.000
                               0.000     0.270     0.963
                        -----------------------------------
 
================================================================================
 
 
===  TOTAL NMR SHIELDING TENSOR (ppm)
 
                        ***********************************
                        CARTESIAN AXIS REPRESENTATION

                        ==== total shielding tensor
                        -----------------------------------
                              30.261     0.000     2.018
                               0.000    28.381     0.000
                               2.018     0.000    35.927
                        -----------------------------------
                                  isotropic =     31.523

                        ***********************************
                        -----------------------------------
                        PRINCIPAL AXIS REPRESENTATION

                        ==== Principal components:

                              28.381    29.616    36.572
 
                        ==== Principal Axis System:

                               0.000    -0.953     0.305
                              -1.000    -0.000     0.000
                               0.000     0.305     0.953
                        -----------------------------------
################################################################################
********************************************************************************
****  N U C L E U S : H(9)
 
 ADF-GUI atom: H(9)
 Internal NMR numbering of atoms: H(9)
 
 
================================================================================
 
 
===  PARAMAGNETIC NMR SHIELDING TENSORS (ppm)
 
    ===     paramagnetic b^(1) tensor       ===     paramagnetic u^(1) tensor
    -----------------------------------     -----------------------------------
           0.000     0.000     0.000              12.209    -4.564     0.959
           0.000     0.000     0.000              -4.564   -13.327     5.616
           0.000     0.000     0.000               0.959     5.616     7.422
    -----------------------------------     -----------------------------------
              isotropic =      0.000                  isotropic =      2.101

    ===     paramagnetic s^(1) tensor       ===     paramagnetic gauge tensor
    -----------------------------------     -----------------------------------
          -9.923     4.294    -0.488               0.712     0.102    -0.071
           4.294    16.476    -6.113               0.102     0.194     0.275
          -0.488    -6.113    -5.375              -0.071     0.275     1.652
    -----------------------------------     -----------------------------------
              isotropic =      0.393                  isotropic =      0.852

                        ***********************************
                        CARTESIAN AXIS REPRESENTATION

                        ==== total paramagnetic tensor
                        -----------------------------------
                               2.998    -0.168     0.400
                              -0.168     3.342    -0.222
                               0.400    -0.222     3.699
                        -----------------------------------
                                  isotropic =      3.347

                        ***********************************
                        -----------------------------------
                        PRINCIPAL AXIS REPRESENTATION

                        ==== Principal components:

                               2.808     3.237     3.994
 
                        ==== Principal Axis System:

                               0.916     0.038     0.399
                               0.131     0.913    -0.386
                              -0.379     0.406     0.832
                        -----------------------------------
 
================================================================================
 
 
===  DIAMAGNETIC NMR SHIELDING TENSORS (ppm)
 
    ===       diamagnetic core tensor       ===    diamagnetic valence tensor
    -----------------------------------     -----------------------------------
           0.000     0.000     0.000              26.594     2.056    -1.387
           0.000     0.000     0.000               2.056    32.862    -2.003
           0.000     0.000     0.000              -1.387    -2.003    24.546
    -----------------------------------     -----------------------------------
              isotropic =      0.000                  isotropic =     28.001

                        ***********************************
                        CARTESIAN AXIS REPRESENTATION

                        ==== total diamagnetic tensor
                        -----------------------------------
                              26.594     2.056    -1.387
                               2.056    32.862    -2.003
                              -1.387    -2.003    24.546
                        -----------------------------------
                                  isotropic =     28.001

                        ***********************************
                        -----------------------------------
                        PRINCIPAL AXIS REPRESENTATION

                        ==== Principal components:

                              23.740    26.217    34.045
 
                        ==== Principal Axis System:

                               0.362     0.883    -0.299
                               0.121    -0.363    -0.924
                               0.924    -0.298     0.239
                        -----------------------------------
 
================================================================================
 
 
===  TOTAL NMR SHIELDING TENSOR (ppm)
 
                        ***********************************
                        CARTESIAN AXIS REPRESENTATION

                        ==== total shielding tensor
                        -----------------------------------
                              29.592     1.888    -0.987
                               1.888    36.204    -2.225
                              -0.987    -2.225    28.245
                        -----------------------------------
                                  isotropic =     31.347

                        ***********************************
                        -----------------------------------
                        PRINCIPAL AXIS REPRESENTATION

                        ==== Principal components:

                              27.522    29.177    37.342
 
                        ==== Principal Axis System:

                               0.285     0.923    -0.259
                               0.179    -0.317    -0.931
                               0.942    -0.219     0.256
                        -----------------------------------
################################################################################
********************************************************************************
****  N U C L E U S : H(10)
 
 ADF-GUI atom: H(10)
 Internal NMR numbering of atoms: H(10)
 
 
================================================================================
 
 
===  PARAMAGNETIC NMR SHIELDING TENSORS (ppm)
 
    ===     paramagnetic b^(1) tensor       ===     paramagnetic u^(1) tensor
    -----------------------------------     -----------------------------------
           0.000     0.000     0.000             -10.896     8.776    -5.343
           0.000     0.000     0.000               8.776     9.778     1.978
           0.000     0.000     0.000              -5.343     1.978     7.422
    -----------------------------------     -----------------------------------
              isotropic =      0.000                  isotropic =      2.101

    ===     paramagnetic s^(1) tensor       ===     paramagnetic gauge tensor
    -----------------------------------     -----------------------------------
          13.595    -9.284     5.538               0.412     0.275    -0.203
          -9.284    -7.042    -2.634               0.275     0.494     0.199
           5.538    -2.634    -5.375              -0.203     0.199     1.652
    -----------------------------------     -----------------------------------
              isotropic =      0.393                  isotropic =      0.852

                        ***********************************
                        CARTESIAN AXIS REPRESENTATION

                        ==== total paramagnetic tensor
                        -----------------------------------
                               3.111    -0.233    -0.008
                              -0.233     3.230    -0.458
                              -0.008    -0.458     3.698
                        -----------------------------------
                                  isotropic =      3.346

                        ***********************************
                        -----------------------------------
                        PRINCIPAL AXIS REPRESENTATION

                        ==== Principal components:

                               2.808     3.237     3.994
 
                        ==== Principal Axis System:

                              -0.571     0.810     0.135
                              -0.728    -0.424    -0.539
                              -0.379    -0.406     0.831
                        -----------------------------------
 
================================================================================
 
 
===  DIAMAGNETIC NMR SHIELDING TENSORS (ppm)
 
    ===       diamagnetic core tensor       ===    diamagnetic valence tensor
    -----------------------------------     -----------------------------------
           0.000     0.000     0.000              33.075    -1.686     2.429
           0.000     0.000     0.000              -1.686    26.381     0.200
           0.000     0.000     0.000               2.429     0.200    24.546
    -----------------------------------     -----------------------------------
              isotropic =      0.000                  isotropic =     28.001

                        ***********************************
                        CARTESIAN AXIS REPRESENTATION

                        ==== total diamagnetic tensor
                        -----------------------------------
                              33.075    -1.686     2.429
                              -1.686    26.381     0.200
                               2.429     0.200    24.546
                        -----------------------------------
                                  isotropic =     28.001

                        ***********************************
                        -----------------------------------
                        PRINCIPAL AXIS REPRESENTATION

                        ==== Principal components:

                              23.740    26.217    34.045
 
                        ==== Principal Axis System:

                              -0.286    -0.127    -0.950
                              -0.253    -0.946     0.203
                               0.924    -0.298    -0.239
                        -----------------------------------
 
================================================================================
 
 
===  TOTAL NMR SHIELDING TENSOR (ppm)
 
                        ***********************************
                        CARTESIAN AXIS REPRESENTATION

                        ==== total shielding tensor
                        -----------------------------------
                              36.186    -1.919     2.421
                              -1.919    29.610    -0.258
                               2.421    -0.258    28.244
                        -----------------------------------
                                  isotropic =     31.347

                        ***********************************
                        -----------------------------------
                        PRINCIPAL AXIS REPRESENTATION

                        ==== Principal components:

                              27.521    29.178    37.342
 
                        ==== Principal Axis System:

                              -0.298     0.187     0.936
                              -0.157     0.958    -0.241
                               0.942     0.219     0.256
                        -----------------------------------
 *******************************************************************************

                             N M R   E X I T
 NORMAL TERMINATION



 =================
 Timing Statistics
 =================
  
 Total Used :                     CPU=       43.09      System=        0.08     Elapsed=       44.15

 Calls  Section                     ( Mean, Percentage )
 ---------------------------------------------------------------------------------------------------
     3  ><      ................      0.00    0.03             0.00    0.91             0.01    0.03
     1  INIT    ................      0.38    0.89             0.00    0.00             0.43    0.97
     1  RDEIGX  ................      0.04    0.09             0.00    5.90             0.05    0.11
     1  AOF1K   ................      2.00    4.63             0.00    4.12             2.08    4.72
    13  AOPKK   ................      0.41   12.35             0.00   19.86             0.42   12.47
    13  XSIGP   ................      0.00    0.08             0.00    0.57             0.00    0.08
    13  AODKKK  ................      2.71   81.90             0.00   68.61             2.77   81.60
    13  XDV     ................      0.00    0.02             0.00    0.03             0.00    0.02
    13  XSIGD   ................      0.00    0.00             0.00    0.00             0.00    0.00
     1  EXIT PROCEDURE .........      0.00    0.00             0.00    0.00             0.00    0.01


 Currently Open Files (EXIT00)
 ====================

 Unit    Access Format  Status   Type       Ident (file)
 -------------------------------------------------------
   3      SEQ    FORM   TRANSP  NORMAL      LOGFILE
                                          ( /home/milias/work/projects/open-collection/theoretical_chemistry/projects/nmr_diplomovky/reference_compounds/trimethylsilane/ams/nmr_shieldings/tz2p/trimethyl-silane.nmrshield_b3lyp_tz2p.logfile )
