
     Program PWSCF v.7.4.1 starts on 16Apr2025 at 10:57:28 
        Git branch: develop
        Last git commit: c129e404a1b34e2d280280c5087d1dc05a879a3f
        Last git commit date: Sun Apr 13 10:22:52 2025 +0000
        Last git commit subject: Merge branch 'matdyn-remove-interaction-blocks' in

     This program is part of the open-source Quantum ESPRESSO suite
     for quantum simulation of materials; please cite
         "P. Giannozzi et al., J. Phys.:Condens. Matter 21 395502 (2009);
         "P. Giannozzi et al., J. Phys.:Condens. Matter 29 465901 (2017);
         "P. Giannozzi et al., J. Chem. Phys. 152 154105 (2020);
          URL http://www.quantum-espresso.org", 
     in publications or presentations arising from this work. More details at
     http://www.quantum-espresso.org/quote

     Parallel version (MPI), running on     8 processors

     MPI processes distributed on     1 nodes
     10163 MiB available memory on the printing compute node when the environment starts

     Waiting for input...
     Reading input from standard input

     Current dimensions of program PWSCF are:
     Max number of different atomic species (ntypx) = 10
     Max number of k-points (npk) =  40000
     Max angular momentum in pseudopotentials (lmaxx) =  4
     Message from routine setup:
     using ibrav=0 with symmetry is DISCOURAGED, use correct ibrav instead

     R & G space division:  proc/nbgrp/npool/nimage =       8
     Subspace diagonalization in iterative solution of the eigenvalue problem:
     a serial algorithm will be used


     Parallelization info
     --------------------
     sticks:   dense  smooth     PW     G-vecs:    dense   smooth      PW
     Min        2557    2557    641               275175   275175   34369
     Max        2558    2558    642               275180   275180   34372
     Sum       20461   20461   5129              2201421  2201421  274961

     Using Slab Decomposition



     bravais-lattice index     =            0
     lattice parameter (alat)  =      28.3459  a.u.
     unit-cell volume          =   22775.6289 (a.u.)^3
     number of atoms/cell      =            2
     number of atomic types    =            1
     number of electrons       =        44.00
     number of Kohn-Sham states=           52
     kinetic-energy cutoff     =      80.0000  Ry
     charge density cutoff     =     320.0000  Ry
     scf convergence threshold =      1.0E-09
     mixing beta               =       0.3000
     number of iterations used =            8  plain     mixing
     Exchange-correlation= PBE
                           (   1   4   3   4   0   0   0)
     Non magnetic calculation with spin-orbit


     celldm(1)=  28.345892  celldm(2)=   0.000000  celldm(3)=   0.000000
     celldm(4)=   0.000000  celldm(5)=   0.000000  celldm(6)=   0.000000

     crystal axes: (cart. coord. in units of alat)
               a(1) = (   1.000000   0.000000   0.000000 )  
               a(2) = (   0.000000   1.000000   0.000000 )  
               a(3) = (   0.000000   0.000000   1.000000 )  

     reciprocal axes: (cart. coord. in units 2 pi/alat)
               b(1) = (  1.000000  0.000000  0.000000 )  
               b(2) = (  0.000000  1.000000  0.000000 )  
               b(3) = (  0.000000  0.000000  1.000000 )  


     PseudoPot. # 1 for Fl read from file:
     ./Fl-6spd_r.upf
     MD5 check sum: b85b9b71a88d70a023db0b659bf16840
     Pseudo is Norm-conserving + core correction, Zval = 22.0
     Generated using ONCVPSP code by D. R. Hamann
     Using radial grid of 2000 points, 12 beta functions with: 
                l(1) =   0
                l(2) =   0
                l(3) =   1
                l(4) =   1
                l(5) =   1
                l(6) =   1
                l(7) =   2
                l(8) =   2
                l(9) =   2
               l(10) =   2
               l(11) =   3
               l(12) =   3

     atomic species   valence    mass     pseudopotential
     Fl               22.00   289.00000     Fl( 1.00)

      8 Sym. Ops. (no inversion) found



   Cartesian axes

     site n.     atom                  positions (alat units)
         1        Fl     tau(   1) = (   0.0000000   0.0000000   0.0000000  )
         2        Fl     tau(   2) = (   0.0000000   0.0000000   2.8000000  )

     number of k points=     1  Gaussian smearing, width (Ry)=  0.0200
                       cart. coord. in units 2pi/alat
        k(    1) = (   0.0000000   0.0000000   0.0000000), wk =   1.0000000

     Dense  grid:  2201421 G-vectors     FFT dimensions: ( 162, 162, 162)

     Estimated max dynamical RAM per process >     798.72 MB

     Estimated total dynamical RAM >       6.24 GB

     Initial potential from superposition of free atoms

     starting charge      43.9858, renormalised to      44.0000

     negative rho (up, down):  8.014E-04 0.000E+00
     Starting wfcs are   52 randomized atomic wfcs

     total cpu time spent up to now is        5.8 secs

     per-process dynamical memory:   334.1 Mb

     Self-consistent Calculation

     iteration #  1     ecut=    80.00 Ry     beta= 0.30
     Davidson diagonalization with overlap
     ethr =  1.00E-02,  avg # of iterations =  2.0

     Threshold (ethr) on eigenvalues was too large:
     Diagonalizing with lowered threshold

     Davidson diagonalization with overlap
     ethr =  2.35E-04,  avg # of iterations =  4.0

     negative rho (up, down):  5.424E-04 0.000E+00

     total cpu time spent up to now is       20.8 secs

     total energy              =    -770.30209810 Ry
     estimated scf accuracy    <       0.10989654 Ry

     iteration #  2     ecut=    80.00 Ry     beta= 0.30
     Davidson diagonalization with overlap
     ethr =  2.50E-04,  avg # of iterations =  2.0

     negative rho (up, down):  2.057E-04 0.000E+00

     total cpu time spent up to now is       28.1 secs

     total energy              =    -770.29069415 Ry
     estimated scf accuracy    <       0.03211868 Ry

     iteration #  3     ecut=    80.00 Ry     beta= 0.30
     Davidson diagonalization with overlap
     ethr =  7.30E-05,  avg # of iterations =  5.0

     negative rho (up, down):  3.518E-05 0.000E+00

     total cpu time spent up to now is       36.1 secs

     total energy              =    -770.29272153 Ry
     estimated scf accuracy    <       0.00355666 Ry

     iteration #  4     ecut=    80.00 Ry     beta= 0.30
     Davidson diagonalization with overlap
     ethr =  8.08E-06,  avg # of iterations =  4.0

     negative rho (up, down):  2.876E-05 0.000E+00

     total cpu time spent up to now is       44.4 secs

     total energy              =    -770.29321919 Ry
     estimated scf accuracy    <       0.00030491 Ry

     iteration #  5     ecut=    80.00 Ry     beta= 0.30
     Davidson diagonalization with overlap
     ethr =  6.93E-07,  avg # of iterations = 13.0

     negative rho (up, down):  7.840E-06 0.000E+00

     total cpu time spent up to now is       53.2 secs

     total energy              =    -770.29316533 Ry
     estimated scf accuracy    <       0.00012017 Ry

     iteration #  6     ecut=    80.00 Ry     beta= 0.30
     Davidson diagonalization with overlap
     ethr =  2.73E-07,  avg # of iterations =  2.0

     negative rho (up, down):  2.158E-06 0.000E+00

     total cpu time spent up to now is       61.1 secs

     total energy              =    -770.29320061 Ry
     estimated scf accuracy    <       0.00001484 Ry

     iteration #  7     ecut=    80.00 Ry     beta= 0.30
     Davidson diagonalization with overlap
     ethr =  3.37E-08,  avg # of iterations =  2.0

     negative rho (up, down):  9.015E-07 0.000E+00

     total cpu time spent up to now is       68.1 secs

     total energy              =    -770.29319735 Ry
     estimated scf accuracy    <       0.00000688 Ry

     iteration #  8     ecut=    80.00 Ry     beta= 0.30
     Davidson diagonalization with overlap
     ethr =  1.56E-08,  avg # of iterations =  2.0

     negative rho (up, down):  6.878E-08 0.000E+00

     total cpu time spent up to now is       76.1 secs

     total energy              =    -770.29319925 Ry
     estimated scf accuracy    <       0.00000084 Ry

     iteration #  9     ecut=    80.00 Ry     beta= 0.30
     Davidson diagonalization with overlap
     ethr =  1.92E-09,  avg # of iterations =  2.0

     total cpu time spent up to now is       84.2 secs

     total energy              =    -770.29319940 Ry
     estimated scf accuracy    <       0.00000014 Ry

     iteration # 10     ecut=    80.00 Ry     beta= 0.30
     Davidson diagonalization with overlap
     ethr =  3.10E-10,  avg # of iterations =  2.0

     total cpu time spent up to now is       92.5 secs

     total energy              =    -770.29319943 Ry
     estimated scf accuracy    <          1.3E-09 Ry

     iteration # 11     ecut=    80.00 Ry     beta= 0.30
     Davidson diagonalization with overlap
     ethr =  2.96E-12,  avg # of iterations =  4.0

     total cpu time spent up to now is      102.2 secs

     total energy              =    -770.29319942 Ry
     estimated scf accuracy    <          4.0E-09 Ry

     iteration # 12     ecut=    80.00 Ry     beta= 0.30
     Davidson diagonalization with overlap
     ethr =  2.96E-12,  avg # of iterations =  3.0

     total cpu time spent up to now is      110.5 secs

     End of self-consistent calculation

          k = 0.0000 0.0000 0.0000 (274961 PWs)   bands (ev):

  -160.0781-160.0781-160.0780-160.0780-116.9075-116.9075-116.9068-116.9068
   -63.9230 -63.9230 -63.9121 -63.9121 -63.9080 -63.9080 -63.8893 -63.8893
   -16.8899 -16.8899 -16.7528 -16.7528 -16.7293 -16.7293 -16.7197 -16.7197
   -14.1658 -14.1658 -12.8569 -12.8569 -12.7073 -12.7073 -12.5916 -12.5916
   -12.5242 -12.5242 -12.4481 -12.4481 -12.2961 -12.2961 -12.0045 -12.0045
    -4.9226  -4.9226  -4.5901  -4.5901  -1.7590  -1.7590  -0.9787  -0.9787
    -0.2348  -0.2348  -0.0966  -0.0965

     the Fermi energy is    -3.1911 ev

!    total energy              =    -770.29319942 Ry
     estimated scf accuracy    <          9.5E-11 Ry
     smearing contrib. (-TS)   =      -0.00000000 Ry
     internal energy E=F+TS    =    -770.29319942 Ry

     The total energy is F=E-TS. E is the sum of the following terms:
     one-electron contribution =   -1175.40726249 Ry
     hartree contribution      =     558.51747291 Ry
     xc contribution           =    -133.39856344 Ry
     ewald contribution        =     -20.00484641 Ry

     convergence has been achieved in  12 iterations

     Writing all to output data dir ./pwscf.save/ :
     XML data file, charge density, pseudopotentials, collected wavefunctions

     init_run     :      5.41s CPU      5.69s WALL (       1 calls)
     electrons    :    101.90s CPU    104.79s WALL (       1 calls)

     Called by init_run:
     wfcinit      :      3.41s CPU      3.50s WALL (       1 calls)
     potinit      :      0.74s CPU      0.81s WALL (       1 calls)
     hinit0       :      0.14s CPU      0.21s WALL (       1 calls)

     Called by electrons:
     c_bands      :     78.30s CPU     80.28s WALL (      13 calls)
     sum_band     :     15.29s CPU     15.86s WALL (      13 calls)
     v_of_rho     :      3.50s CPU      3.69s WALL (      13 calls)
     mix_rho      :      4.97s CPU      5.12s WALL (      13 calls)

     Called by c_bands:
     init_us_2    :      0.80s CPU      0.82s WALL (      27 calls)
     cegterg      :     72.79s CPU     74.78s WALL (      13 calls)

     Called by *egterg:
     cdiaghg      :      0.07s CPU      0.07s WALL (      59 calls)
     h_psi        :     67.08s CPU     69.10s WALL (      61 calls)
     g_psi        :      0.27s CPU      0.27s WALL (      47 calls)

     Called by h_psi:
     h_psi:calbec :      1.76s CPU      1.78s WALL (      61 calls)
     vloc_psi     :     62.93s CPU     64.90s WALL (      61 calls)
                                        0.00s GPU  (      61 calls)
     add_vuspsi   :      1.95s CPU      1.95s WALL (      61 calls)

     General routines
     calbec       :      1.76s CPU      1.78s WALL (      61 calls)
     fft          :      3.37s CPU      3.68s WALL (     206 calls)
     ffts         :      0.82s CPU      0.92s WALL (      52 calls)
     fftw         :     52.56s CPU     54.24s WALL (    8496 calls)

     Parallel routines

     PWSCF        :   1m47.55s CPU   1m50.90s WALL


   This run was terminated on:  10:59:19  16Apr2025            

=------------------------------------------------------------------------------=
   JOB DONE.
=------------------------------------------------------------------------------=
