

 Parallel Execution: Process Information
 ==============================================================================
 Rank   Node Name                              NodeID   MyNodeRank  NodeMaster
    0   ubuntu-kch                                0          0          0
    1   ubuntu-kch                                0          1         -1
    2   ubuntu-kch                                0          2         -1
    3   ubuntu-kch                                0          3         -1
 ==============================================================================


May use up to 7570MB of RAM as shared memory on node 0

 *******************************************************************************
 *                                                                             *
 *  --------------------------------                                           *
 *   Amsterdam Modeling Suite (AMS)              2020.202                      *
 *  --------------------------------                                           *
 *                                               r90167 2020-12-05             *
 *                                                                             *
 *                                                                             *
 *                              =================                              *
 *                              |               |                              *
 *                              |     A M S     |                              *
 *                              |               |                              *
 *                              =================                              *
 *                                                                             *
 *                                                                             *
 *   Online information and documentation:  https://www.scm.com/support/       *
 *   E-mail:  support@scm.com   info@scm.com                                   *
 *                                                                             *
 *   Scientific publications using AMS results must be properly referenced     *
 *   See the User Manuals (or the web site) for recommended citations          *
 *   The terms and conditions of the End User License Agreement apply to       *
 *   the use of AMS, https://www.scm.com/license-terms/                        *
 *                                                                             *
 **********************  x86_64_linux_intel / intelmpi  ************************
 
 Licensed to: Dr. Miroslav Ilias / Matej Bel University, Department Chemistry, Fac. Natural Sciences / Banska Bystrica / SLOVAKIA
 SCM User ID: u17848
  
 AMS 2020.202  RunTime: Mar08-2021 18:06:49  Nodes: 1  Procs: 4

 AMS jobname: ams
 AMS jobid  : 1510576707

 Start   directory: /home/milias/work/projects/open-collection/theoretical_chemistry/projects/nmr_diplomovky/reference_compounds/nitromethane/ams/b3lyp_tz2p_good/cosmo-chcl3/tmp.milias.1586801.0.noindex/
 Results directory: /home/milias/work/projects/open-collection/theoretical_chemistry/projects/nmr_diplomovky/reference_compounds/nitromethane/ams/b3lyp_tz2p_good/cosmo-chcl3/nitromethane.geopt_freq_nmr_shield_b3lyp_tz2p_good_cosmo-chcl3.results/
 Scratch directory: /tmp/amstmp_ams_kid0.1510576707/


 Communication costs MPI_COMM_WORLD:      0.259 usec per message,   0.0033 usec per 8-byte item
 Communication costs for intra-node:      0.260 usec per message,   0.0033 usec per 8-byte item

 RNG seed: 1836094266 1302227370 -1272891396 -523887200 164616574 -643048134 -569209171 -871517970



                        ********************************************************************
                        *  ADF 2020.202  RunTime: Mar08-2021 18:06:50  Nodes: 1  Procs: 4  *
                        ********************************************************************
  
       ***************************
       *  GEOMETRY OPTIMIZATION  *
       ***************************

Optimization Method                    Quasi Newton
Optimization Coordinates               Delocalized Coordinates
Optimize lattice                       F
 
 ------------------------------------------------------
 Convergence criteria (Hartree,Angstrom)
 ------------------------------------------------------
 Maximum gradient               0.001000000000
 Maximum rms gradient           0.000666666667
 Maximum step allowed           0.001000000000
 Maximum rms step allowed       0.000666666667
 Maximum energy change allowe   0.000070000000
 Maximum stress energy allowe   0.000500000000
 
Initial model Hessian                  Automatic Hessian
 
------------------------------------
Quasi-Newton Optimizer Parameters
------------------------------------
Hessian Update Method                  BFGS
Maximum number of steps                  250
First GDIIS cycle                          0
Maximum GDIIS vectors                      0
Trust radius (bohr)                        0.200000
Trust radius varies                        T
Constraints converged at all steps         T
Use projector                              T
 
 Rigid motions settings for: old optimizer
 Atomic rotations (x,y,z):     T T T
 Atomic translations (x,y,z):  T T T
 Tolerance:                   1.000000000000000E-006
 
--------
Geometry
--------
Atoms
  Index Symbol   x (angstrom)   y (angstrom)   z (angstrom)
      1      C     0.65570597     0.00927548    -0.00000000       adf.R=1.700
      2      N    -0.82082840     0.01667056    -0.00000000       adf.R=1.608
      3      O    -1.39012599     0.00515649     1.07216359       adf.R=1.517
      4      O    -1.39012599     0.00515649    -1.07216359       adf.R=1.517
      5      H     0.99611221     0.50074443     0.90389312       adf.R=1.350
      6      H     0.99611221     0.50074443    -0.90389312       adf.R=1.350
      7      H     0.95315001    -1.03774785    -0.00000000       adf.R=1.350
 
Total System Charge             0.00000
Bonding info available!
 
 
----------------
ADF Engine Input
----------------
 
 Basis
 Type TZ2P
 Core None
 End
 Save TAPE10
 XC
 Hybrid B3LYP
 End
 Relativity
 Level None
 End
 Solvation
 Surf Delley
 Solv name=Chloroform cav0=0.0 cav1=0.0067639
 Charged method=CONJ
 C-Mat POT
 SCF VAR ALL
 CSMRSP
 End
 NumericalQuality Good
 

 Title: *** (NO TITLE) ***

Number of symmetry operators: 2
Schoenflies symbol:           C(S)
 Using automatic Hessian for delocalized coordinates.
 *** GOStep1 ***

 SOLVATION
-------------------------------------------

  The Delley construction of COSMO surface surface is calculated

       Division Level for Surface Triangles (NDIV)                  3
       Final Division Level for Triangles (NFDIV)                   1
       Radius of the Solvent (RSOL)                           3.17000 angstr
  Dielectric Constant (EPSL)                                  4.80000

       COSMO equation is solved iteratively-               conjugate-gradient

       Maximun of Iterations for Charges (NCIX)                  1000
       Criterion for Charge convergence (CCNV)                1.0E-08

  COSMO charges included variationally in SCF

       COSMO included at every SCF cycle

  Geometry-dependent empirical factor                         0.00000

  C-Matrix calculated in cspmtx

  In cspmtx, C-Matrix calculated using fitted potential

-------------------------------------------



 -------------------------------------------
  COSMO surface
  Area             =          300.136
  Volume           =          425.375
  Number of Points =          841
 -------------------------------------------



 ======================
 RI Hartree-Fock Scheme
 ======================
  
 Fit Set Quality     : GOOD
 Integration Quality : GOOD
 Threshold Quality   : GOOD
 Response Quality    : DEFAULT
 Is Range Separated  :  F
 
 RIHartreeFock Dependency: number of modified vectors:           3
 cosmo_calcen: 0.5 (esolb+esolc) (Hartrees) =   -0.011405

 Solvation energy (screening term,uncorrected) =     -7.156500 kcal/mol

 Solvation energy (dispersion and cavitation terms) =      0.450049 kcal/mol
 Solvation Energy Contributions (Hartrees)
          esola   esolb+esolc
     0.01140461   -0.02280921
 esol last cycle   -0.01140461
  
 Hartree-Fock exchange energy:   -29.1753103522396     
 cosmo_calcen: 0.5 (esolb+esolc) (Hartrees) =   -0.011405

 Solvation energy (screening term,uncorrected) =     -7.156501 kcal/mol

 Solvation energy (dispersion and cavitation terms) =      0.450049 kcal/mol
 Solvation Energy Contributions (Hartrees)
          esola   esolb+esolc
     0.01140461   -0.02280922
 esol last cycle   -0.01140461
  pauli hf:                              0.651439245225987         17.7266           408.78          1710.35
  elstat hf:                            -0.594643559641820        -16.1811          -373.14         -1561.24

 Energy gradients wrt nuclear displacements
 ==========================================

     Atom      Cartesian (a.u./angstrom)
                 X         Y         Z
 ----------------------------------------
     1 C    -0.014267  0.000772  0.000000
     2 N    -0.003695 -0.000824  0.000000
     3 O     0.010124  0.000175 -0.025171
     4 O     0.010124  0.000175  0.025171
     5 H    -0.000681  0.000257  0.000773
     6 H    -0.000681  0.000257 -0.000773
     7 H    -0.000925 -0.000812  0.000000
 ----------------------------------------
 Mulliken charges used for AMS results%charges...
 
----------------------------------------------------------------------
Geometry Convergence after Step   1       (Hartree/Angstrom,Angstrom)
----------------------------------------------------------------------
current energy                               -1.73141925 Hartree
energy change                      -1.73141925     0.00007000    F
constrained gradient max            0.02517149     0.00100000    F
constrained gradient rms            0.00898283     0.00066667    F
gradient max                        0.02517149
gradient rms                        0.00898283
cart. step max                      0.01358246     0.00100000    F
cart. step rms                      0.00547197     0.00066667    F
 
 
--------
Geometry
--------
Atoms
  Index Symbol   x (angstrom)   y (angstrom)   z (angstrom)
      1      C     0.65875626     0.00868582     0.00000000       adf.R=1.700
      2      N    -0.82678667     0.01658675     0.00000000       adf.R=1.608
      3      O    -1.39741367     0.00564818     1.08574605       adf.R=1.517
      4      O    -1.39741367     0.00564818    -1.08574605       adf.R=1.517
      5      H     1.00139664     0.50017316     0.90267783       adf.R=1.350
      6      H     1.00139664     0.50017316    -0.90267783       adf.R=1.350
      7      H     0.96006446    -1.03691523     0.00000000       adf.R=1.350
 
Total System Charge             0.00000
Bonding info available!
 
 *** GOStep2 ***

 SOLVATION
-------------------------------------------

  The Delley construction of COSMO surface surface is calculated

       Division Level for Surface Triangles (NDIV)                  3
       Final Division Level for Triangles (NFDIV)                   1
       Radius of the Solvent (RSOL)                           3.17000 angstr
  Dielectric Constant (EPSL)                                  4.80000

       COSMO equation is solved iteratively-               conjugate-gradient

       Maximun of Iterations for Charges (NCIX)                  1000
       Criterion for Charge convergence (CCNV)                1.0E-08

  COSMO charges included variationally in SCF

       COSMO included at every SCF cycle

  Geometry-dependent empirical factor                         0.00000

  C-Matrix calculated in cspmtx

  In cspmtx, C-Matrix calculated using fitted potential

-------------------------------------------



 -------------------------------------------
  COSMO surface
  Area             =          301.224
  Volume           =          427.207
  Number of Points =          845
 -------------------------------------------



 ======================
 RI Hartree-Fock Scheme
 ======================
  
 Fit Set Quality     : GOOD
 Integration Quality : GOOD
 Threshold Quality   : GOOD
 Response Quality    : DEFAULT
 Is Range Separated  :  F
 
 RIHartreeFock Dependency: number of modified vectors:           3
 cosmo_calcen: 0.5 (esolb+esolc) (Hartrees) =   -0.011385

 Solvation energy (screening term,uncorrected) =     -7.143987 kcal/mol

 Solvation energy (dispersion and cavitation terms) =      0.451681 kcal/mol
 Solvation Energy Contributions (Hartrees)
          esola   esolb+esolc
     0.01138467   -0.02276933
 esol last cycle   -0.01138467
  
 Hartree-Fock exchange energy:   -29.1448447991517     
 cosmo_calcen: 0.5 (esolb+esolc) (Hartrees) =   -0.011385

 Solvation energy (screening term,uncorrected) =     -7.143987 kcal/mol

 Solvation energy (dispersion and cavitation terms) =      0.451681 kcal/mol
 Solvation Energy Contributions (Hartrees)
          esola   esolb+esolc
     0.01138467   -0.02276933
 esol last cycle   -0.01138467
  pauli hf:                              0.656939300765680         17.8762           412.24          1724.79
  elstat hf:                            -0.582112393750396        -15.8401          -365.28         -1528.34

 Energy gradients wrt nuclear displacements
 ==========================================

     Atom      Cartesian (a.u./angstrom)
                 X         Y         Z
 ----------------------------------------
     1 C    -0.006549  0.000737  0.000000
     2 N     0.010838 -0.000246  0.000000
     3 O    -0.002975 -0.000044  0.010242
     4 O    -0.002975 -0.000044 -0.010242
     5 H     0.000593 -0.000132  0.000047
     6 H     0.000593 -0.000132 -0.000047
     7 H     0.000476 -0.000140  0.000000
 ----------------------------------------
 Mulliken charges used for AMS results%charges...

 dE(predicted):    -0.43491E-03, dE(actual):    -0.28395E-03, Trust radius:    0.200000, all in a.u.
 
----------------------------------------------------------------------
Geometry Convergence after Step   2       (Hartree/Angstrom,Angstrom)
----------------------------------------------------------------------
current energy                               -1.73170320 Hartree
energy change                      -0.00028395     0.00007000    F
constrained gradient max            0.01083882     0.00100000    F
constrained gradient rms            0.00430641     0.00066667    F
gradient max                        0.01083882
gradient rms                        0.00430641
cart. step max                      0.00417626     0.00100000    F
cart. step rms                      0.00148991     0.00066667    F
 
 
--------
Geometry
--------
Atoms
  Index Symbol   x (angstrom)   y (angstrom)   z (angstrom)
      1      C     0.66056623     0.00843052    -0.00000000       adf.R=1.700
      2      N    -0.82745753     0.01740091    -0.00000000       adf.R=1.608
      3      O    -1.39905086     0.00538571     1.08156979       adf.R=1.517
      4      O    -1.39905086     0.00538571    -1.08156979       adf.R=1.517
      5      H     1.00208084     0.50036289     0.90276210       adf.R=1.350
      6      H     1.00208084     0.50036289    -0.90276210       adf.R=1.350
      7      H     0.96083133    -1.03732862    -0.00000000       adf.R=1.350
 
Total System Charge             0.00000
Bonding info available!
 
 *** GOStep3 ***

 SOLVATION
-------------------------------------------

  The Delley construction of COSMO surface surface is calculated

       Division Level for Surface Triangles (NDIV)                  3
       Final Division Level for Triangles (NFDIV)                   1
       Radius of the Solvent (RSOL)                           3.17000 angstr
  Dielectric Constant (EPSL)                                  4.80000

       COSMO equation is solved iteratively-               conjugate-gradient

       Maximun of Iterations for Charges (NCIX)                  1000
       Criterion for Charge convergence (CCNV)                1.0E-08

  COSMO charges included variationally in SCF

       COSMO included at every SCF cycle

  Geometry-dependent empirical factor                         0.00000

  C-Matrix calculated in cspmtx

  In cspmtx, C-Matrix calculated using fitted potential

-------------------------------------------



 -------------------------------------------
  COSMO surface
  Area             =          301.091
  Volume           =          426.983
  Number of Points =          845
 -------------------------------------------



 ======================
 RI Hartree-Fock Scheme
 ======================
  
 Fit Set Quality     : GOOD
 Integration Quality : GOOD
 Threshold Quality   : GOOD
 Response Quality    : DEFAULT
 Is Range Separated  :  F
 
 RIHartreeFock Dependency: number of modified vectors:           3
 cosmo_calcen: 0.5 (esolb+esolc) (Hartrees) =   -0.011411

 Solvation energy (screening term,uncorrected) =     -7.160578 kcal/mol

 Solvation energy (dispersion and cavitation terms) =      0.451482 kcal/mol
 Solvation Energy Contributions (Hartrees)
          esola   esolb+esolc
     0.01141111   -0.02282221
 esol last cycle   -0.01141111
  
 Hartree-Fock exchange energy:   -29.1505410660313     
 cosmo_calcen: 0.5 (esolb+esolc) (Hartrees) =   -0.011411

 Solvation energy (screening term,uncorrected) =     -7.160578 kcal/mol

 Solvation energy (dispersion and cavitation terms) =      0.451482 kcal/mol
 Solvation Energy Contributions (Hartrees)
          esola   esolb+esolc
     0.01141111   -0.02282221
 esol last cycle   -0.01141111
  pauli hf:                              0.656207747763884         17.8563           411.78          1722.87
  elstat hf:                            -0.584056159759974        -15.8930          -366.50         -1533.44

 Energy gradients wrt nuclear displacements
 ==========================================

     Atom      Cartesian (a.u./angstrom)
                 X         Y         Z
 ----------------------------------------
     1 C    -0.004670  0.000324  0.000000
     2 N     0.005608  0.000695  0.000000
     3 O    -0.001159 -0.000316  0.001160
     4 O    -0.001159 -0.000316 -0.001160
     5 H     0.000425 -0.000131  0.000007
     6 H     0.000425 -0.000131 -0.000007
     7 H     0.000530 -0.000124  0.000000
 ----------------------------------------
 Mulliken charges used for AMS results%charges...

 dE(predicted):    -0.47028E-04, dE(actual):    -0.60641E-04, Trust radius:    0.200000, all in a.u.
 
----------------------------------------------------------------------
Geometry Convergence after Step   3       (Hartree/Angstrom,Angstrom)
----------------------------------------------------------------------
current energy                               -1.73176384 Hartree
energy change                      -0.00006064     0.00007000    T
constrained gradient max            0.00560823     0.00100000    F
constrained gradient rms            0.00169187     0.00066667    F
gradient max                        0.00560823
gradient rms                        0.00169187
cart. step max                      0.00521118     0.00100000    F
cart. step rms                      0.00179801     0.00066667    F
 
 
--------
Geometry
--------
Atoms
  Index Symbol   x (angstrom)   y (angstrom)   z (angstrom)
      1      C     0.66218715     0.00718265    -0.00000000       adf.R=1.700
      2      N    -0.82865921     0.01218973    -0.00000000       adf.R=1.608
      3      O    -1.39915941     0.00845454     1.08084512       adf.R=1.517
      4      O    -1.39915941     0.00845454    -1.08084512       adf.R=1.517
      5      H     1.00047032     0.50083151     0.90295679       adf.R=1.350
      6      H     1.00047032     0.50083151    -0.90295679       adf.R=1.350
      7      H     0.96385025    -1.03794447    -0.00000000       adf.R=1.350
 
Total System Charge             0.00000
Bonding info available!
 
 *** GOStep4 ***

 SOLVATION
-------------------------------------------

  The Delley construction of COSMO surface surface is calculated

       Division Level for Surface Triangles (NDIV)                  3
       Final Division Level for Triangles (NFDIV)                   1
       Radius of the Solvent (RSOL)                           3.17000 angstr
  Dielectric Constant (EPSL)                                  4.80000

       COSMO equation is solved iteratively-               conjugate-gradient

       Maximun of Iterations for Charges (NCIX)                  1000
       Criterion for Charge convergence (CCNV)                1.0E-08

  COSMO charges included variationally in SCF

       COSMO included at every SCF cycle

  Geometry-dependent empirical factor                         0.00000

  C-Matrix calculated in cspmtx

  In cspmtx, C-Matrix calculated using fitted potential

-------------------------------------------



 -------------------------------------------
  COSMO surface
  Area             =          301.036
  Volume           =          426.893
  Number of Points =          843
 -------------------------------------------



 ======================
 RI Hartree-Fock Scheme
 ======================
  
 Fit Set Quality     : GOOD
 Integration Quality : GOOD
 Threshold Quality   : GOOD
 Response Quality    : DEFAULT
 Is Range Separated  :  F
 
 RIHartreeFock Dependency: number of modified vectors:           3
 cosmo_calcen: 0.5 (esolb+esolc) (Hartrees) =   -0.011383

 Solvation energy (screening term,uncorrected) =     -7.143172 kcal/mol

 Solvation energy (dispersion and cavitation terms) =      0.451399 kcal/mol
 Solvation Energy Contributions (Hartrees)
          esola   esolb+esolc
     0.01138337   -0.02276674
 esol last cycle   -0.01138337
  
 Hartree-Fock exchange energy:   -29.1519068244850     
 cosmo_calcen: 0.5 (esolb+esolc) (Hartrees) =   -0.011383

 Solvation energy (screening term,uncorrected) =     -7.143171 kcal/mol

 Solvation energy (dispersion and cavitation terms) =      0.451399 kcal/mol
 Solvation Energy Contributions (Hartrees)
          esola   esolb+esolc
     0.01138337   -0.02276673
 esol last cycle   -0.01138337
  pauli hf:                              0.656022296412277         17.8513           411.66          1722.39
  elstat hf:                            -0.584372098080084        -15.9016          -366.70         -1534.27

 Energy gradients wrt nuclear displacements
 ==========================================

     Atom      Cartesian (a.u./angstrom)
                 X         Y         Z
 ----------------------------------------
     1 C    -0.002224  0.001627  0.000000
     2 N     0.000950 -0.004729  0.000000
     3 O     0.000366  0.001580 -0.001299
     4 O     0.000366  0.001580  0.001299
     5 H     0.000288  0.000001 -0.000012
     6 H     0.000288  0.000001  0.000012
     7 H    -0.000033 -0.000060  0.000000
 ----------------------------------------
 Mulliken charges used for AMS results%charges...
 
----------------------------------------------------------------------
Geometry Convergence after Step   4       (Hartree/Angstrom,Angstrom)
----------------------------------------------------------------------
current energy                               -1.73176412 Hartree
energy change                      -0.00000028     0.00007000    T
constrained gradient max            0.00471215     0.00100000    F
constrained gradient rms            0.00137423     0.00066667    F
gradient max                        0.00471215
gradient rms                        0.00137423
cart. step max                      0.00562430     0.00100000    F
cart. step rms                      0.00178942     0.00066667    F
 
 
--------
Geometry
--------
Atoms
  Index Symbol   x (angstrom)   y (angstrom)   z (angstrom)
      1      C     0.66404414     0.00762914     0.00000000       adf.R=1.700
      2      N    -0.83005740     0.01781403     0.00000000       adf.R=1.608
      3      O    -1.39903919     0.00542633     1.08081533       adf.R=1.517
      4      O    -1.39903919     0.00542633    -1.08081533       adf.R=1.517
      5      H     1.00157334     0.50115437     0.90319981       adf.R=1.350
      6      H     1.00157334     0.50115437    -0.90319981       adf.R=1.350
      7      H     0.96094496    -1.03860456     0.00000000       adf.R=1.350
 
Total System Charge             0.00000
Bonding info available!
 
 *** GOStep5 ***

 SOLVATION
-------------------------------------------

  The Delley construction of COSMO surface surface is calculated

       Division Level for Surface Triangles (NDIV)                  3
       Final Division Level for Triangles (NFDIV)                   1
       Radius of the Solvent (RSOL)                           3.17000 angstr
  Dielectric Constant (EPSL)                                  4.80000

       COSMO equation is solved iteratively-               conjugate-gradient

       Maximun of Iterations for Charges (NCIX)                  1000
       Criterion for Charge convergence (CCNV)                1.0E-08

  COSMO charges included variationally in SCF

       COSMO included at every SCF cycle

  Geometry-dependent empirical factor                         0.00000

  C-Matrix calculated in cspmtx

  In cspmtx, C-Matrix calculated using fitted potential

-------------------------------------------



 -------------------------------------------
  COSMO surface
  Area             =          300.924
  Volume           =          426.839
  Number of Points =          845
 -------------------------------------------



 ======================
 RI Hartree-Fock Scheme
 ======================
  
 Fit Set Quality     : GOOD
 Integration Quality : GOOD
 Threshold Quality   : GOOD
 Response Quality    : DEFAULT
 Is Range Separated  :  F
 
 RIHartreeFock Dependency: number of modified vectors:           3
 cosmo_calcen: 0.5 (esolb+esolc) (Hartrees) =   -0.011344

 Solvation energy (screening term,uncorrected) =     -7.118677 kcal/mol

 Solvation energy (dispersion and cavitation terms) =      0.451231 kcal/mol
 Solvation Energy Contributions (Hartrees)
          esola   esolb+esolc
     0.01134433   -0.02268867
 esol last cycle   -0.01134433
  
 Hartree-Fock exchange energy:   -29.1519686229942     
 cosmo_calcen: 0.5 (esolb+esolc) (Hartrees) =   -0.011344

 Solvation energy (screening term,uncorrected) =     -7.118675 kcal/mol

 Solvation energy (dispersion and cavitation terms) =      0.451231 kcal/mol
 Solvation Energy Contributions (Hartrees)
          esola   esolb+esolc
     0.01134433   -0.02268866
 esol last cycle   -0.01134433
  pauli hf:                              0.656184471525033         17.8557           411.76          1722.81
  elstat hf:                            -0.584165377809454        -15.8959          -366.57         -1533.73

 Energy gradients wrt nuclear displacements
 ==========================================

     Atom      Cartesian (a.u./angstrom)
                 X         Y         Z
 ----------------------------------------
     1 C     0.000752 -0.000536  0.000000
     2 N    -0.003444  0.001349  0.000000
     3 O     0.001482 -0.000450 -0.002203
     4 O     0.001482 -0.000450  0.002203
     5 H    -0.000191  0.000041  0.000013
     6 H    -0.000191  0.000041 -0.000013
     7 H     0.000110  0.000005  0.000000
 ----------------------------------------
 Mulliken charges used for AMS results%charges...

 dE(predicted):    -0.20007E-04, dE(actual):    -0.11203E-04, Trust radius:    0.200000, all in a.u.
 
----------------------------------------------------------------------
Geometry Convergence after Step   5       (Hartree/Angstrom,Angstrom)
----------------------------------------------------------------------
current energy                               -1.73177532 Hartree
energy change                      -0.00001120     0.00007000    T
constrained gradient max            0.00344352     0.00100000    F
constrained gradient rms            0.00117758     0.00066667    F
gradient max                        0.00344352
gradient rms                        0.00117758
cart. step max                      0.00099186     0.00100000    T
cart. step rms                      0.00046366     0.00066667    T
 
 
--------
Geometry
--------
Atoms
  Index Symbol   x (angstrom)   y (angstrom)   z (angstrom)
      1      C     0.66340151     0.00779983    -0.00000000       adf.R=1.700
      2      N    -0.82923305     0.01682217    -0.00000000       adf.R=1.608
      3      O    -1.39966741     0.00581450     1.08140437       adf.R=1.517
      4      O    -1.39966741     0.00581450    -1.08140437       adf.R=1.517
      5      H     1.00189585     0.50098619     0.90307719       adf.R=1.350
      6      H     1.00189585     0.50098619    -0.90307719       adf.R=1.350
      7      H     0.96137466    -1.03822337    -0.00000000       adf.R=1.350
 
Total System Charge             0.00000
Bonding info available!
 
 *** GOStep6 ***

 SOLVATION
-------------------------------------------

  The Delley construction of COSMO surface surface is calculated

       Division Level for Surface Triangles (NDIV)                  3
       Final Division Level for Triangles (NFDIV)                   1
       Radius of the Solvent (RSOL)                           3.17000 angstr
  Dielectric Constant (EPSL)                                  4.80000

       COSMO equation is solved iteratively-               conjugate-gradient

       Maximun of Iterations for Charges (NCIX)                  1000
       Criterion for Charge convergence (CCNV)                1.0E-08

  COSMO charges included variationally in SCF

       COSMO included at every SCF cycle

  Geometry-dependent empirical factor                         0.00000

  C-Matrix calculated in cspmtx

  In cspmtx, C-Matrix calculated using fitted potential

-------------------------------------------



 -------------------------------------------
  COSMO surface
  Area             =          300.992
  Volume           =          426.927
  Number of Points =          843
 -------------------------------------------



 ======================
 RI Hartree-Fock Scheme
 ======================
  
 Fit Set Quality     : GOOD
 Integration Quality : GOOD
 Threshold Quality   : GOOD
 Response Quality    : DEFAULT
 Is Range Separated  :  F
 
 RIHartreeFock Dependency: number of modified vectors:           3
 cosmo_calcen: 0.5 (esolb+esolc) (Hartrees) =   -0.011379

 Solvation energy (screening term,uncorrected) =     -7.140656 kcal/mol

 Solvation energy (dispersion and cavitation terms) =      0.451333 kcal/mol
 Solvation Energy Contributions (Hartrees)
          esola   esolb+esolc
     0.01137936   -0.02275872
 esol last cycle   -0.01137936
  
 Hartree-Fock exchange energy:   -29.1501473607321     
 cosmo_calcen: 0.5 (esolb+esolc) (Hartrees) =   -0.011379

 Solvation energy (screening term,uncorrected) =     -7.140656 kcal/mol

 Solvation energy (dispersion and cavitation terms) =      0.451333 kcal/mol
 Solvation Energy Contributions (Hartrees)
          esola   esolb+esolc
     0.01137936   -0.02275872
 esol last cycle   -0.01137936
  pauli hf:                              0.656390359024580         17.8613           411.89          1723.35
  elstat hf:                            -0.583544224910307        -15.8790          -366.18         -1532.10

 Energy gradients wrt nuclear displacements
 ==========================================

     Atom      Cartesian (a.u./angstrom)
                 X         Y         Z
 ----------------------------------------
     1 C    -0.000365  0.000000  0.000000
     2 N     0.000733  0.000245  0.000000
     3 O    -0.000293 -0.000127  0.000214
     4 O    -0.000293 -0.000127 -0.000214
     5 H     0.000057 -0.000001 -0.000003
     6 H     0.000057 -0.000001  0.000003
     7 H     0.000105  0.000010  0.000000
 ----------------------------------------
 Mulliken charges used for AMS results%charges...

 dE(predicted):    -0.48279E-05, dE(actual):    -0.27468E-05, Trust radius:    0.200000, all in a.u.
 
---------------------------------------------------------
Geometry Convergence after Step   6       ** CONVERGED **
---------------------------------------------------------
current energy                               -1.73177807 Hartree
energy change                      -0.00000275     0.00007000    T
constrained gradient max            0.00073318     0.00100000    T
constrained gradient rms            0.00022240     0.00066667    T
gradient max                        0.00073318
gradient rms                        0.00022240
cart. step max                      0.00030168     0.00100000    T
cart. step rms                      0.00014528     0.00066667    T
 
Geometry optimization converged

Optimized geometry:
 
--------
Geometry
--------
Atoms
  Index Symbol   x (angstrom)   y (angstrom)   z (angstrom)
      1      C     0.66340151     0.00779983    -0.00000000       adf.R=1.700
      2      N    -0.82923305     0.01682217    -0.00000000       adf.R=1.608
      3      O    -1.39966741     0.00581450     1.08140437       adf.R=1.517
      4      O    -1.39966741     0.00581450    -1.08140437       adf.R=1.517
      5      H     1.00189585     0.50098619     0.90307719       adf.R=1.350
      6      H     1.00189585     0.50098619    -0.90307719       adf.R=1.350
      7      H     0.96137466    -1.03822337    -0.00000000       adf.R=1.350
 
Total System Charge             0.00000
Bonding info available!
 
Performing a single point calculation on the final geometry ...

 *** adf ***



 ===========================
 A T T A C H E D   F I L E S
 ===========================
  
 Restart/tmp/amstmp_ams_kid0.1510576707/GOStep6.rkf*** GOStep6 ***



 ===============================
 M O D E L   P A R A M E T E R S
 ===============================
  
 DENSITY FUNCTIONAL POTENTIAL (scf)
    Hybrid:                            B3LYP                                   == Not Default ==

 SPIN  (restricted / unrestr.)
    Molecule:                          Restricted                               
    Fragments:                         Restricted                               

 OTHER ASPECTS
    Relativistic Corrections:          ---                                     == Not Default ==

    Nuclear Charge Density Model:      Point Charge Nuclei                      
    Core Treatment:                    Frozen Orbital(s)                        

    Hyperfine or Zeeman Interaction:   ---                                      

 SOLVATION
-------------------------------------------

  The Delley construction of COSMO surface surface is calculated

       Division Level for Surface Triangles (NDIV)                  3
       Final Division Level for Triangles (NFDIV)                   1
       Radius of the Solvent (RSOL)                           3.17000 angstr
  Dielectric Constant (EPSL)                                  4.80000

       COSMO equation is solved iteratively-               conjugate-gradient

       Maximun of Iterations for Charges (NCIX)                  1000
       Criterion for Charge convergence (CCNV)                1.0E-08

  COSMO charges included variationally in SCF

       COSMO included at every SCF cycle

  Geometry-dependent empirical factor                         0.00000

  C-Matrix calculated in cspmtx

  In cspmtx, C-Matrix calculated using fitted potential

-------------------------------------------




 ===============
 G E O M E T R Y  ***  3D  Molecule  ***
 ===============
  

 ATOMS
 =====                            X Y Z                    CHARGE                     RADIUS
                                (Angstrom)             Nucl     +Core       At.Mass (Angstrom)
                       --------------------------    ----------------       ------- ----------
    1  C               0.6634    0.0078   -0.0000      6.00      6.00       12.0000    1.7000
    2  N              -0.8292    0.0168   -0.0000      7.00      7.00       14.0031    1.6080
    3  O              -1.3997    0.0058    1.0814      8.00      8.00       15.9949    1.5170
    4  O              -1.3997    0.0058   -1.0814      8.00      8.00       15.9949    1.5170
    5  H               1.0019    0.5010    0.9031      1.00      1.00        1.0078    1.3500
    6  H               1.0019    0.5010   -0.9031      1.00      1.00        1.0078    1.3500
    7  H               0.9614   -1.0382   -0.0000      1.00      1.00        1.0078    1.3500


 FRAGMENTS
 =========                                     Atoms in this Fragment     Cart. coord.s (Angstrom)
                                               -------------------------------------------------------
    1  C                                                 1  C            0.6634    0.0078   -0.0000
    2  N                                                 2  N           -0.8292    0.0168   -0.0000
    3  O                                                 3  O           -1.3997    0.0058    1.0814
    4  O                                                 4  O           -1.3997    0.0058   -1.0814
    5  H                                                 5  H            1.0019    0.5010    0.9031
    6  H                                                 6  H            1.0019    0.5010   -0.9031
    7  H                                                 7  H            0.9614   -1.0382   -0.0000


 Interatomic Distance Matrix (Angstrom)
 --------------------------------------

   1)     0.000
   2)     1.493   0.000
   3)     2.329   1.223   0.000
   4)     2.329   1.223   2.163   0.000
   5)     1.083   2.098   2.459   3.154   0.000
   6)     1.083   2.098   3.154   2.459   1.806   0.000
   7)     1.088   2.078   2.799   2.799   1.785   1.785   0.000

 Min. Distance =    1.0832
 Max. Distance =    3.1545



 =====================================
 S Y M M E T R Y ,   E L E C T R O N S
 =====================================
  
 Symmetry: C(S)

 Irreducible Representations, including subspecies
 -------------------------------------------------
 AA
 AAA

 Symmetry is NOT used when fitting density


 Configuration of Valence Electrons
 ==================================
 ( determined in the SCF procedure )

 Total:   32

 Net Charge: 0 (Nuclei minus Electrons)

 Aufbau principle for MO occupations will be applied through SCF cycle no.     150
 Thereafter, the program will assign electrons to MOs that are spatially
 similar to the occupied MOs in a "reference" cycle ("KeepOrbitals").
 The reference cycle is always the PREVIOUS cycle: it will evolve with
 the SCF procedure.
1
 ***************************************************************************************************



                                      ****************************************
                                      *  B U I L D : (Fragments, Functions)  *
                                      ****************************************
  



 =======
 S F O s  ***  (Symmetrized Fragment Orbitals)  ***
 =======
  
 SFOs are linear combinations of (valence) Fragment Orbitals (FOs), such that the SFOs transform as the
 irreducible representations of the (molecular) symmetry group. Each SFO is therefore characterized by
 an irrep of the molecule and by a few (or only one) generating FOs.
 The SFOs constitute a symmetry-adapted basis for the Fock matrix. The MO eigenvector coefficients in
 this basis provide a direct interpretation of the MOs in terms of Frontier Orbital Theory.

 The SFOs are combined with auxiliary Core Functions (CFs) to ensure orthogonalization on the (frozen)
 Core Orbitals (COs). The Core-orthogonalized SFOs (CSFOs) constitute the true Fock basis.

 The FOs, and hence also the (C)SFOs are combinations of the elementary basis functions (BAS). The basis
 functions that participate in the description of the SFOs depend on the irrep. The indices of the
 involved functions are printed below for each irrep.
 (The complete list of primitive basis functions is printed in another section)

 Total nr. of (C)SFOs (summation over all irreps) :   137

 NOTE: a (C)SFO that is defined as a combination of more than one FO is usually NOT normalized.



                                       === AA ===
 Nr. of SFOs :   81
 Cartesian basis functions that participate in this irrep (total number =   135) :
      1     2     3     4     5     6     7     9    10    12
     13    20    15    16    18    26    29    21    22    24
     27    31    32    33    34    35    36    37    39    40
     42    43    50    45    46    48    56    59    51    52
     54    57    61    91    62    92    63    93    64    94
     65    95    68    98    71   101    74   104    66    67
     96    97    69    70    99   100    72    73   102   103
     80   110    77    79   107   109    75    76    78   105
    106   108    90   120    86    89   116   119    83    85
     88   113   115   118    81    82    84    87   111   112
    114   117   121   133   122   134   123   135   126   138
    124   125   136   137   132   144   129   131   141   143
    127   128   130   139   140   142   145   146   147   148
    149   156   151   152   154

    SFO  (index         Fragment          Generating    Expansion in Fragment Orbitals
  indx  incl.CFs)   Occup   Orb.Energy   FragmentType  Coeff.   Orbital     on Fragment
 --------------------------------------------------------------------------------------
     1       1      2.000     -10.347 au  C             1.00      1 S               1
                        (    -281.545 eV)
     2       2      2.000      -0.564 au  C             1.00      2 S               1
                        (     -15.345 eV)
     3       3       --         0.402 au  C             1.00      3 S               1
                        (      10.943 eV)
     4       4       --         5.509 au  C             1.00      4 S               1
                        (     149.900 eV)
     5       5       --        50.546 au  C             1.00      5 S               1
                        (    1375.418 eV)
     6       6      0.667      -0.188 au  C             1.00      1 P:x             1
                        (      -5.110 eV)
     7       7       --         0.191 au  C             1.00      2 P:x             1
                        (       5.204 eV)
     8       8       --         2.089 au  C             1.00      3 P:x             1
                        (      56.851 eV)
     9       9      0.667      -0.188 au  C             1.00      1 P:y             1
                        (      -5.110 eV)
    10      10       --         0.191 au  C             1.00      2 P:y             1
                        (       5.204 eV)
    11      11       --         2.089 au  C             1.00      3 P:y             1
                        (      56.851 eV)
    12      12       --         1.292 au  C             1.00      1 D:z2            1
                        (      35.150 eV)
    13      13       --         1.292 au  C             1.00      1 D:x2-y2         1
                        (      35.150 eV)
    14      14       --         1.292 au  C             1.00      1 D:xy            1
                        (      35.150 eV)
    15      15       --         4.084 au  C             1.00      1 F:z2x           1
                        (     111.144 eV)
    16      16       --         4.084 au  C             1.00      1 F:z2y           1
                        (     111.144 eV)
    17      17       --         4.084 au  C             1.00      1 F:x             1
                        (     111.144 eV)
    18      18       --         4.084 au  C             1.00      1 F:y             1
                        (     111.144 eV)
    19      19      2.000     -14.485 au  N             1.00      1 S               2
                        (    -394.151 eV)
    20      20      2.000      -0.757 au  N             1.00      2 S               2
                        (     -20.602 eV)
    21      21       --         0.554 au  N             1.00      3 S               2
                        (      15.062 eV)
    22      22       --         6.997 au  N             1.00      4 S               2
                        (     190.406 eV)
    23      23       --        64.402 au  N             1.00      5 S               2
                        (    1752.467 eV)
    24      24      1.000      -0.270 au  N             1.00      1 P:x             2
                        (      -7.335 eV)
    25      25       --         0.311 au  N             1.00      2 P:x             2
                        (       8.457 eV)
    26      26       --         3.375 au  N             1.00      3 P:x             2
                        (      91.843 eV)
    27      27      1.000      -0.270 au  N             1.00      1 P:y             2
                        (      -7.335 eV)
    28      28       --         0.311 au  N             1.00      2 P:y             2
                        (       8.457 eV)
    29      29       --         3.375 au  N             1.00      3 P:y             2
                        (      91.843 eV)
    30      30       --         1.299 au  N             1.00      1 D:z2            2
                        (      35.360 eV)
    31      31       --         1.299 au  N             1.00      1 D:x2-y2         2
                        (      35.360 eV)
    32      32       --         1.299 au  N             1.00      1 D:xy            2
                        (      35.360 eV)
    33      33       --         4.088 au  N             1.00      1 F:z2x           2
                        (     111.240 eV)
    34      34       --         4.088 au  N             1.00      1 F:z2y           2
                        (     111.240 eV)
    35      35       --         4.088 au  N             1.00      1 F:x             2
                        (     111.240 eV)
    36      36       --         4.088 au  N             1.00      1 F:y             2
                        (     111.240 eV)
    37      37      2.000     -19.301 au  O             0.71      1 S               3
                        (    -525.210 eV)               0.71      1 S               4
    38      38      2.000      -0.971 au  O             0.71      2 S               3
                        (     -26.409 eV)               0.71      2 S               4
    39      39       --         0.840 au  O             0.71      3 S               3
                        (      22.860 eV)               0.71      3 S               4
    40      40       --        13.636 au  O             0.71      4 S               3
                        (     371.062 eV)               0.71      4 S               4
    41      41       --       123.736 au  O             0.71      5 S               3
                        (    3367.024 eV)               0.71      5 S               4
    42      42      1.333      -0.361 au  O             0.71      1 P:x             3
                        (      -9.826 eV)               0.71      1 P:x             4
    43      43       --         0.380 au  O             0.71      2 P:x             3
                        (      10.335 eV)               0.71      2 P:x             4
    44      44       --         3.936 au  O             0.71      3 P:x             3
                        (     107.096 eV)               0.71      3 P:x             4
    45      45      1.333      -0.361 au  O             0.71      1 P:y             3
                        (      -9.826 eV)               0.71      1 P:y             4
    46      46       --         0.380 au  O             0.71      2 P:y             3
                        (      10.335 eV)               0.71      2 P:y             4
    47      47       --         3.936 au  O             0.71      3 P:y             3
                        (     107.096 eV)               0.71      3 P:y             4
    48      48      1.333      -0.361 au  O             0.71      1 P:z             3
                        (      -9.826 eV)              -0.71      1 P:z             4
    49      49       --         0.380 au  O             0.71      2 P:z             3
                        (      10.335 eV)              -0.71      2 P:z             4
    50      50       --         3.936 au  O             0.71      3 P:z             3
                        (     107.096 eV)              -0.71      3 P:z             4
    51      51       --         1.117 au  O             0.71      1 D:z2            3
                        (      30.395 eV)               0.71      1 D:z2            4
    52      52       --         1.117 au  O             0.71      1 D:x2-y2         3
                        (      30.395 eV)               0.71      1 D:x2-y2         4
    53      53       --         1.117 au  O             0.71      1 D:xy            3
                        (      30.395 eV)               0.71      1 D:xy            4
    54      54       --         1.117 au  O             0.71      1 D:xz            3
                        (      30.395 eV)              -0.71      1 D:xz            4
    55      55       --         1.117 au  O             0.71      1 D:yz            3
                        (      30.395 eV)              -0.71      1 D:yz            4
    56      56       --         3.432 au  O             0.71      1 F:z3            3
                        (      93.388 eV)              -0.71      1 F:z3            4
    57      57       --         3.432 au  O             0.71      1 F:z             3
                        (      93.388 eV)              -0.71      1 F:z             4
    58      58       --         3.432 au  O             0.71      1 F:xyz           3
                        (      93.388 eV)              -0.71      1 F:xyz           4
    59      59       --         3.432 au  O             0.71      1 F:z2x           3
                        (      93.388 eV)               0.71      1 F:z2x           4
    60      60       --         3.432 au  O             0.71      1 F:z2y           3
                        (      93.388 eV)               0.71      1 F:z2y           4
    61      61       --         3.432 au  O             0.71      1 F:x             3
                        (      93.388 eV)               0.71      1 F:x             4
    62      62       --         3.432 au  O             0.71      1 F:y             3
                        (      93.388 eV)               0.71      1 F:y             4
    63      63      1.000      -0.244 au  H             0.71      1 S               5
                        (      -6.641 eV)               0.71      1 S               6
    64      64       --         0.104 au  H             0.71      2 S               5
                        (       2.836 eV)               0.71      2 S               6
    65      65       --         1.564 au  H             0.71      3 S               5
                        (      42.568 eV)               0.71      3 S               6
    66      66       --         0.436 au  H             0.71      1 P:x             5
                        (      11.864 eV)               0.71      1 P:x             6
    67      67       --         0.436 au  H             0.71      1 P:y             5
                        (      11.864 eV)               0.71      1 P:y             6
    68      68       --         0.436 au  H             0.71      1 P:z             5
                        (      11.864 eV)              -0.71      1 P:z             6
    69      69       --         2.618 au  H             0.71      1 D:z2            5
                        (      71.229 eV)               0.71      1 D:z2            6
    70      70       --         2.618 au  H             0.71      1 D:x2-y2         5
                        (      71.229 eV)               0.71      1 D:x2-y2         6
    71      71       --         2.618 au  H             0.71      1 D:xy            5
                        (      71.229 eV)               0.71      1 D:xy            6
    72      72       --         2.618 au  H             0.71      1 D:xz            5
                        (      71.229 eV)              -0.71      1 D:xz            6
    73      73       --         2.618 au  H             0.71      1 D:yz            5
                        (      71.229 eV)              -0.71      1 D:yz            6
    74      74      1.000      -0.244 au  H             1.00      1 S               7
                        (      -6.641 eV)
    75      75       --         0.104 au  H             1.00      2 S               7
                        (       2.836 eV)
    76      76       --         1.564 au  H             1.00      3 S               7
                        (      42.568 eV)
    77      77       --         0.436 au  H             1.00      1 P:x             7
                        (      11.864 eV)
    78      78       --         0.436 au  H             1.00      1 P:y             7
                        (      11.864 eV)
    79      79       --         2.618 au  H             1.00      1 D:z2            7
                        (      71.229 eV)
    80      80       --         2.618 au  H             1.00      1 D:x2-y2         7
                        (      71.229 eV)
    81      81       --         2.618 au  H             1.00      1 D:xy            7
                        (      71.229 eV)



                                       === AAA ===
 Nr. of SFOs :   56
 Cartesian basis functions that participate in this irrep (total number =   105) :
      8    11    14    17    19    30    23    25    28    38
     41    44    47    49    60    53    55    58    61    91
     62    92    63    93    64    94    65    95    68    98
     71   101    74   104    66    67    96    97    69    70
     99   100    72    73   102   103    80   110    77    79
    107   109    75    76    78   105   106   108    90   120
     86    89   116   119    83    85    88   113   115   118
     81    82    84    87   111   112   114   117   121   133
    122   134   123   135   126   138   124   125   136   137
    132   144   129   131   141   143   127   128   130   139
    140   142   150   153   155

    SFO  (index         Fragment          Generating    Expansion in Fragment Orbitals
  indx  incl.CFs)   Occup   Orb.Energy   FragmentType  Coeff.   Orbital     on Fragment
 --------------------------------------------------------------------------------------
     1       1      0.667      -0.188 au  C             1.00      1 P:z             1
                        (      -5.110 eV)
     2       2       --         0.191 au  C             1.00      2 P:z             1
                        (       5.204 eV)
     3       3       --         2.089 au  C             1.00      3 P:z             1
                        (      56.851 eV)
     4       4       --         1.292 au  C             1.00      1 D:xz            1
                        (      35.150 eV)
     5       5       --         1.292 au  C             1.00      1 D:yz            1
                        (      35.150 eV)
     6       6       --         4.084 au  C             1.00      1 F:z3            1
                        (     111.144 eV)
     7       7       --         4.084 au  C             1.00      1 F:z             1
                        (     111.144 eV)
     8       8       --         4.084 au  C             1.00      1 F:xyz           1
                        (     111.144 eV)
     9       9      1.000      -0.270 au  N             1.00      1 P:z             2
                        (      -7.335 eV)
    10      10       --         0.311 au  N             1.00      2 P:z             2
                        (       8.457 eV)
    11      11       --         3.375 au  N             1.00      3 P:z             2
                        (      91.843 eV)
    12      12       --         1.299 au  N             1.00      1 D:xz            2
                        (      35.360 eV)
    13      13       --         1.299 au  N             1.00      1 D:yz            2
                        (      35.360 eV)
    14      14       --         4.088 au  N             1.00      1 F:z3            2
                        (     111.240 eV)
    15      15       --         4.088 au  N             1.00      1 F:z             2
                        (     111.240 eV)
    16      16       --         4.088 au  N             1.00      1 F:xyz           2
                        (     111.240 eV)
    17      17      2.000     -19.301 au  O             0.71      1 S               3
                        (    -525.210 eV)              -0.71      1 S               4
    18      18      2.000      -0.971 au  O             0.71      2 S               3
                        (     -26.409 eV)              -0.71      2 S               4
    19      19       --         0.840 au  O             0.71      3 S               3
                        (      22.860 eV)              -0.71      3 S               4
    20      20       --        13.636 au  O             0.71      4 S               3
                        (     371.062 eV)              -0.71      4 S               4
    21      21       --       123.736 au  O             0.71      5 S               3
                        (    3367.024 eV)              -0.71      5 S               4
    22      22      1.333      -0.361 au  O             0.71      1 P:x             3
                        (      -9.826 eV)              -0.71      1 P:x             4
    23      23       --         0.380 au  O             0.71      2 P:x             3
                        (      10.335 eV)              -0.71      2 P:x             4
    24      24       --         3.936 au  O             0.71      3 P:x             3
                        (     107.096 eV)              -0.71      3 P:x             4
    25      25      1.333      -0.361 au  O             0.71      1 P:y             3
                        (      -9.826 eV)              -0.71      1 P:y             4
    26      26       --         0.380 au  O             0.71      2 P:y             3
                        (      10.335 eV)              -0.71      2 P:y             4
    27      27       --         3.936 au  O             0.71      3 P:y             3
                        (     107.096 eV)              -0.71      3 P:y             4
    28      28      1.333      -0.361 au  O             0.71      1 P:z             3
                        (      -9.826 eV)               0.71      1 P:z             4
    29      29       --         0.380 au  O             0.71      2 P:z             3
                        (      10.335 eV)               0.71      2 P:z             4
    30      30       --         3.936 au  O             0.71      3 P:z             3
                        (     107.096 eV)               0.71      3 P:z             4
    31      31       --         1.117 au  O             0.71      1 D:z2            3
                        (      30.395 eV)              -0.71      1 D:z2            4
    32      32       --         1.117 au  O             0.71      1 D:x2-y2         3
                        (      30.395 eV)              -0.71      1 D:x2-y2         4
    33      33       --         1.117 au  O             0.71      1 D:xy            3
                        (      30.395 eV)              -0.71      1 D:xy            4
    34      34       --         1.117 au  O             0.71      1 D:xz            3
                        (      30.395 eV)               0.71      1 D:xz            4
    35      35       --         1.117 au  O             0.71      1 D:yz            3
                        (      30.395 eV)               0.71      1 D:yz            4
    36      36       --         3.432 au  O             0.71      1 F:z3            3
                        (      93.388 eV)               0.71      1 F:z3            4
    37      37       --         3.432 au  O             0.71      1 F:z             3
                        (      93.388 eV)               0.71      1 F:z             4
    38      38       --         3.432 au  O             0.71      1 F:xyz           3
                        (      93.388 eV)               0.71      1 F:xyz           4
    39      39       --         3.432 au  O             0.71      1 F:z2x           3
                        (      93.388 eV)              -0.71      1 F:z2x           4
    40      40       --         3.432 au  O             0.71      1 F:z2y           3
                        (      93.388 eV)              -0.71      1 F:z2y           4
    41      41       --         3.432 au  O             0.71      1 F:x             3
                        (      93.388 eV)              -0.71      1 F:x             4
    42      42       --         3.432 au  O             0.71      1 F:y             3
                        (      93.388 eV)              -0.71      1 F:y             4
    43      43      1.000      -0.244 au  H             0.71      1 S               5
                        (      -6.641 eV)              -0.71      1 S               6
    44      44       --         0.104 au  H             0.71      2 S               5
                        (       2.836 eV)              -0.71      2 S               6
    45      45       --         1.564 au  H             0.71      3 S               5
                        (      42.568 eV)              -0.71      3 S               6
    46      46       --         0.436 au  H             0.71      1 P:x             5
                        (      11.864 eV)              -0.71      1 P:x             6
    47      47       --         0.436 au  H             0.71      1 P:y             5
                        (      11.864 eV)              -0.71      1 P:y             6
    48      48       --         0.436 au  H             0.71      1 P:z             5
                        (      11.864 eV)               0.71      1 P:z             6
    49      49       --         2.618 au  H             0.71      1 D:z2            5
                        (      71.229 eV)              -0.71      1 D:z2            6
    50      50       --         2.618 au  H             0.71      1 D:x2-y2         5
                        (      71.229 eV)              -0.71      1 D:x2-y2         6
    51      51       --         2.618 au  H             0.71      1 D:xy            5
                        (      71.229 eV)              -0.71      1 D:xy            6
    52      52       --         2.618 au  H             0.71      1 D:xz            5
                        (      71.229 eV)               0.71      1 D:xz            6
    53      53       --         2.618 au  H             0.71      1 D:yz            5
                        (      71.229 eV)               0.71      1 D:yz            6
    54      54       --         0.436 au  H             1.00      1 P:z             7
                        (      11.864 eV)
    55      55       --         2.618 au  H             1.00      1 D:xz            7
                        (      71.229 eV)
    56      56       --         2.618 au  H             1.00      1 D:yz            7
                        (      71.229 eV)



 ================================
 (Slater-type)  F U N C T I O N S  ***  (Basis and Fit)  ***
 ================================
  

 Atom Type    1  (C)
 ==============

 Valence Basis Sets:  10
 -----------------------
   1 S    7.680000
   1 S    5.000000
   2 S    1.280000
   2 S    2.100000
   2 S    4.600000
   2 P    0.820000
   2 P    1.480000
   2 P    2.940000
   3 D    2.200000
   4 F    3.300000

 Charge Fitting Sets (for the computation of the Coulomb Potential):  22
 -----------------------------------------------------------------------
   1 S   15.360000
   2 S   17.530000
   2 S   12.070000
   2 S    8.310000
   2 S    5.730000
   3 S    5.780000
   3 S    4.220000
   3 S    3.080000
   3 S    2.250000
   3 S    1.640000
   2 P    9.880000
   2 P    5.800000
   3 P    5.050000
   3 P    3.230000
   3 P    2.060000
   3 D    7.200000
   3 D    4.400000
   3 D    2.690000
   3 D    1.640000
   4 F    5.400000
   4 F    3.550000
   5 G    4.500000

 Atom Type    2  (N)
 ==============

 Valence Basis Sets:  10
 -----------------------
   1 S    8.740000
   1 S    5.900000
   2 S    5.150000
   2 S    2.500000
   2 S    1.500000
   2 P    3.680000
   2 P    1.880000
   2 P    1.000000
   3 D    2.200000
   4 F    3.300000

 Charge Fitting Sets (for the computation of the Coulomb Potential):  22
 -----------------------------------------------------------------------
   1 S   17.480000
   2 S   20.150000
   2 S   13.990000
   2 S    9.710000
   2 S    6.740000
   3 S    6.860000
   3 S    5.040000
   3 S    3.700000
   3 S    2.720000
   3 S    2.000000
   2 P   11.320000
   2 P    6.730000
   3 P    5.920000
   3 P    3.820000
   3 P    2.460000
   3 D    8.100000
   3 D    5.080000
   3 D    3.190000
   3 D    2.000000
   4 F    5.800000
   4 F    3.600000
   5 G    4.500000

 Atom Type    3  (O)
 ==============

 Valence Basis Sets:  10
 -----------------------
   1 S    9.800000
   1 S    6.800000
   2 S    7.580000
   2 S    2.880000
   2 S    1.720000
   2 P    4.080000
   2 P    2.080000
   2 P    1.120000
   3 D    2.000000
   4 F    3.000000

 Charge Fitting Sets (for the computation of the Coulomb Potential):  22
 -----------------------------------------------------------------------
   1 S   19.600000
   2 S   22.600000
   2 S   15.680000
   2 S   10.890000
   2 S    7.560000
   3 S    7.690000
   3 S    5.650000
   3 S    4.150000
   3 S    3.050000
   3 S    2.240000
   2 P   12.860000
   2 P    7.680000
   3 P    6.780000
   3 P    4.390000
   3 P    2.840000
   3 D    8.800000
   3 D    5.580000
   3 D    3.530000
   3 D    2.240000
   4 F    6.200000
   4 F    3.700000
   5 G    4.500000

 Atom Type    4  (H)
 ==============

 Valence Basis Sets:   5
 -----------------------
   1 S    0.690000
   1 S    0.920000
   1 S    1.580000
   2 P    1.250000
   3 D    2.500000

 Charge Fitting Sets (for the computation of the Coulomb Potential):  11
 -----------------------------------------------------------------------
   1 S    3.160000
   1 S    2.090000
   1 S    1.380000
   2 S    1.500000
   2 P    4.000000
   2 P    2.650000
   2 P    1.750000
   3 D    4.000000
   3 D    2.500000
   4 F    3.000000
   5 G    4.000000


 BAS: List of all Elementary Cartesian Basis Functions
 =====================================================

 The numbering in the list below (to the right of the function characteristics) is referred
 to in print-outs of MO eigenvectors and Mulliken populations in the BAS representation
 (as contrasted to the SFO representation).

 Notes:
 1. The functions are characterized by a polynomial prefactor (powers of x,y,z and r) and
    an exponential decay factor alpha.
 2. Since the basis sets are specific for an atom TYPE, the individual functions occur on
    all atoms of that type.
 3. The word 'Core' in the left margin signals that it is a Core Function (CF) : not a
    degree of freedom in the valence set, but only used to ensure orthogonalization of
    the other valence basis functions on the frozen Core Orbitals.


 (power of) X  Y  Z  R     Alpha  on Atom
            ==========     =====     ==========

 C                                    1
                                  ---------------------------------------------------------------------------
            0  0  0  0     7.680      1
            0  0  0  0     5.000      2
            0  0  0  1     1.280      3
            0  0  0  1     2.100      4
            0  0  0  1     4.600      5
            1  0  0  0     0.820      6
            0  1  0  0     0.820      7
            0  0  1  0     0.820      8
            1  0  0  0     1.480      9
            0  1  0  0     1.480     10
            0  0  1  0     1.480     11
            1  0  0  0     2.940     12
            0  1  0  0     2.940     13
            0  0  1  0     2.940     14
            2  0  0  0     2.200     15
            1  1  0  0     2.200     16
            1  0  1  0     2.200     17
            0  2  0  0     2.200     18
            0  1  1  0     2.200     19
            0  0  2  0     2.200     20
            3  0  0  0     3.300     21
            2  1  0  0     3.300     22
            2  0  1  0     3.300     23
            1  2  0  0     3.300     24
            1  1  1  0     3.300     25
            1  0  2  0     3.300     26
            0  3  0  0     3.300     27
            0  2  1  0     3.300     28
            0  1  2  0     3.300     29
            0  0  3  0     3.300     30

 N                                    2
                                  ---------------------------------------------------------------------------
            0  0  0  0     8.740     31
            0  0  0  0     5.900     32
            0  0  0  1     5.150     33
            0  0  0  1     2.500     34
            0  0  0  1     1.500     35
            1  0  0  0     3.680     36
            0  1  0  0     3.680     37
            0  0  1  0     3.680     38
            1  0  0  0     1.880     39
            0  1  0  0     1.880     40
            0  0  1  0     1.880     41
            1  0  0  0     1.000     42
            0  1  0  0     1.000     43
            0  0  1  0     1.000     44
            2  0  0  0     2.200     45
            1  1  0  0     2.200     46
            1  0  1  0     2.200     47
            0  2  0  0     2.200     48
            0  1  1  0     2.200     49
            0  0  2  0     2.200     50
            3  0  0  0     3.300     51
            2  1  0  0     3.300     52
            2  0  1  0     3.300     53
            1  2  0  0     3.300     54
            1  1  1  0     3.300     55
            1  0  2  0     3.300     56
            0  3  0  0     3.300     57
            0  2  1  0     3.300     58
            0  1  2  0     3.300     59
            0  0  3  0     3.300     60

 O                                    3    4
                                  ---------------------------------------------------------------------------
            0  0  0  0     9.800     61   91
            0  0  0  0     6.800     62   92
            0  0  0  1     7.580     63   93
            0  0  0  1     2.880     64   94
            0  0  0  1     1.720     65   95
            1  0  0  0     4.080     66   96
            0  1  0  0     4.080     67   97
            0  0  1  0     4.080     68   98
            1  0  0  0     2.080     69   99
            0  1  0  0     2.080     70  100
            0  0  1  0     2.080     71  101
            1  0  0  0     1.120     72  102
            0  1  0  0     1.120     73  103
            0  0  1  0     1.120     74  104
            2  0  0  0     2.000     75  105
            1  1  0  0     2.000     76  106
            1  0  1  0     2.000     77  107
            0  2  0  0     2.000     78  108
            0  1  1  0     2.000     79  109
            0  0  2  0     2.000     80  110
            3  0  0  0     3.000     81  111
            2  1  0  0     3.000     82  112
            2  0  1  0     3.000     83  113
            1  2  0  0     3.000     84  114
            1  1  1  0     3.000     85  115
            1  0  2  0     3.000     86  116
            0  3  0  0     3.000     87  117
            0  2  1  0     3.000     88  118
            0  1  2  0     3.000     89  119
            0  0  3  0     3.000     90  120

 H                                    5    6    7
                                  ---------------------------------------------------------------------------
            0  0  0  0     0.690    121  133  145
            0  0  0  0     0.920    122  134  146
            0  0  0  0     1.580    123  135  147
            1  0  0  0     1.250    124  136  148
            0  1  0  0     1.250    125  137  149
            0  0  1  0     1.250    126  138  150
            2  0  0  0     2.500    127  139  151
            1  1  0  0     2.500    128  140  152
            1  0  1  0     2.500    129  141  153
            0  2  0  0     2.500    130  142  154
            0  1  1  0     2.500    131  143  155
            0  0  2  0     2.500    132  144  156

 Total number of charge fitting functions (nprimf)       486
 Total number of Cartesian basis functions (naos)        156
 Total number of Cartesian core functions  (ncos)          0

1
 ***************************************************************************************************



                                              ***********************
                                              *  T E C H N I C A L  *
                                              ***********************
  



 =============================================================
 P A R A L L E L I Z A T I O N  and  V E C T O R I Z A T I O N
 =============================================================
  
 Nr of parallel processes:                                4
 Maximum vector length in NumInt loops:                 128



 =====================
 S C F   U P D A T E S
 =====================
  
 Max. nr. of cycles:                               300
 Convergence criterion:                              0.0000010000
   secondary criterion:                              0.0010000000

 Mix parameter (when DIIS does not apply):           0.2000000000
 Mixed ADIIS+SDIIS will be used                  
    Max number of expansion vectors:                10
    Pure ADIIS when Max([F,P]) is above              0.1000000000
    Pure SDIIS when Max([F,P]) is below              0.0010000000
 Automatic ElectronSmearing (in case of problematic SCF convergence) disabled



 =================
 P R E C I S I O N  ***  (General: NumInt, NeglectFunctionTails, ...)  ***
 =================
  

 NumInt:           Target precision:                 6.0000000000
 -------           Initial precision:                6.0000000000
                   Min. precision (optimization):    6.0000000000

 Neglect Functions:          Basis functions:        0.1000000000E-07
 ------------------          Fit functions:          0.1000000000E-07



 ===========================
 L I N E A R   S C A L I N G
 ===========================
  

 Cut-off radii density fit:                        0.1000000000E-09
 Overlap cut-off criterion AO matrix elements:     0.1000000000E-07
 Cut-offs for Coulomb potential and fitted density:0.1000000000E-09
 Cut-off criterion for Coulomb multipole terms:    0.1000000000E-09
 Progressive Convergence parameter:                 0.000000000    

 Number of elements of the density matrix on this node (used, total):      3270     12246



 ===========================================
 Numerical Integration : Fuzzy Cells (Becke)
 ===========================================
  
 Becke grid quality: GOOD           
  
 Lebedev angular grid order:             min:  11 max:  31
 Nr. of radial points:                   min:  54 max:  61

 Total nr. of points:      89392
 Nr. of blocks:              700
 Block length:               128
 Nr. of dummy points:        208


 Test of Precision of the Numerical Integration Grid
 ===================================================

 Integral of the Total Core Density:                   0.00000000000000


 -------------------------------------------
  COSMO surface
  Area             =          300.992
  Volume           =          426.927
  Number of Points =          843
 -------------------------------------------



 ========================
 Density Fitting (zlmFit)
 ========================
  
 ZlmFit Fit Quality: GOOD           
  
 Max L-expansion:                        min:   8 max:   9
 Nr. of radial interpolation points:     min:  78 max: 108



 ======================
 RI Hartree-Fock Scheme
 ======================
  
 Fit Set Quality     : GOOD
 Integration Quality : GOOD
 Threshold Quality   : GOOD
 Response Quality    : DEFAULT
 Is Range Separated  :  F
 
 RIHartreeFock Dependency: number of modified vectors:           3



 =====
 S C F  ***  ScaSCF  ***
 =====
  
 Initial density matrix is taken from previous geometry

 CYCLE    1
  ***********************************************************
  ** : orbital data taken from :/tmp/amstmp_ams_kid0.1510576707/GOStep6.rkf
  ***********************************************************
 SCF Error: norm([F,P])=      0.055859082529, max([F,P])=      0.018736239524
 orbitals (Q,E):
 ---------------
 AA :1...20          ( 2.00   -19.1613)  ( 2.00   -14.5689)  ( 2.00   -10.2565)  ( 2.00    -1.2411)
                     ( 2.00    -0.8344)  ( 2.00    -0.6358)  ( 2.00    -0.5628)  ( 2.00    -0.5498)
                     ( 2.00    -0.4511)  ( 2.00    -0.3190)  ( 0.00    -0.0822)  ( 0.00    -0.0026)
                     ( 0.00     0.0531)  ( 0.00     0.0585)  ( 0.00     0.1389)  ( 0.00     0.1586)
                     ( 0.00     0.2814)  ( 0.00     0.2984)  ( 0.00     0.3244)  ( 0.00     0.3601)
 AAA :1...16         ( 2.00   -19.1613)  ( 2.00    -1.0649)  ( 2.00    -0.5275)  ( 2.00    -0.4679)
                     ( 2.00    -0.3226)  ( 2.00    -0.3008)  ( 0.00     0.0525)  ( 0.00     0.1507)
                     ( 0.00     0.2320)  ( 0.00     0.3592)  ( 0.00     0.4198)  ( 0.00     0.4564)
                     ( 0.00     0.5360)  ( 0.00     0.6348)  ( 0.00     0.8069)  ( 0.00     0.8392)

 CYCLE    2
  SDIIS (wt  0.000):  0.6474  0.3526
 A-DIIS (wt  1.000):  0.6567  0.3433
  DIIS coefficients:  0.6567  0.3433
 SCF Error: norm([F,P])=      0.097333732039, max([F,P])=      0.040645472760
 orbitals (Q,E):
 ---------------
 AA :1...11          ( 2.00   -19.1760)  ( 2.00   -14.5584)  ( 2.00   -10.2405)  ( 2.00    -1.2422)
                     ( 2.00    -0.8254)  ( 2.00    -0.6328)  ( 2.00    -0.5591)  ( 2.00    -0.5504)
                     ( 2.00    -0.4409)  ( 2.00    -0.3249)  ( 0.00    -0.0838)
 AAA :1...7          ( 2.00   -19.1760)  ( 2.00    -1.0691)  ( 2.00    -0.5329)  ( 2.00    -0.4586)
                     ( 2.00    -0.3308)  ( 2.00    -0.3094)  ( 0.00     0.0608)

 CYCLE    3
  SDIIS (wt  0.000):  0.4409  0.1543  0.4048
 A-DIIS (wt  1.000):  0.3287  0.0000  0.6713
  DIIS coefficients:  0.3287  0.0000  0.6713
 SCF Error: norm([F,P])=      0.036682513005, max([F,P])=      0.009444591644
 orbitals (Q,E):
 ---------------
 AA :1...11          ( 2.00   -19.1708)  ( 2.00   -14.5701)  ( 2.00   -10.2370)  ( 2.00    -1.2451)
                     ( 2.00    -0.8235)  ( 2.00    -0.6313)  ( 2.00    -0.5598)  ( 2.00    -0.5504)
                     ( 2.00    -0.4348)  ( 2.00    -0.3264)  ( 0.00    -0.0858)
 AAA :1...7          ( 2.00   -19.1708)  ( 2.00    -1.0710)  ( 2.00    -0.5352)  ( 2.00    -0.4527)
                     ( 2.00    -0.3321)  ( 2.00    -0.3105)  ( 0.00     0.0675)

 CYCLE    4
  SDIIS (wt  0.858): -0.4191  0.2054  1.2137
 A-DIIS (wt  0.142):  0.0000  0.0000  1.0000
  DIIS coefficients: -0.3597  0.1763  1.1834
 SCF Error: norm([F,P])=      0.033119859234, max([F,P])=      0.015034153821
 orbitals (Q,E):
 ---------------
 AA :1...11          ( 2.00   -19.1766)  ( 2.00   -14.5620)  ( 2.00   -10.2310)  ( 2.00    -1.2450)
                     ( 2.00    -0.8188)  ( 2.00    -0.6303)  ( 2.00    -0.5577)  ( 2.00    -0.5492)
                     ( 2.00    -0.4289)  ( 2.00    -0.3291)  ( 0.00    -0.0858)
 AAA :1...7          ( 2.00   -19.1766)  ( 2.00    -1.0725)  ( 2.00    -0.5381)  ( 2.00    -0.4470)
                     ( 2.00    -0.3358)  ( 2.00    -0.3142)  ( 0.00     0.0740)

 CYCLE    5
  SDIIS (wt  0.965): -0.1482 -0.0301  0.5991  0.5793
 A-DIIS (wt  0.035):  0.0000  0.0000  0.0000  1.0000
  DIIS coefficients: -0.1431 -0.0291  0.5782  0.5940
 SCF Error: norm([F,P])=      0.012462716236, max([F,P])=      0.004453746098
 orbitals (Q,E):
 ---------------
[...]
 
NMR
    out    iso    tens
    adfgui
    Atoms 2
    u1k best
    calc all
End

 *******************************************************************************
 *                                                                             *
 *  --------------------------------                                           *
 *   Amsterdam Modeling Suite (AMS)              2020.202                      *
 *  --------------------------------                                           *
 *                                               r90167 2020-12-05             *
 *                                                                             *
 *                                                                             *
 *                              =================                              *
 *                              |               |                              *
 *                              |     N M R     |                              *
 *                              |               |                              *
 *                              =================                              *
 *                                                                             *
 *                                                                             *
 *   Online information and documentation:  https://www.scm.com/support/       *
 *   E-mail:  support@scm.com   info@scm.com                                   *
 *                                                                             *
 *   Scientific publications using AMS results must be properly referenced     *
 *   See the User Manuals (or the web site) for recommended citations          *
 *   The terms and conditions of the End User License Agreement apply to       *
 *   the use of AMS, https://www.scm.com/license-terms/                        *
 *                                                                             *
 **********************  x86_64_linux_intel / intelmpi  ************************
 
 Licensed to: Dr. Miroslav Ilias / Matej Bel University, Department Chemistry, Fac. Natural Sciences / Banska Bystrica / SLOVAKIA
 SCM User ID: u17848
  
 NMR 2020.202  RunTime: Mar08-2021 18:29:04  Nodes: 1  Procs: 4

 Temporary files are created in /tmp/kid_0.150371058 (0xEF53)


 Communication costs MPI_COMM_WORLD:      0.277 usec per message,   0.0034 usec per 8-byte item
 Communication costs for intra-node:      0.257 usec per message,   0.0034 usec per 8-byte item




 ======================
 RI Hartree-Fock Scheme
 ======================
  
 Fit Set Quality     : GOOD
 Integration Quality : GOOD
 Threshold Quality   : GOOD
 Response Quality    : DEFAULT
 Is Range Separated  :  F
 
 RIHartreeFock Dependency: number of modified vectors:           0
                    
                      **********************************    
                      ||******************************||    
                      ||                              ||    
                      ||  ##   ##  ###  ###  ######   ||    
                      ||  ###  ##  ########  ##   ##  ||    
                      ||  #### ##  ## ## ##  ######   ||    
                      ||  ## ####  ##    ##  ## ##    ||    
                      ||  ##  ###  ##    ##  ##  ##   ||    
                      ||  ##   ##  ##    ##  ##   ##  ||    
                      ||                              ||    
                      | ****************************** |    
                      **********************************    
                    
                            Written for ADF by              
                    
                    Stephen K. Wolff & Georg Schreckenbach  
                    
                      The research group of Tom Ziegler     
                            University of Calgary           
                               Alberta, Canada              
                    
                      Speedups, NBO analysis, g-tensors,    
                       full ZORA SO, and other goodies by   
                         Jochen Autschbach, SUNY Buffalo
                    
 =============================
 NMR Chemical shift References
 =============================
  
 Lead:
 G. Schreckenbach, T. Ziegler, J. Phys. Chem. 99 (1995) 606
  
 Speed-ups:
 J. Autschbach, E. Zurek, J. Phys. Chem. A 107 (2003), 4967
  
 Hybrids:
 M. Krykunov, T. Ziegler, E. van Lenthe, Int. J. of Quantum Chem. 109, 1676 (2009)
  
 Spin-orbit coupling:
 S.K. Wolff, T. Ziegler, E. van Lenthe, E.J. Baerends, J. Chem. Phys. 110, 7689 (1999)
 J. Autschbach, Mol. Phys. 111 (2013), 2544
  
 Paramagnetic:
 J. Autschbach, S. Patchkovskii, B. Pritchard, J. Chem. Theory Comput. 7, 2175 (2011)
  
 NBO analysis:
 J. Autschbach, J. Chem. Phys. 128 (2008), 164112
 J. Autschbach, S. Zheng, Magn. Reson. Chem. 46 (2008), S48
  
 Suggested:
 G. Schreckenbach, T. Ziegler, Int. J. Quantum Chem. 60, 753 (1996)
 G. Schreckenbach, T. Ziegler, Int. J. Quantum Chem. 61 (1997) 899
 S.K. Wolff, T. Ziegler, J. Chem. Phys. 109 (1998) 895
  
 =======================
 ESR g-tensor References
 =======================
  
 Lead:
 J. Autschbach, B. Pritchard, Theor. Chem. Acc. 129 (2011), 453
  
 Suggested:
 G. Schreckenbach, T. Ziegler, J. Phys. Chem. A 101, 3388 (1997)
 
################################################################################
 
 
################################################################################
 
 
              <><><><><><><><><><><><><><><><><><><><><><><><><>
 
                 GENERAL ADF INFORMATION:
                 ------------------------
 
                 TITLE:    *** adf ***                                  
 JOB ID:     1510576707
                 NONLXC:                                                
                 SYMMETRY: C(S)                                         
                  
                 IOPREL:   0
                 ------>  non-rel. (Re MOs)
 
              <><><><><><><><><><><><><><><><><><><><><><><><><>
 
              ==================================================
 
                 NUCLEAR COORDINATES (ANGSTROMS):
                 --------------------------------
 
                 C  (  1):       0.6634      0.0078     -0.0000
                 N  (  2):      -0.8292      0.0168     -0.0000
                 O  (  3):      -1.3997      0.0058      1.0814
                 O  (  4):      -1.3997      0.0058     -1.0814
                 H  (  5):       1.0019      0.5010      0.9031
                 H  (  6):       1.0019      0.5010     -0.9031
                 H  (  7):       0.9614     -1.0382     -0.0000
 
              ==================================================
 
              <><><><><><><><><><><><><><><><><><><><><><><><><>
 
                 NUMBERS:
                 --------
 
                 number of electrons:     32.00
 
                 ---   AOs   ---          ---   MOs   ---
                 ncor =     0             nocc =    16
                 nval =   156             nvir =   121
                 nbas =   156             nmo  =   137
                 naos =   156             nsot =   137
              ==================================================
                  
                 --------------------------
                     ATOM TYPE: C                        
                 --------------------------
                 === BASIS
                   1S    7.68     VALENCE
                   1S    5.00     VALENCE
                   2S    1.28     VALENCE
                   2S    2.10     VALENCE
                   2S    4.60     VALENCE
                   2P    0.82     VALENCE
                   2P    1.48     VALENCE
                   2P    2.94     VALENCE
                   3D    2.20     VALENCE
                   4F    3.30     VALENCE
                  
                 --------------------------
                     ATOM TYPE: N                        
                 --------------------------
                 === BASIS
                   1S    8.74     VALENCE
                   1S    5.90     VALENCE
                   2S    5.15     VALENCE
                   2S    2.50     VALENCE
                   2S    1.50     VALENCE
                   2P    3.68     VALENCE
                   2P    1.88     VALENCE
                   2P    1.00     VALENCE
                   3D    2.20     VALENCE
                   4F    3.30     VALENCE
                  
                 --------------------------
                     ATOM TYPE: O                        
                 --------------------------
                 === BASIS
                   1S    9.80     VALENCE
                   1S    6.80     VALENCE
                   2S    7.58     VALENCE
                   2S    2.88     VALENCE
                   2S    1.72     VALENCE
                   2P    4.08     VALENCE
                   2P    2.08     VALENCE
                   2P    1.12     VALENCE
                   3D    2.00     VALENCE
                   4F    3.00     VALENCE
                  
                 --------------------------
                     ATOM TYPE: H                        
                 --------------------------
                 === BASIS
                   1S    0.69     VALENCE
                   1S    0.92     VALENCE
                   1S    1.58     VALENCE
                   2P    1.25     VALENCE
                   3D    2.50     VALENCE
                  
              ==================================================
              <><><><><><><><><><><><><><><><><><><><><><><><><>
 
                 TENSOR INFORMATION:
                 -------------------
 
                              CALC                   U1K
 
                 paramagnetic  = T     mass-velocity = F
                 diamagnetic   = T     Darwin        = F
                 Fermi-cont.   = F     Zeeman        = F
                 ZORA SO       = F     ZORA SO       = F
                 ZORA SCALE    = F     ZORA SO FULL  = F
                 ZORA SO 1C    = F     E IN U1 SCL   = F
 
              <><><><><><><><><><><><><><><><><><><><><><><><><>
 
              <><><><><><><><><><><><><><><><><><><><><><><><><>
 
                 OUTPUT SWITCHES:
                 ----------------
 
                           ISO = T                F1 = F
                          TENS = T                S1 = F
                           EIG = F                U1 = F
                           AOP = F                B1 = F
                           AOD = F                F  = F
                           AOF = F                 S = F
                          INFO = F              REFS = F
 
              <><><><><><><><><><><><><><><><><><><><><><><><><>
 
              --------------------------------------------------
 
                 CALCULATE THE POTENTIAL? F
                  
                 ---> Potential is already on TAPE10.
                      It will not be re-calculated.
 
              --------------------------------------------------



 ===========================
 L I N E A R   S C A L I N G
 ===========================
  

 Overlap cut-off criterion AO matrix elements:     0.1000000000E-07
 ========================
 STARTING A NEW SCF. Step            1
 CRIT   1.00000000000000     
 CRIT   1.00000000000000     
 CRIT   1.00000000000000     
 ========================
 STARTING A NEW SCF. Step            2
 CRIT   4.17643419729096     
 CRIT   2.28949770960093     
 CRIT   5.53292520190157     
 ========================
 STARTING A NEW SCF. Step            3
 CRIT  0.552842160731507     
 CRIT  0.232358701858814     
 CRIT  0.369136504962667     
 ========================
 STARTING A NEW SCF. Step            4
 CRIT  4.564777280117588E-002
 CRIT  1.937580904824928E-002
 CRIT  2.314082351532645E-002
 ========================
 STARTING A NEW SCF. Step            5
 CRIT  1.689530375771754E-003
 CRIT  3.488525198333583E-003
 CRIT  1.315228412474819E-003
 ========================
 STARTING A NEW SCF. Step            6
 CRIT  8.565293477894712E-005
 CRIT  2.652196506330530E-004
 CRIT  5.518596762641368E-005
 ========================
 STARTING A NEW SCF. Step            7
 CRIT  6.131643040869509E-006
 CRIT  1.554097376797944E-005
 CRIT  2.515632308943006E-006
 ========================
 STARTING A NEW SCF. Step            8
 CRIT  5.162423876235064E-007
 CRIT  7.913679665416185E-007
 CRIT  1.083499493957373E-007
################################################################################
********************************************************************************
****  N U C L E U S : N(2)
 
 ADF-GUI atom: N(2)
 Internal NMR numbering of atoms: N(2)
 
 
================================================================================
 
 
===  PARAMAGNETIC NMR SHIELDING TENSORS (ppm)
 
    ===     paramagnetic b^(1) tensor       ===     paramagnetic u^(1) tensor
    -----------------------------------     -----------------------------------
           0.000     0.000     0.000            -665.517    -3.211    -0.012
           0.000     0.000     0.000              -3.211  -339.206    -0.017
           0.000     0.000     0.000              -0.012    -0.017  -658.906
    -----------------------------------     -----------------------------------
              isotropic =      0.000                  isotropic =   -554.543

    ===     paramagnetic s^(1) tensor       ===     paramagnetic gauge tensor
    -----------------------------------     -----------------------------------
          58.498    -0.643    -0.001              -0.418     0.054    -0.000
          -0.643   119.297     0.000               0.054    -4.833    -0.000
          -0.001     0.000    85.894              -0.000    -0.000    -0.587
    -----------------------------------     -----------------------------------
              isotropic =     87.896                  isotropic =     -1.946

                        ***********************************
                        CARTESIAN AXIS REPRESENTATION

                        ==== total paramagnetic tensor
                        -----------------------------------
                            -607.437    -3.799    -0.012
                              -3.799  -224.742    -0.017
                              -0.012    -0.017  -573.599
                        -----------------------------------
                                  isotropic =   -468.593

                        ***********************************
                        -----------------------------------
                        PRINCIPAL AXIS REPRESENTATION

                        ==== Principal components:

                            -607.474  -573.599  -224.705
 
                        ==== Principal Axis System:

                               1.000    -0.000     0.010
                               0.010     0.000    -1.000
                               0.000     1.000     0.000
                        -----------------------------------
 
================================================================================
 
 
===  DIAMAGNETIC NMR SHIELDING TENSORS (ppm)
 
    ===       diamagnetic core tensor       ===    diamagnetic valence tensor
    -----------------------------------     -----------------------------------
           0.000     0.000     0.000             304.769     0.065    -0.000
           0.000     0.000     0.000               0.065   271.619    -0.000
           0.000     0.000     0.000              -0.000    -0.000   317.954
    -----------------------------------     -----------------------------------
              isotropic =      0.000                  isotropic =    298.114

                        ***********************************
                        CARTESIAN AXIS REPRESENTATION

                        ==== total diamagnetic tensor
                        -----------------------------------
                             304.769     0.065    -0.000
                               0.065   271.619    -0.000
                              -0.000    -0.000   317.954
                        -----------------------------------
                                  isotropic =    298.114

                        ***********************************
                        -----------------------------------
                        PRINCIPAL AXIS REPRESENTATION

                        ==== Principal components:

                             271.618   304.770   317.954
 
                        ==== Principal Axis System:

                               0.002    -1.000    -0.000
                              -1.000    -0.002    -0.000
                              -0.000    -0.000     1.000
                        -----------------------------------
 
================================================================================
 
 
===  TOTAL NMR SHIELDING TENSOR (ppm)
 
                        ***********************************
                        CARTESIAN AXIS REPRESENTATION

                        ==== total shielding tensor
                        -----------------------------------
                            -302.667    -3.734    -0.013
                              -3.734    46.876    -0.017
                              -0.013    -0.017  -255.645
                        -----------------------------------
                                  isotropic =   -170.479

                        ***********************************
                        -----------------------------------
                        PRINCIPAL AXIS REPRESENTATION

                        ==== Principal components:

                            -302.707  -255.645    46.916
 
                        ==== Principal Axis System:

                               1.000    -0.000     0.011
                               0.011     0.000    -1.000
                               0.000     1.000     0.000
                        -----------------------------------
 *******************************************************************************

                             N M R   E X I T
 NORMAL TERMINATION



 =================
 Timing Statistics
 =================
  
 Total Used :                     CPU=       17.28      System=        0.50     Elapsed=       18.64

 Calls  Section                     ( Mean, Percentage )
 ---------------------------------------------------------------------------------------------------
     3  ><      ................      0.00    0.06             0.00    1.17             0.01    0.10
     1  INIT    ................      0.42    2.43             0.00    0.00             0.43    2.29
     1  RDEIGX  ................      9.97   57.69             0.15   29.23            10.76   57.74
     1  AOF1K   ................      0.44    2.54             0.00    0.00             0.48    2.58
     1  AOPKK   ................      5.80   33.58             0.34   68.06             6.28   33.69
     1  XSIGP   ................      0.00    0.00             0.00    0.00             0.00    0.00
     1  AODKKK  ................      0.64    3.69             0.00    0.75             0.66    3.56
     1  XDV     ................      0.00    0.00             0.00    0.00             0.00    0.00
     1  XSIGD   ................      0.00    0.00             0.00    0.00             0.00    0.00
     1  EXIT PROCEDURE .........      0.00    0.01             0.00    0.78             0.01    0.04


 Currently Open Files (EXIT00)
 ====================

 Unit    Access Format  Status   Type       Ident (file)
 -------------------------------------------------------
   3      SEQ    FORM   TRANSP  NORMAL      LOGFILE
                                          ( /home/milias/work/projects/open-collection/theoretical_chemistry/projects/nmr_diplomovky/reference_compounds/nitromethane/ams/b3lyp_tz2p_good/cosmo-chcl3/nitromethane.geopt_freq_nmr_shield_b3lyp_tz2p_good_cosmo-chcl3.logfile )
