
     Program PWSCF v.7.4.1 starts on  8Jul2025 at 15:10: 3 
        Git branch: develop
        Last git commit: 95bc91b9c3ff25f565697dd77c0850e0757537c6
        Last git commit date: Sun May 11 00:26:41 2025 +0000
        Last git commit subject: Merge branch 'print-cmake-flags' into 'develop'

     This program is part of the open-source Quantum ESPRESSO suite
     for quantum simulation of materials; please cite
         "P. Giannozzi et al., J. Phys.:Condens. Matter 21 395502 (2009);
         "P. Giannozzi et al., J. Phys.:Condens. Matter 29 465901 (2017);
         "P. Giannozzi et al., J. Chem. Phys. 152 154105 (2020);
          URL http://www.quantum-espresso.org", 
     in publications or presentations arising from this work. More details at
     http://www.quantum-espresso.org/quote

     Parallel version (MPI), running on    16 processors

     MPI processes distributed on     1 nodes
     1719564 MiB available memory on the printing compute node when the environment starts
 
     Waiting for input...
     Reading input from standard input

     Current dimensions of program PWSCF are:
     Max number of different atomic species (ntypx) = 10
     Max number of k-points (npk) =  40000
     Max angular momentum in pseudopotentials (lmaxx) =  4
     Message from routine setup:
     using ibrav=0 with symmetry is DISCOURAGED, use correct ibrav instead
 
     R & G space division:  proc/nbgrp/npool/nimage =      16
     Subspace diagonalization in iterative solution of the eigenvalue problem:
     a serial algorithm will be used

 
     Parallelization info
     --------------------
     sticks:   dense  smooth     PW     G-vecs:    dense   smooth      PW
     Min         426     426    106                26480    26480    3306
     Max         427     427    107                26483    26483    3309
     Sum        6817    6817   1701               423701   423701   52923
 
     Using Slab Decomposition
 


     bravais-lattice index     =            0
     lattice parameter (alat)  =      18.8973  a.u.
     unit-cell volume          =    6748.3345 (a.u.)^3
     number of atoms/cell      =            1
     number of atomic types    =            1
     number of electrons       =        52.00
     number of Kohn-Sham states=           31
     kinetic-energy cutoff     =      60.0000  Ry
     charge density cutoff     =     240.0000  Ry
     scf convergence threshold =      1.0E-09
     mixing beta               =       0.2000
     number of iterations used =            8  plain     mixing
     Exchange-correlation= PBE
                           (   1   4   3   4   0   0   0)

     celldm(1)=  18.897261  celldm(2)=   0.000000  celldm(3)=   0.000000
     celldm(4)=   0.000000  celldm(5)=   0.000000  celldm(6)=   0.000000

     crystal axes: (cart. coord. in units of alat)
               a(1) = (   1.000000   0.000000   0.000000 )  
               a(2) = (   0.000000   1.000000   0.000000 )  
               a(3) = (   0.000000   0.000000   1.000000 )  

     reciprocal axes: (cart. coord. in units 2 pi/alat)
               b(1) = (  1.000000  0.000000  0.000000 )  
               b(2) = (  0.000000  1.000000  0.000000 )  
               b(3) = (  0.000000  0.000000  1.000000 )  


     PseudoPot. # 1 for Cn read from file:
     ./Cn_5spdf.upf
     MD5 check sum: 93e1fef3a27797e15a1182bf066f6f01
     Pseudo is Norm-conserving + core correction, Zval = 52.0
     Generated using ONCVPSP code by D. R. Hamann
     Using radial grid of 1080 points,  9 beta functions with: 
                l(1) =   0
                l(2) =   0
                l(3) =   0
                l(4) =   1
                l(5) =   1
                l(6) =   2
                l(7) =   2
                l(8) =   3
                l(9) =   3

     atomic species   valence    mass     pseudopotential
     Cn               52.00   285.00000     Cn( 1.00)

     48 Sym. Ops., with inversion, found



   Cartesian axes

     site n.     atom                  positions (alat units)
         1        Cn     tau(   1) = (   0.5000000   0.5000000   0.5000000  )

     number of k points=     1  Gaussian smearing, width (Ry)=  0.0200
                       cart. coord. in units 2pi/alat
        k(    1) = (   0.0000000   0.0000000   0.0000000), wk =   2.0000000

     Dense  grid:   423701 G-vectors     FFT dimensions: (  96,  96,  96)

     Estimated max dynamical RAM per process >      28.23 MB

     Estimated total dynamical RAM >     451.64 MB

     Check: negative core charge=   -0.000119

     Initial potential from superposition of free atoms

     starting charge      52.0000, renormalised to      52.0000

     negative rho (up, down):  1.584E+00 0.000E+00
     Starting wfcs are   26 randomized atomic wfcs +    5 random wfcs

     total cpu time spent up to now is        0.5 secs

     per-process dynamical memory:    61.7 Mb

     Self-consistent Calculation

     iteration #  1     ecut=    60.00 Ry     beta= 0.20
     Davidson diagonalization with overlap
     ethr =  1.00E-02,  avg # of iterations =  7.0

     negative rho (up, down):  5.911E-01 0.000E+00

     total cpu time spent up to now is        1.1 secs

     total energy              =   -3175.74638322 Ry
     estimated scf accuracy    <     102.55350879 Ry

     iteration #  2     ecut=    60.00 Ry     beta= 0.20
     Davidson diagonalization with overlap
     ethr =  1.00E-02,  avg # of iterations =  3.0

     negative rho (up, down):  4.438E-01 0.000E+00

     total cpu time spent up to now is        1.5 secs

     total energy              =   -3175.33407411 Ry
     estimated scf accuracy    <      32.53873971 Ry

     iteration #  3     ecut=    60.00 Ry     beta= 0.20
     Davidson diagonalization with overlap
     ethr =  1.00E-02,  avg # of iterations =  2.0

     negative rho (up, down):  9.418E-02 0.000E+00

     total cpu time spent up to now is        1.9 secs

     total energy              =   -3162.19388366 Ry
     estimated scf accuracy    <      16.27188406 Ry

     iteration #  4     ecut=    60.00 Ry     beta= 0.20
     Davidson diagonalization with overlap
     ethr =  1.00E-02,  avg # of iterations =  2.0

     negative rho (up, down):  1.021E-02 0.000E+00

     total cpu time spent up to now is        2.3 secs

     total energy              =   -3163.55005535 Ry
     estimated scf accuracy    <       0.59520838 Ry

     iteration #  5     ecut=    60.00 Ry     beta= 0.20
     Davidson diagonalization with overlap
     ethr =  1.14E-03,  avg # of iterations =  2.0

     negative rho (up, down):  1.106E-03 0.000E+00

     total cpu time spent up to now is        2.6 secs

     total energy              =   -3163.60500387 Ry
     estimated scf accuracy    <       0.11863635 Ry

     iteration #  6     ecut=    60.00 Ry     beta= 0.20
     Davidson diagonalization with overlap
     ethr =  2.28E-04,  avg # of iterations =  4.0

     total cpu time spent up to now is        3.0 secs

     total energy              =   -3163.49312522 Ry
     estimated scf accuracy    <       0.35970417 Ry

     iteration #  7     ecut=    60.00 Ry     beta= 0.20
     Davidson diagonalization with overlap
     ethr =  2.28E-04,  avg # of iterations =  2.0

     total cpu time spent up to now is        3.4 secs

     total energy              =   -3163.53626484 Ry
     estimated scf accuracy    <       0.01263868 Ry

     iteration #  8     ecut=    60.00 Ry     beta= 0.20
     Davidson diagonalization with overlap
     ethr =  2.43E-05,  avg # of iterations =  4.0

     total cpu time spent up to now is        3.7 secs

     total energy              =   -3163.53324441 Ry
     estimated scf accuracy    <       0.00531593 Ry

     iteration #  9     ecut=    60.00 Ry     beta= 0.20
     Davidson diagonalization with overlap
     ethr =  1.02E-05,  avg # of iterations =  2.0

     total cpu time spent up to now is        4.0 secs

     total energy              =   -3163.53354010 Ry
     estimated scf accuracy    <       0.00041206 Ry

     iteration # 10     ecut=    60.00 Ry     beta= 0.20
     Davidson diagonalization with overlap
     ethr =  7.92E-07,  avg # of iterations =  2.0

     total cpu time spent up to now is        4.2 secs

     total energy              =   -3163.53360725 Ry
     estimated scf accuracy    <       0.00001123 Ry

     iteration # 11     ecut=    60.00 Ry     beta= 0.20
     Davidson diagonalization with overlap
     ethr =  2.16E-08,  avg # of iterations =  2.0

     total cpu time spent up to now is        4.5 secs

     total energy              =   -3163.53360720 Ry
     estimated scf accuracy    <       0.00000173 Ry

     iteration # 12     ecut=    60.00 Ry     beta= 0.20
     Davidson diagonalization with overlap
     ethr =  3.34E-09,  avg # of iterations =  2.0

     total cpu time spent up to now is        4.9 secs

     total energy              =   -3163.53360745 Ry
     estimated scf accuracy    <       0.00000006 Ry

     iteration # 13     ecut=    60.00 Ry     beta= 0.20
     Davidson diagonalization with overlap
     ethr =  1.06E-10,  avg # of iterations =  2.0

     total cpu time spent up to now is        5.2 secs

     total energy              =   -3163.53360746 Ry
     estimated scf accuracy    <          3.2E-09 Ry

     iteration # 14     ecut=    60.00 Ry     beta= 0.20
     Davidson diagonalization with overlap
     ethr =  6.13E-12,  avg # of iterations =  2.0

     total cpu time spent up to now is        5.6 secs

     total energy              =   -3163.53360748 Ry
     estimated scf accuracy    <          6.8E-09 Ry

     iteration # 15     ecut=    60.00 Ry     beta= 0.20
     Davidson diagonalization with overlap
     ethr =  6.13E-12,  avg # of iterations =  3.0

     total cpu time spent up to now is        5.9 secs

     End of self-consistent calculation

          k = 0.0000 0.0000 0.0000 ( 52923 PWs)   bands (ev):

  -965.2557-608.2745-608.2745-608.2745-307.4497-307.4497-307.1456-307.1456
  -307.1456-209.3327 -77.5866 -77.5866 -77.5866 -60.8615 -60.8615 -60.8615
   -60.7849 -60.4441 -60.4441 -60.4441 -17.2989  -6.7161  -6.7161  -6.6785
    -6.6785  -6.6785  -1.7318  -1.6423  -1.6423  -1.6423  -0.2404

     the Fermi energy is    -5.1009 ev

!    total energy              =   -3163.53360747 Ry
     estimated scf accuracy    <          9.9E-10 Ry
     smearing contrib. (-TS)   =      -0.00000000 Ry
     internal energy E=F+TS    =   -3163.53360747 Ry

     The total energy is F=E-TS. E is the sum of the following terms:
     one-electron contribution =   -4578.02909389 Ry
     hartree contribution      =    1991.19287564 Ry
     xc contribution           =    -170.70986090 Ry
     ewald contribution        =    -405.98752833 Ry

     convergence has been achieved in  15 iterations

     Writing all to output data dir ./pwscf.save/ :
     XML data file, charge density, pseudopotentials, collected wavefunctions
 
     init_run     :      0.34s CPU      0.44s WALL (       1 calls)
     electrons    :      5.12s CPU      5.43s WALL (       1 calls)

     Called by init_run:
     wfcinit      :      0.07s CPU      0.10s WALL (       1 calls)
     potinit      :      0.06s CPU      0.08s WALL (       1 calls)
     hinit0       :      0.02s CPU      0.04s WALL (       1 calls)

     Called by electrons:
     c_bands      :      3.21s CPU      3.36s WALL (      15 calls)
     sum_band     :      0.72s CPU      0.75s WALL (      15 calls)
     v_of_rho     :      0.83s CPU      0.88s WALL (      16 calls)
     mix_rho      :      0.34s CPU      0.36s WALL (      15 calls)

     Called by c_bands:
     init_us_2    :      0.12s CPU      0.13s WALL (      31 calls)
     cegterg      :      2.90s CPU      3.00s WALL (      15 calls)

     Called by *egterg:
     cdiaghg      :      0.06s CPU      0.07s WALL (      56 calls)
     h_psi        :      2.25s CPU      2.34s WALL (      57 calls)
     g_psi        :      0.01s CPU      0.02s WALL (      41 calls)

     Called by h_psi:
     h_psi:calbec :      0.10s CPU      0.10s WALL (      57 calls)
     vloc_psi     :      1.98s CPU      2.04s WALL (      57 calls)
                                        0.00s GPU  (      57 calls)
     add_vuspsi   :      0.13s CPU      0.14s WALL (      57 calls)

     General routines
     calbec       :      0.10s CPU      0.10s WALL (      57 calls)
     fft          :      0.32s CPU      0.35s WALL (     160 calls)
     ffts         :      0.03s CPU      0.03s WALL (      15 calls)
     fftw         :      1.82s CPU      1.87s WALL (    2961 calls)
 
     Parallel routines
 
     PWSCF        :      5.55s CPU      6.13s WALL

 
   This run was terminated on:  15:10: 9   8Jul2025            

=------------------------------------------------------------------------------=
   JOB DONE.
=------------------------------------------------------------------------------=
