3
water monomer, PBE0/def2-QZVP energy: -76.386381675761
O    -3.2939688    0.4402024    0.1621802
H    -3.8134112    1.2387332    0.2637577
H    -2.3770466    0.7564365    0.1766203
