

 Parallel Execution: Process Information
 ==============================================================================
 Rank   Node Name                              NodeID   MyNodeRank  NodeMaster
    0   adf1                                      0          0          0
    1   adf1                                      0          1         -1
    2   adf1                                      0          2         -1
    3   adf1                                      0          3         -1
    4   adf1                                      0          4         -1
    5   adf1                                      0          5         -1
    6   adf1                                      1          0          1
    7   adf1                                      1          1         -1
    8   adf1                                      1          2         -1
    9   adf1                                      1          3         -1
   10   adf1                                      1          4         -1
   11   adf1                                      1          5         -1
 ==============================================================================


May use up to 11697MB of RAM as shared memory on node 0
May use up to 11718MB of RAM as shared memory on node 1

 *******************************************************************************
 *                                                                             *
 *  --------------------------------                                           *
 *   Amsterdam Modeling Suite (AMS)              2021.105                      *
 *  --------------------------------                                           *
 *                                               r97261 2021-09-16             *
 *                                                                             *
 *                                                                             *
 *                              =================                              *
 *                              |               |                              *
 *                              |     A M S     |                              *
 *                              |               |                              *
 *                              =================                              *
 *                                                                             *
 *                                                                             *
 *   Online information and documentation:  https://www.scm.com/support/       *
 *   E-mail:  support@scm.com   info@scm.com                                   *
 *                                                                             *
 *   Scientific publications using AMS results must be properly referenced     *
 *   See the User Manuals (or the web site) for recommended citations          *
 *   The terms and conditions of the End User License Agreement apply to       *
 *   the use of AMS, https://www.scm.com/license-terms/                        *
 *                                                                             *
 **********************  x86_64_linux_intel / intelmpi  ************************
 
 Licensed to: Dr. Miroslav Ilias / Matej Bel University, Department Chemistry, Fac. Natural Sciences / Banska Bystrica / SLOVAKIA
 SCM User ID: u17848
  
 AMS 2021.105  RunTime: Nov04-2021 21:22:55  ShM Nodes: 2  Procs: 12

 AMS jobname: ams
 AMS jobid  : 1321410951

 Start   directory: /home/milias/Work/projects/open-collection/theoretical_chemistry/projects/lead_water_complexes/adf/Pb_2p/tmp.milias.29377.0.noindex/
 Results directory: /home/milias/Work/projects/open-collection/theoretical_chemistry/projects/lead_water_complexes/adf/Pb_2p/Pb_2p.geoptfreq_srzora_bp86_dzp_sc.results/
 Scratch directory: /tmp/amstmp_ams_kid0.1321410951/


 Communication costs MPI_COMM_WORLD:      2.838 usec per message,   0.0270 usec per 8-byte item
 Communication costs for intra-node:      1.562 usec per message,   0.0131 usec per 8-byte item

 RNG seed: 511561327 1876439090 2088472365 -406609439 -538918012 1677000875 -1877168204 -1380091713



                     *************************************************************************
                     *  ADF 2021.105  RunTime: Nov04-2021 21:22:56  ShM Nodes: 2  Procs: 12  *
                     *************************************************************************
  
       ***************************
       *  GEOMETRY OPTIMIZATION  *
       ***************************

Optimization Method                    Quasi Newton
Optimization Coordinates               Delocalized Coordinates
Optimize lattice                       F
 
 ------------------------------------------------------
 Convergence criteria (Hartree,Angstrom)
 ------------------------------------------------------
 Maximum gradient               0.001000000000
 Maximum rms gradient           0.000666666667
 Maximum step allowed           0.010000000000
 Maximum rms step allowed       0.006666666667
 Maximum energy change allowe   0.000010000000
 Maximum stress energy allowe   0.000500000000
 
Initial model Hessian                  Automatic Hessian
 
------------------------------------
Quasi-Newton Optimizer Parameters
------------------------------------
Hessian Update Method                  BFGS
Maximum number of steps                  250
First GDIIS cycle                          0
Maximum GDIIS vectors                      0
Trust radius (bohr)                        0.200000
Trust radius varies                        T
Constraints converged at all steps         T
Use projector                              T
 
 Rigid motions settings for: old optimizer
 Atomic rotations (x,y,z):     T T T
 Atomic translations (x,y,z):  T T T
 Tolerance:                   1.000000000000000E-006
 
--------
Geometry
--------
Formula: Pb
Atoms
  Index Symbol   x (angstrom)   y (angstrom)   z (angstrom)
      1     Pb     0.00000000     0.00000000     0.00000000
 
Total System Charge             2.00000
 
 
----------------
ADF Engine Input
----------------
 
 Basis
 Type DZP
 Core Small
 End
 XC
 GGA BP86
 End
 

 Title: *** (NO TITLE) ***

 *** SkipGO ***



 ===========================
 A T T A C H E D   F I L E S
 ===========================
  



 ===============================
 M O D E L   P A R A M E T E R S
 ===============================
  
 DENSITY FUNCTIONAL POTENTIAL (scf)
    LDA:                               VWN                                      
    Gradient Corrections:              Becke88 Perdew86                        == Not Default ==

 SPIN  (restricted / unrestr.)
    Molecule:                          Restricted                               
    Fragments:                         Restricted                               

 OTHER ASPECTS
    Relativistic Corrections:          scalar (ZORA,MAPA)                       

    Nuclear Charge Density Model:      Point Charge Nuclei                      
    Core Treatment:                    Frozen Orbital(s)                        

    Hyperfine or Zeeman Interaction:   ---                                      


 Fragment File(s)
 ----------------
 Pb:
         file : /home/milias/Work/projects/open-collection/theoretical_chemistry/projects/lead_water_complexes/adf/Pb_2p/Pb_2p.geoptfreq_srzora_bp86_dzp_sc.results/t21.6A04AC00.Pb
         jobid: 0
         title: Lead (TZP, 4d frozen)



 ===============
 G E O M E T R Y  ***  Single Atom  ***
 ===============
  

 ATOMS
 =====                            X Y Z                    CHARGE
                                (Angstrom)             Nucl     +Core       At.Mass
                       --------------------------    ----------------       -------
    1  Pb              0.0000    0.0000    0.0000     82.00     36.00      207.9766


 FRAGMENTS
 =========                                     Atoms in this Fragment     Cart. coord.s (Angstrom)
                                               -------------------------------------------------------
    1  Pb                                                1  Pb           0.0000    0.0000    0.0000



 =====================================
 S Y M M E T R Y ,   E L E C T R O N S
 =====================================
  
 Symmetry: ATOM

 Irreducible Representations, including subspecies
 -------------------------------------------------
 S
 P:x  P:y  P:z
 D:z2  D:x2-y2  D:xy  D:xz  D:yz
 F:z3  F:z  F:xyz  F:z2x  F:z2y  F:x  F:y


 Configuration of Valence Electrons
 ==================================
 ( determined in the SCF procedure )

 Total:   34

 Net Charge: 2 (Nuclei minus Electrons)

 Aufbau principle for MO occupations will be applied through SCF cycle no.     150
 Thereafter, the program will assign electrons to MOs that are spatially
 similar to the occupied MOs in a "reference" cycle ("KeepOrbitals").
 The reference cycle is always the PREVIOUS cycle: it will evolve with
 the SCF procedure.
1
 ***************************************************************************************************



                                      ****************************************
                                      *  B U I L D : (Fragments, Functions)  *
                                      ****************************************
  

 Total nr. of (C)SFOs (summation over all irreps) :    57

 Specify PRINT SFO in the input file to get a full list

 Nr. of SFOs for ir.rep.           S :     6
 Nr. of SFOs for ir.rep.         P:x :     5
 Nr. of SFOs for ir.rep.         P:y :     5
 Nr. of SFOs for ir.rep.         P:z :     5
 Nr. of SFOs for ir.rep.        D:z2 :     3
 Nr. of SFOs for ir.rep.     D:x2-y2 :     3
 Nr. of SFOs for ir.rep.        D:xy :     3
 Nr. of SFOs for ir.rep.        D:xz :     3
 Nr. of SFOs for ir.rep.        D:yz :     3
 Nr. of SFOs for ir.rep.        F:z3 :     3
 Nr. of SFOs for ir.rep.         F:z :     3
 Nr. of SFOs for ir.rep.       F:xyz :     3
 Nr. of SFOs for ir.rep.       F:z2x :     3
 Nr. of SFOs for ir.rep.       F:z2y :     3
 Nr. of SFOs for ir.rep.         F:x :     3
 Nr. of SFOs for ir.rep.         F:y :     3



 ================================
 (Slater-type)  F U N C T I O N S  ***  (Basis and Fit)  ***
 ================================
  

 Atom Type    1  (Pb)
 ==============

 Valence Basis Sets:  26
 -----------------------
   1 S   60.000000
   2 S   37.900000
   3 S   22.100000
   4 S   13.150000
   2 P   38.650000
   3 P   20.600000
   4 P   12.450000
   3 D   23.450000
   4 D   11.600000
   1 S  196.000000
   5 S    7.650000
   5 S    5.200000
   6 S    3.700000
   6 S    2.400000
   6 S    1.580000
   5 P    6.600000
   5 P    4.200000
   6 P    2.700000
   6 P    1.600000
   6 P    0.960000
   5 D    6.000000
   5 D    3.650000
   5 D    2.200000
   4 F   17.560000
   4 F    9.950000
   4 F    5.750000

 Frozen Core Shells
 ------------------
    S:  4
    P:  3
    D:  2


 BAS: List of all Elementary Cartesian Basis Functions
 =====================================================

 The numbering in the list below (to the right of the function characteristics) is referred
 to in print-outs of MO eigenvectors and Mulliken populations in the BAS representation
 (as contrasted to the SFO representation).

 Notes:
 1. The functions are characterized by a polynomial prefactor (powers of x,y,z and r) and
    an exponential decay factor alpha.
 2. Since the basis sets are specific for an atom TYPE, the individual functions occur on
    all atoms of that type.
 3. The word 'Core' in the left margin signals that it is a Core Function (CF) : not a
    degree of freedom in the valence set, but only used to ensure orthogonalization of
    the other valence basis functions on the frozen Core Orbitals.


 (power of) X  Y  Z  R     Alpha  on Atom
            ==========     =====     ==========

 Pb                                   1
                                  ---------------------------------------------------------------------------
    Core    0  0  0  0    60.000      1
    Core    0  0  0  1    37.900      2
    Core    0  0  0  2    22.100      3
    Core    0  0  0  3    13.150      4
    Core    1  0  0  0    38.650      5
    Core    0  1  0  0    38.650      6
    Core    0  0  1  0    38.650      7
    Core    1  0  0  1    20.600      8
    Core    0  1  0  1    20.600      9
    Core    0  0  1  1    20.600     10
    Core    1  0  0  2    12.450     11
    Core    0  1  0  2    12.450     12
    Core    0  0  1  2    12.450     13
    Core    2  0  0  0    23.450     14
    Core    1  1  0  0    23.450     15
    Core    1  0  1  0    23.450     16
    Core    0  2  0  0    23.450     17
    Core    0  1  1  0    23.450     18
    Core    0  0  2  0    23.450     19
    Core    2  0  0  1    11.600     20
    Core    1  1  0  1    11.600     21
    Core    1  0  1  1    11.600     22
    Core    0  2  0  1    11.600     23
    Core    0  1  1  1    11.600     24
    Core    0  0  2  1    11.600     25
            0  0  0  0   196.000     26
            0  0  0  4     7.650     27
            0  0  0  4     5.200     28
            0  0  0  5     3.700     29
            0  0  0  5     2.400     30
            0  0  0  5     1.580     31
            1  0  0  3     6.600     32
            0  1  0  3     6.600     33
            0  0  1  3     6.600     34
            1  0  0  3     4.200     35
            0  1  0  3     4.200     36
            0  0  1  3     4.200     37
            1  0  0  4     2.700     38
            0  1  0  4     2.700     39
            0  0  1  4     2.700     40
            1  0  0  4     1.600     41
            0  1  0  4     1.600     42
            0  0  1  4     1.600     43
            1  0  0  4     0.960     44
            0  1  0  4     0.960     45
            0  0  1  4     0.960     46
            2  0  0  2     6.000     47
            1  1  0  2     6.000     48
            1  0  1  2     6.000     49
            0  2  0  2     6.000     50
            0  1  1  2     6.000     51
            0  0  2  2     6.000     52
            2  0  0  2     3.650     53
            1  1  0  2     3.650     54
            1  0  1  2     3.650     55
            0  2  0  2     3.650     56
            0  1  1  2     3.650     57
            0  0  2  2     3.650     58
            2  0  0  2     2.200     59
            1  1  0  2     2.200     60
            1  0  1  2     2.200     61
            0  2  0  2     2.200     62
            0  1  1  2     2.200     63
            0  0  2  2     2.200     64
            3  0  0  0    17.560     65
            2  1  0  0    17.560     66
            2  0  1  0    17.560     67
            1  2  0  0    17.560     68
            1  1  1  0    17.560     69
            1  0  2  0    17.560     70
            0  3  0  0    17.560     71
            0  2  1  0    17.560     72
            0  1  2  0    17.560     73
            0  0  3  0    17.560     74
            3  0  0  0     9.950     75
            2  1  0  0     9.950     76
            2  0  1  0     9.950     77
            1  2  0  0     9.950     78
            1  1  1  0     9.950     79
            1  0  2  0     9.950     80
            0  3  0  0     9.950     81
            0  2  1  0     9.950     82
            0  1  2  0     9.950     83
            0  0  3  0     9.950     84
            3  0  0  0     5.750     85
            2  1  0  0     5.750     86
            2  0  1  0     5.750     87
            1  2  0  0     5.750     88
            1  1  1  0     5.750     89
            1  0  2  0     5.750     90
            0  3  0  0     5.750     91
            0  2  1  0     5.750     92
            0  1  2  0     5.750     93
            0  0  3  0     5.750     94

 Total number of charge fitting functions (nprimf)       342
 Total number of Cartesian basis functions (naos)         94
 Total number of Cartesian core functions  (ncos)         25

1
 ***************************************************************************************************



                                              ***********************
                                              *  T E C H N I C A L  *
                                              ***********************
  



 =============================================================
 P A R A L L E L I Z A T I O N  and  V E C T O R I Z A T I O N
 =============================================================
  
 Nr of parallel processes:                               12
 Maximum vector length in NumInt loops:                 128



 =====================
 S C F   U P D A T E S
 =====================
  
 Max. nr. of cycles:                               300
 Convergence criterion:                              0.0000010000
   secondary criterion:                              0.0010000000

 Mix parameter (when DIIS does not apply):           0.2000000000
 Mixed ADIIS+SDIIS will be used                  
    Max number of expansion vectors:                10
    Pure ADIIS when Max([F,P]) is above              0.1000000000
    Pure SDIIS when Max([F,P]) is below              0.0010000000
 Automatic ElectronSmearing (in case of problematic SCF convergence) disabled



 =================
 P R E C I S I O N  ***  (General: NumInt, NeglectFunctionTails, ...)  ***
 =================
  

 NumInt:           Target precision:                 4.0000000000
 -------           Initial precision:                4.0000000000
                   Min. precision (optimization):    4.0000000000

 Neglect Functions:          Basis functions:        0.1000000000E-05
 ------------------          Fit functions:          0.1000000000E-05



 ===========================
 L I N E A R   S C A L I N G
 ===========================
  

 Cut-off radii density fit:                        0.1000000000E-07
 Overlap cut-off criterion AO matrix elements:     0.1000000000E-05
 Cut-offs for Coulomb potential and fitted density:0.1000000000E-07
 Cut-off criterion for Coulomb multipole terms:    0.1000000000E-07
 Progressive Convergence parameter:                 0.000000000    
1
 ***************************************************************************************************



                                            ***************************
                                            *  C O M P U T A T I O N  *
                                            ***************************
  

 Number of elements of the density matrix on this node (used, total):      4465      4465



 ===========================================
 Numerical Integration : Fuzzy Cells (Becke)
 ===========================================
  
 Becke grid quality: NORMAL         
  
 Lebedev angular grid order:             min:  11 max:  23
 Nr. of radial points:                   min: 123 max: 123

 Total nr. of points:        123
 Nr. of blocks:                1
 Block length:               123
 Nr. of dummy points:          0


 Test of Precision of the Numerical Integration Grid
 ===================================================

 Integral of the Total Core Density:                  46.00000002977841
 Relative Error:                                       6.474E-10



 ========================
 Density Fitting (zlmFit)
 ========================
  
 ZlmFit Fit Quality: NORMAL         
  
 Max L-expansion:                        min:   7 max:   7
 Nr. of radial interpolation points:     min: 114 max: 114



 =====
 S C F  ***  ScaSCF  ***
 =====
  
 Initial density matrix is calculated as sum of fragments

 CYCLE    1
 Orbital Data from active fragment used
 SCF Error: norm([F,P])=      0.001382746855, max([F,P])=      0.000403160539
 orbitals (Q,E):
 ---------------
 S :1...6            ( 2.00    -5.2569)  ( 2.00    -0.4446)  ( 0.00     0.0627)  ( 0.00     0.9554)
                     ( 0.00     5.7133)  ( 0.00  3692.8819)
 P :1...5            ( 6.00    -3.1392)  ( 0.00    -0.1336)  ( 0.00     0.0444)  ( 0.00     0.4260)
                     ( 0.00     3.0555)
 D :1...3            (10.00    -0.7859)  ( 0.00     0.4271)  ( 0.00     3.3986)
 F :1...3            (14.00    -4.9332)  ( 0.00     4.2947)  ( 0.00    36.9579)

 CYCLE    2
   MIX coefficients:  0.8000  0.2000
 SCF Error: norm([F,P])=      0.248488816479, max([F,P])=      0.148417556923
 orbitals (Q,E):
 ---------------
 S :1...3            ( 2.00    -5.3977)  ( 2.00    -0.5638)  ( 0.00    -0.0155)
 P :1...2            ( 6.00    -3.2790)  ( 0.00    -0.2340)
 D :1...2            (10.00    -0.9219)  ( 0.00     0.3175)
 F :1...2            (14.00    -5.0777)  ( 0.00     4.1536)

 CYCLE    3
  SDIIS (wt  0.000): -1.1049  2.1049
 A-DIIS (wt  1.000):  0.0000  1.0000
  DIIS coefficients:  0.0000  1.0000
 SCF Error: norm([F,P])=      0.154313751738, max([F,P])=      0.104438405865
 orbitals (Q,E):
 ---------------
 S :1...3            ( 2.00    -5.9258)  ( 2.00    -1.0347)  ( 0.00    -0.3237)
 P :1...2            ( 6.00    -3.8055)  ( 0.00    -0.6513)
 D :1...2            (10.00    -1.4409)  ( 0.00    -0.1111)
 F :1...2            (14.00    -5.6097)  ( 0.00     3.6254)

 CYCLE    4
  SDIIS (wt  0.634):  1.7773 -2.0000  1.2227
 A-DIIS (wt  0.366):  0.0000  0.0000  1.0000
  DIIS coefficients:  1.1265 -1.2676  1.1411
 SCF Error: norm([F,P])=      0.150802768317, max([F,P])=      0.037252007835
 orbitals (Q,E):
 ---------------
 S :1...3            ( 2.00    -5.8622)  ( 2.00    -1.0101)  ( 0.00    -0.3137)
 P :1...2            ( 6.00    -3.7467)  ( 0.00    -0.6327)
 D :1...2            (10.00    -1.3934)  ( 0.00    -0.0909)
 F :1...2            (14.00    -5.5320)  ( 0.00     3.6898)

 CYCLE    5
  SDIIS (wt  0.817): -0.8787  1.2322 -0.0369  0.6833
 A-DIIS (wt  0.183):  0.0000  0.0000  0.0870  0.9130
  DIIS coefficients: -0.7182  1.0072 -0.0142  0.7253
 SCF Error: norm([F,P])=      0.085252487336, max([F,P])=      0.019083304950
 orbitals (Q,E):
 ---------------
 S :1...3            ( 2.00    -5.8734)  ( 2.00    -1.0103)  ( 0.00    -0.3116)
 P :1...2            ( 6.00    -3.7557)  ( 0.00    -0.6322)
 D :1...2            (10.00    -1.3984)  ( 0.00    -0.0911)
 F :1...2            (14.00    -5.5529)  ( 0.00     3.6777)

 CYCLE    6
  SDIIS (wt  0.972): -0.0523  0.0783  0.0568  0.2390  0.6782
 A-DIIS (wt  0.028):  0.0000  0.0000  0.0000  0.0000  1.0000
  DIIS coefficients: -0.0508  0.0760  0.0551  0.2322  0.6873
 SCF Error: norm([F,P])=      0.014094409792, max([F,P])=      0.003815249509
 orbitals (Q,E):
 ---------------
 S :1...3            ( 2.00    -5.8724)  ( 2.00    -1.0101)  ( 0.00    -0.3118)
 P :1...2            ( 6.00    -3.7548)  ( 0.00    -0.6320)
 D :1...2            (10.00    -1.3979)  ( 0.00    -0.0908)
 F :1...2            (14.00    -5.5502)  ( 0.00     3.6790)

 CYCLE    7
  SDIIS (wt  1.000):  0.0003 -0.0005  0.0038  0.0043  0.0291  0.9630
  DIIS coefficients:  0.0003 -0.0005  0.0038  0.0043  0.0291  0.9630
 SCF Error: norm([F,P])=      0.000574484112, max([F,P])=      0.000125792449
 orbitals (Q,E):
 ---------------
 S :1...3            ( 2.00    -5.8725)  ( 2.00    -1.0101)  ( 0.00    -0.3118)
 P :1...2            ( 6.00    -3.7549)  ( 0.00    -0.6320)
 D :1...2            (10.00    -1.3980)  ( 0.00    -0.0908)
 F :1...2            (14.00    -5.5503)  ( 0.00     3.6789)

 CYCLE    8
  SDIIS (wt  1.000):  0.0001 -0.0001  0.0000 -0.0000  0.0014  0.0069  0.9918
  DIIS coefficients:  0.0001 -0.0001  0.0000 -0.0000  0.0014  0.0069  0.9918
 SCF Error: norm([F,P])=      0.000014052903, max([F,P])=      0.000004181709
 orbitals (Q,E):
 ---------------
 S :1...3            ( 2.00    -5.8725)  ( 2.00    -1.0101)  ( 0.00    -0.3118)
 P :1...2            ( 6.00    -3.7549)  ( 0.00    -0.6320)
 D :1...2            (10.00    -1.3980)  ( 0.00    -0.0908)
 F :1...2            (14.00    -5.5503)  ( 0.00     3.6789)

 CYCLE    9
  SDIIS (wt  1.000): -0.0000  0.0000 -0.0000  0.0000  0.0000  0.0001  0.0110  0.9889
  DIIS coefficients: -0.0000  0.0000 -0.0000  0.0000  0.0000  0.0001  0.0110  0.9889
 SCF Error: norm([F,P])=      0.000000132704, max([F,P])=      0.000000042879
 orbitals (Q,E):
 ---------------
 S :1...3            ( 2.00    -5.8725)  ( 2.00    -1.0101)  ( 0.00    -0.3118)
 P :1...2            ( 6.00    -3.7549)  ( 0.00    -0.6320)
 D :1...2            (10.00    -1.3980)  ( 0.00    -0.0908)
 F :1...2            (14.00    -5.5503)  ( 0.00     3.6789)

 SCF CONVERGED

 CYCLE   10
 *** Using FIT density in Focky
  SDIIS (wt  1.000):  0.0000  0.0002  0.0270  0.9729
  DIIS coefficients:  0.0000  0.0002  0.0270  0.9729
 SCF Error: norm([F,P])=      0.000000001826, max([F,P])=      0.000000001013
 orbitals (Q,E):
 ---------------
 S :1...6            ( 2.00    -5.8725)  ( 2.00    -1.0101)  ( 0.00    -0.3118)  ( 0.00     0.4566)
                     ( 0.00     5.1238)  ( 0.00  3692.4136)
 P :1...5            ( 6.00    -3.7549)  ( 0.00    -0.6320)  ( 0.00    -0.2404)  ( 0.00     0.0190)
                     ( 0.00     2.4806)
 D :1...3            (10.00    -1.3980)  ( 0.00    -0.0908)  ( 0.00     2.8088)
 F :1...3            (14.00    -5.5503)  ( 0.00     3.6789)  ( 0.00    36.3421)


 Fit test: (difference of exact and fit density, squared integrated, result summed over spins)
         SCF:                                          0.00000037844294

 Gross Charges per Atom (Z minus electrons)
 ==========================================
             2.0000
 Net Total:  2.00000000



 =================================================================
 M U L T I P O L E   D E R I V E D   C H A R G E   A N A L Y S I S
 =================================================================

 See: M. Swart, P.Th. van Duijnen, J.G. Snijders, J.Comput.Chem., (2001), p. 79-88.

 --------------------------------------- 
 Multipole derived atomic charges (a.u.)
 --------------------------------------- 

        Atom    Level:     MDC-m        MDC-d        MDC-q
 ---------------------------------------------------------
     1     Pb           2.000000     2.000000     2.000000



 =======================================================================
 Electrostatic potential at the Nuclei due to electrons and other nuclei
 =======================================================================
  
         Atom                  Potential
         ----                  ---------
     1)   Pb                644.89560992
 Mulliken charges used for AMS results%charges...
Performing a single point calculation on the final geometry ...

 *** adf ***



 ===========================
 A T T A C H E D   F I L E S
 ===========================
  
 Restart/tmp/amstmp_ams_kid0.1321410951/SkipGO.rkf*** SkipGO ***



 ===============================
 M O D E L   P A R A M E T E R S
 ===============================
  
 DENSITY FUNCTIONAL POTENTIAL (scf)
    LDA:                               VWN                                      
    Gradient Corrections:              Becke88 Perdew86                        == Not Default ==

 SPIN  (restricted / unrestr.)
    Molecule:                          Restricted                               
    Fragments:                         Restricted                               

 OTHER ASPECTS
    Relativistic Corrections:          scalar (ZORA,MAPA)                       

    Nuclear Charge Density Model:      Point Charge Nuclei                      
    Core Treatment:                    Frozen Orbital(s)                        

    Hyperfine or Zeeman Interaction:   ---                                      



 ===============
 G E O M E T R Y  ***  Single Atom  ***
 ===============
  

 ATOMS
 =====                            X Y Z                    CHARGE
                                (Angstrom)             Nucl     +Core       At.Mass
                       --------------------------    ----------------       -------
    1  Pb              0.0000    0.0000    0.0000     82.00     36.00      207.9766


 FRAGMENTS
 =========                                     Atoms in this Fragment     Cart. coord.s (Angstrom)
                                               -------------------------------------------------------
    1  Pb                                                1  Pb           0.0000    0.0000    0.0000



 =====================================
 S Y M M E T R Y ,   E L E C T R O N S
 =====================================
  
 Symmetry: ATOM

 Irreducible Representations, including subspecies
 -------------------------------------------------
 S
 P:x  P:y  P:z
 D:z2  D:x2-y2  D:xy  D:xz  D:yz
 F:z3  F:z  F:xyz  F:z2x  F:z2y  F:x  F:y


 Configuration of Valence Electrons
 ==================================
 ( determined in the SCF procedure )

 Total:   34

 Net Charge: 2 (Nuclei minus Electrons)

 Aufbau principle for MO occupations will be applied through SCF cycle no.     150
 Thereafter, the program will assign electrons to MOs that are spatially
 similar to the occupied MOs in a "reference" cycle ("KeepOrbitals").
 The reference cycle is always the PREVIOUS cycle: it will evolve with
 the SCF procedure.
1
 ***************************************************************************************************



                                      ****************************************
                                      *  B U I L D : (Fragments, Functions)  *
                                      ****************************************
  



 =======
 S F O s  ***  (Symmetrized Fragment Orbitals)  ***
 =======
  
 SFOs are linear combinations of (valence) Fragment Orbitals (FOs), such that the SFOs transform as the
 irreducible representations of the (molecular) symmetry group. Each SFO is therefore characterized by
 an irrep of the molecule and by a few (or only one) generating FOs.
 The SFOs constitute a symmetry-adapted basis for the Fock matrix. The MO eigenvector coefficients in
 this basis provide a direct interpretation of the MOs in terms of Frontier Orbital Theory.

 The SFOs are combined with auxiliary Core Functions (CFs) to ensure orthogonalization on the (frozen)
 Core Orbitals (COs). The Core-orthogonalized SFOs (CSFOs) constitute the true Fock basis.

 The FOs, and hence also the (C)SFOs are combinations of the elementary basis functions (BAS). The basis
 functions that participate in the description of the SFOs depend on the irrep. The indices of the
 involved functions are printed below for each irrep.
 (The complete list of primitive basis functions is printed in another section)

 Total nr. of (C)SFOs (summation over all irreps) :    57

 NOTE: a (C)SFO that is defined as a combination of more than one FO is usually NOT normalized.



                                       === S ===
 Nr. of SFOs :    6
 Cartesian basis functions that participate in this irrep (total number =    10) :
      1     2     3     4    26    27    28    29    30    31

    SFO  (index         Fragment          Generating    Expansion in Fragment Orbitals
  indx  incl.CFs)   Occup   Orb.Energy   FragmentType  Coeff.   Orbital     on Fragment
 --------------------------------------------------------------------------------------
     1       5      2.000      -5.257 au  Pb            1.00      1 S               1
                        (    -143.049 eV)
     2       6      2.000      -0.444 au  Pb            1.00      2 S               1
                        (     -12.093 eV)
     3       7       --         0.063 au  Pb            1.00      3 S               1
                        (       1.706 eV)
     4       8       --         0.955 au  Pb            1.00      4 S               1
                        (      25.999 eV)
     5       9       --         5.713 au  Pb            1.00      5 S               1
                        (     155.468 eV)
     6      10       --      3692.882 au  Pb            1.00      6 S               1
                        (  100488.432 eV)



                                       === P:x ===
 Nr. of SFOs :    5
 Cartesian basis functions that participate in this irrep (total number =     8) :
      5     8    11    32    35    38    41    44

    SFO  (index         Fragment          Generating    Expansion in Fragment Orbitals
  indx  incl.CFs)   Occup   Orb.Energy   FragmentType  Coeff.   Orbital     on Fragment
 --------------------------------------------------------------------------------------
     1       4      2.000      -3.139 au  Pb            1.00      1 P:x             1
                        (     -85.422 eV)
     2       5      0.667      -0.133 au  Pb            1.00      2 P:x             1
                        (      -3.632 eV)
     3       6       --         0.045 au  Pb            1.00      3 P:x             1
                        (       1.212 eV)
     4       7       --         0.426 au  Pb            1.00      4 P:x             1
                        (      11.596 eV)
     5       8       --         3.056 au  Pb            1.00      5 P:x             1
                        (      83.146 eV)



                                       === P:y ===
 Nr. of SFOs :    5
 Cartesian basis functions that participate in this irrep (total number =     8) :
      6     9    12    33    36    39    42    45

    SFO  (index         Fragment          Generating    Expansion in Fragment Orbitals
  indx  incl.CFs)   Occup   Orb.Energy   FragmentType  Coeff.   Orbital     on Fragment
 --------------------------------------------------------------------------------------
     1       4      2.000      -3.139 au  Pb            1.00      1 P:y             1
                        (     -85.422 eV)
     2       5      0.667      -0.133 au  Pb            1.00      2 P:y             1
                        (      -3.632 eV)
     3       6       --         0.045 au  Pb            1.00      3 P:y             1
                        (       1.212 eV)
     4       7       --         0.426 au  Pb            1.00      4 P:y             1
                        (      11.596 eV)
     5       8       --         3.056 au  Pb            1.00      5 P:y             1
                        (      83.146 eV)



                                       === P:z ===
 Nr. of SFOs :    5
 Cartesian basis functions that participate in this irrep (total number =     8) :
      7    10    13    34    37    40    43    46

    SFO  (index         Fragment          Generating    Expansion in Fragment Orbitals
  indx  incl.CFs)   Occup   Orb.Energy   FragmentType  Coeff.   Orbital     on Fragment
 --------------------------------------------------------------------------------------
     1       4      2.000      -3.139 au  Pb            1.00      1 P:z             1
                        (     -85.422 eV)
     2       5      0.667      -0.133 au  Pb            1.00      2 P:z             1
                        (      -3.632 eV)
     3       6       --         0.045 au  Pb            1.00      3 P:z             1
                        (       1.212 eV)
     4       7       --         0.426 au  Pb            1.00      4 P:z             1
                        (      11.596 eV)
     5       8       --         3.056 au  Pb            1.00      5 P:z             1
                        (      83.146 eV)



                                       === D:z2 ===
 Nr. of SFOs :    3
 Cartesian basis functions that participate in this irrep (total number =    15) :
     14    17    19    20    23    25    47    50    52    53
     56    58    59    62    64

    SFO  (index         Fragment          Generating    Expansion in Fragment Orbitals
  indx  incl.CFs)   Occup   Orb.Energy   FragmentType  Coeff.   Orbital     on Fragment
 --------------------------------------------------------------------------------------
     1       7      2.000      -0.786 au  Pb            1.00      1 D:z2            1
                        (     -21.381 eV)
     2       8       --         0.427 au  Pb            1.00      2 D:z2            1
                        (      11.626 eV)
     3       9       --         3.399 au  Pb            1.00      3 D:z2            1
                        (      92.482 eV)



                                       === D:x2-y2 ===
 Nr. of SFOs :    3
 Cartesian basis functions that participate in this irrep (total number =    10) :
     14    17    20    23    47    50    53    56    59    62

    SFO  (index         Fragment          Generating    Expansion in Fragment Orbitals
  indx  incl.CFs)   Occup   Orb.Energy   FragmentType  Coeff.   Orbital     on Fragment
 --------------------------------------------------------------------------------------
     1       5      2.000      -0.786 au  Pb            1.00      1 D:x2-y2         1
                        (     -21.381 eV)
     2       6       --         0.427 au  Pb            1.00      2 D:x2-y2         1
                        (      11.626 eV)
     3       7       --         3.399 au  Pb            1.00      3 D:x2-y2         1
                        (      92.482 eV)



                                       === D:xy ===
 Nr. of SFOs :    3
 Cartesian basis functions that participate in this irrep (total number =     5) :
     15    21    48    54    60

    SFO  (index         Fragment          Generating    Expansion in Fragment Orbitals
  indx  incl.CFs)   Occup   Orb.Energy   FragmentType  Coeff.   Orbital     on Fragment
 --------------------------------------------------------------------------------------
     1       3      2.000      -0.786 au  Pb            1.00      1 D:xy            1
                        (     -21.381 eV)
     2       4       --         0.427 au  Pb            1.00      2 D:xy            1
                        (      11.626 eV)
     3       5       --         3.399 au  Pb            1.00      3 D:xy            1
                        (      92.482 eV)



                                       === D:xz ===
 Nr. of SFOs :    3
 Cartesian basis functions that participate in this irrep (total number =     5) :
     16    22    49    55    61

    SFO  (index         Fragment          Generating    Expansion in Fragment Orbitals
  indx  incl.CFs)   Occup   Orb.Energy   FragmentType  Coeff.   Orbital     on Fragment
 --------------------------------------------------------------------------------------
     1       3      2.000      -0.786 au  Pb            1.00      1 D:xz            1
                        (     -21.381 eV)
     2       4       --         0.427 au  Pb            1.00      2 D:xz            1
                        (      11.626 eV)
     3       5       --         3.399 au  Pb            1.00      3 D:xz            1
                        (      92.482 eV)



                                       === D:yz ===
 Nr. of SFOs :    3
 Cartesian basis functions that participate in this irrep (total number =     5) :
     18    24    51    57    63

    SFO  (index         Fragment          Generating    Expansion in Fragment Orbitals
  indx  incl.CFs)   Occup   Orb.Energy   FragmentType  Coeff.   Orbital     on Fragment
 --------------------------------------------------------------------------------------
     1       3      2.000      -0.786 au  Pb            1.00      1 D:yz            1
                        (     -21.381 eV)
     2       4       --         0.427 au  Pb            1.00      2 D:yz            1
                        (      11.626 eV)
     3       5       --         3.399 au  Pb            1.00      3 D:yz            1
                        (      92.482 eV)



                                       === F:z3 ===
 Nr. of SFOs :    3
 Cartesian basis functions that participate in this irrep (total number =     9) :
     67    72    74    77    82    84    87    92    94

    SFO  (index         Fragment          Generating    Expansion in Fragment Orbitals
  indx  incl.CFs)   Occup   Orb.Energy   FragmentType  Coeff.   Orbital     on Fragment
 --------------------------------------------------------------------------------------
     1       1      2.000      -4.933 au  Pb            1.00      1 F:z3            1
                        (    -134.237 eV)
     2       2       --         4.295 au  Pb            1.00      2 F:z3            1
                        (     116.866 eV)
     3       3       --        36.958 au  Pb            1.00      3 F:z3            1
                        (    1005.677 eV)



                                       === F:z ===
 Nr. of SFOs :    3
 Cartesian basis functions that participate in this irrep (total number =     6) :
     67    72    77    82    87    92

    SFO  (index         Fragment          Generating    Expansion in Fragment Orbitals
  indx  incl.CFs)   Occup   Orb.Energy   FragmentType  Coeff.   Orbital     on Fragment
 --------------------------------------------------------------------------------------
     1       1      2.000      -4.933 au  Pb            1.00      1 F:z             1
                        (    -134.237 eV)
     2       2       --         4.295 au  Pb            1.00      2 F:z             1
                        (     116.866 eV)
     3       3       --        36.958 au  Pb            1.00      3 F:z             1
                        (    1005.677 eV)



                                       === F:xyz ===
 Nr. of SFOs :    3
 Cartesian basis functions that participate in this irrep (total number =     3) :
     69    79    89

    SFO  (index         Fragment          Generating    Expansion in Fragment Orbitals
  indx  incl.CFs)   Occup   Orb.Energy   FragmentType  Coeff.   Orbital     on Fragment
 --------------------------------------------------------------------------------------
     1       1      2.000      -4.933 au  Pb            1.00      1 F:xyz           1
                        (    -134.237 eV)
     2       2       --         4.295 au  Pb            1.00      2 F:xyz           1
                        (     116.866 eV)
     3       3       --        36.958 au  Pb            1.00      3 F:xyz           1
                        (    1005.677 eV)



                                       === F:z2x ===
 Nr. of SFOs :    3
 Cartesian basis functions that participate in this irrep (total number =     9) :
     65    68    70    75    78    80    85    88    90

    SFO  (index         Fragment          Generating    Expansion in Fragment Orbitals
  indx  incl.CFs)   Occup   Orb.Energy   FragmentType  Coeff.   Orbital     on Fragment
 --------------------------------------------------------------------------------------
     1       1      2.000      -4.933 au  Pb            1.00      1 F:z2x           1
                        (    -134.237 eV)
     2       2       --         4.295 au  Pb            1.00      2 F:z2x           1
                        (     116.866 eV)
     3       3       --        36.958 au  Pb            1.00      3 F:z2x           1
                        (    1005.677 eV)



                                       === F:z2y ===
 Nr. of SFOs :    3
 Cartesian basis functions that participate in this irrep (total number =     9) :
     66    71    73    76    81    83    86    91    93

    SFO  (index         Fragment          Generating    Expansion in Fragment Orbitals
  indx  incl.CFs)   Occup   Orb.Energy   FragmentType  Coeff.   Orbital     on Fragment
 --------------------------------------------------------------------------------------
     1       1      2.000      -4.933 au  Pb            1.00      1 F:z2y           1
                        (    -134.237 eV)
     2       2       --         4.295 au  Pb            1.00      2 F:z2y           1
                        (     116.866 eV)
     3       3       --        36.958 au  Pb            1.00      3 F:z2y           1
                        (    1005.677 eV)



                                       === F:x ===
 Nr. of SFOs :    3
 Cartesian basis functions that participate in this irrep (total number =     6) :
     65    68    75    78    85    88

    SFO  (index         Fragment          Generating    Expansion in Fragment Orbitals
  indx  incl.CFs)   Occup   Orb.Energy   FragmentType  Coeff.   Orbital     on Fragment
 --------------------------------------------------------------------------------------
     1       1      2.000      -4.933 au  Pb            1.00      1 F:x             1
                        (    -134.237 eV)
     2       2       --         4.295 au  Pb            1.00      2 F:x             1
                        (     116.866 eV)
     3       3       --        36.958 au  Pb            1.00      3 F:x             1
                        (    1005.677 eV)



                                       === F:y ===
 Nr. of SFOs :    3
 Cartesian basis functions that participate in this irrep (total number =     6) :
     66    71    76    81    86    91

    SFO  (index         Fragment          Generating    Expansion in Fragment Orbitals
  indx  incl.CFs)   Occup   Orb.Energy   FragmentType  Coeff.   Orbital     on Fragment
 --------------------------------------------------------------------------------------
     1       1      2.000      -4.933 au  Pb            1.00      1 F:y             1
                        (    -134.237 eV)
     2       2       --         4.295 au  Pb            1.00      2 F:y             1
                        (     116.866 eV)
     3       3       --        36.958 au  Pb            1.00      3 F:y             1
                        (    1005.677 eV)



 ================================
 (Slater-type)  F U N C T I O N S  ***  (Basis and Fit)  ***
 ================================
  

 Atom Type    1  (Pb)
 ==============

 Valence Basis Sets:  26
 -----------------------
   1 S   60.000000
   2 S   37.900000
   3 S   22.100000
   4 S   13.150000
   2 P   38.650000
   3 P   20.600000
   4 P   12.450000
   3 D   23.450000
   4 D   11.600000
   1 S  196.000000
   5 S    7.650000
   5 S    5.200000
   6 S    3.700000
   6 S    2.400000
   6 S    1.580000
   5 P    6.600000
   5 P    4.200000
   6 P    2.700000
   6 P    1.600000
   6 P    0.960000
   5 D    6.000000
   5 D    3.650000
   5 D    2.200000
   4 F   17.560000
   4 F    9.950000
   4 F    5.750000

 Frozen Core Shells
 ------------------
    S:  4
    P:  3
    D:  2


 BAS: List of all Elementary Cartesian Basis Functions
 =====================================================

 The numbering in the list below (to the right of the function characteristics) is referred
 to in print-outs of MO eigenvectors and Mulliken populations in the BAS representation
 (as contrasted to the SFO representation).

 Notes:
 1. The functions are characterized by a polynomial prefactor (powers of x,y,z and r) and
    an exponential decay factor alpha.
 2. Since the basis sets are specific for an atom TYPE, the individual functions occur on
    all atoms of that type.
 3. The word 'Core' in the left margin signals that it is a Core Function (CF) : not a
    degree of freedom in the valence set, but only used to ensure orthogonalization of
    the other valence basis functions on the frozen Core Orbitals.


 (power of) X  Y  Z  R     Alpha  on Atom
            ==========     =====     ==========

 Pb                                   1
                                  ---------------------------------------------------------------------------
    Core    0  0  0  0    60.000      1
    Core    0  0  0  1    37.900      2
    Core    0  0  0  2    22.100      3
    Core    0  0  0  3    13.150      4
    Core    1  0  0  0    38.650      5
    Core    0  1  0  0    38.650      6
    Core    0  0  1  0    38.650      7
    Core    1  0  0  1    20.600      8
    Core    0  1  0  1    20.600      9
    Core    0  0  1  1    20.600     10
    Core    1  0  0  2    12.450     11
    Core    0  1  0  2    12.450     12
    Core    0  0  1  2    12.450     13
    Core    2  0  0  0    23.450     14
    Core    1  1  0  0    23.450     15
    Core    1  0  1  0    23.450     16
    Core    0  2  0  0    23.450     17
    Core    0  1  1  0    23.450     18
    Core    0  0  2  0    23.450     19
    Core    2  0  0  1    11.600     20
    Core    1  1  0  1    11.600     21
    Core    1  0  1  1    11.600     22
    Core    0  2  0  1    11.600     23
    Core    0  1  1  1    11.600     24
    Core    0  0  2  1    11.600     25
            0  0  0  0   196.000     26
            0  0  0  4     7.650     27
            0  0  0  4     5.200     28
            0  0  0  5     3.700     29
            0  0  0  5     2.400     30
            0  0  0  5     1.580     31
            1  0  0  3     6.600     32
            0  1  0  3     6.600     33
            0  0  1  3     6.600     34
            1  0  0  3     4.200     35
            0  1  0  3     4.200     36
            0  0  1  3     4.200     37
            1  0  0  4     2.700     38
            0  1  0  4     2.700     39
            0  0  1  4     2.700     40
            1  0  0  4     1.600     41
            0  1  0  4     1.600     42
            0  0  1  4     1.600     43
            1  0  0  4     0.960     44
            0  1  0  4     0.960     45
            0  0  1  4     0.960     46
            2  0  0  2     6.000     47
            1  1  0  2     6.000     48
            1  0  1  2     6.000     49
            0  2  0  2     6.000     50
            0  1  1  2     6.000     51
            0  0  2  2     6.000     52
            2  0  0  2     3.650     53
            1  1  0  2     3.650     54
            1  0  1  2     3.650     55
            0  2  0  2     3.650     56
            0  1  1  2     3.650     57
            0  0  2  2     3.650     58
            2  0  0  2     2.200     59
            1  1  0  2     2.200     60
            1  0  1  2     2.200     61
            0  2  0  2     2.200     62
            0  1  1  2     2.200     63
            0  0  2  2     2.200     64
            3  0  0  0    17.560     65
            2  1  0  0    17.560     66
            2  0  1  0    17.560     67
            1  2  0  0    17.560     68
            1  1  1  0    17.560     69
            1  0  2  0    17.560     70
            0  3  0  0    17.560     71
            0  2  1  0    17.560     72
            0  1  2  0    17.560     73
            0  0  3  0    17.560     74
            3  0  0  0     9.950     75
            2  1  0  0     9.950     76
            2  0  1  0     9.950     77
            1  2  0  0     9.950     78
            1  1  1  0     9.950     79
            1  0  2  0     9.950     80
            0  3  0  0     9.950     81
            0  2  1  0     9.950     82
            0  1  2  0     9.950     83
            0  0  3  0     9.950     84
            3  0  0  0     5.750     85
            2  1  0  0     5.750     86
            2  0  1  0     5.750     87
            1  2  0  0     5.750     88
            1  1  1  0     5.750     89
            1  0  2  0     5.750     90
            0  3  0  0     5.750     91
            0  2  1  0     5.750     92
            0  1  2  0     5.750     93
            0  0  3  0     5.750     94

 Total number of charge fitting functions (nprimf)       342
 Total number of Cartesian basis functions (naos)         94
 Total number of Cartesian core functions  (ncos)         25

1
 ***************************************************************************************************



                                              ***********************
                                              *  T E C H N I C A L  *
                                              ***********************
  



 =============================================================
 P A R A L L E L I Z A T I O N  and  V E C T O R I Z A T I O N
 =============================================================
  
 Nr of parallel processes:                               12
 Maximum vector length in NumInt loops:                 128



 =====================
 S C F   U P D A T E S
 =====================
  
 Max. nr. of cycles:                               300
 Convergence criterion:                              0.0000010000
   secondary criterion:                              0.0010000000

 Mix parameter (when DIIS does not apply):           0.2000000000
 Mixed ADIIS+SDIIS will be used                  
    Max number of expansion vectors:                10
    Pure ADIIS when Max([F,P]) is above              0.1000000000
    Pure SDIIS when Max([F,P]) is below              0.0010000000
 Automatic ElectronSmearing (in case of problematic SCF convergence) disabled



 =================
 P R E C I S I O N  ***  (General: NumInt, NeglectFunctionTails, ...)  ***
 =================
  

 NumInt:           Target precision:                 4.0000000000
 -------           Initial precision:                4.0000000000
                   Min. precision (optimization):    4.0000000000

 Neglect Functions:          Basis functions:        0.1000000000E-05
 ------------------          Fit functions:          0.1000000000E-05



 ===========================
 L I N E A R   S C A L I N G
 ===========================
  

 Cut-off radii density fit:                        0.1000000000E-07
 Overlap cut-off criterion AO matrix elements:     0.1000000000E-05
 Cut-offs for Coulomb potential and fitted density:0.1000000000E-07
 Cut-off criterion for Coulomb multipole terms:    0.1000000000E-07
 Progressive Convergence parameter:                 0.000000000    

 Number of elements of the density matrix on this node (used, total):      4465      4465



 ===========================================
 Numerical Integration : Fuzzy Cells (Becke)
 ===========================================
  
 Becke grid quality: NORMAL         
  
 Lebedev angular grid order:             min:  11 max:  23
 Nr. of radial points:                   min: 123 max: 123

 Total nr. of points:       9594
 Nr. of blocks:              123
 Block length:                78
 Nr. of dummy points:          0


 Test of Precision of the Numerical Integration Grid
 ===================================================

 Integral of the Total Core Density:                  46.00000002990885
 Relative Error:                                       6.502E-10



 ========================
 Density Fitting (zlmFit)
 ========================
  
 ZlmFit Fit Quality: NORMAL         
  
 Max L-expansion:                        min:   7 max:   7
 Nr. of radial interpolation points:     min: 114 max: 114



 =====
 S C F  ***  ScaSCF  ***
 =====
  
 Initial density matrix is taken from previous geometry

 CYCLE    1
  ***********************************************************
  ** : orbital data taken from :/tmp/amstmp_ams_kid0.1321410951/SkipGO.rkf
  ***********************************************************
 Orbital Data from active fragment used
 SCF Error: norm([F,P])=      0.000000001460, max([F,P])=      0.000000000755
 orbitals (Q,E):
 ---------------
 S :1...6            ( 2.00    -5.8725)  ( 2.00    -1.0101)  ( 0.00    -0.3118)  ( 0.00     0.4566)
                     ( 0.00     5.1238)  ( 0.00  3692.4136)
 P :1...5            ( 6.00    -3.7549)  ( 0.00    -0.6320)  ( 0.00    -0.2404)  ( 0.00     0.0190)
                     ( 0.00     2.4806)
 D :1...3            (10.00    -1.3980)  ( 0.00    -0.0908)  ( 0.00     2.8088)
 F :1...3            (14.00    -5.5503)  ( 0.00     3.6789)  ( 0.00    36.3421)

 CYCLE    2
   MIX coefficients:  0.8000  0.2000
 SCF Error: norm([F,P])=      0.000000001002, max([F,P])=      0.000000000272
 orbitals (Q,E):
 ---------------
 S :1...3            ( 2.00    -5.8725)  ( 2.00    -1.0101)  ( 0.00    -0.3118)
 P :1...2            ( 6.00    -3.7549)  ( 0.00    -0.6320)
 D :1...2            (10.00    -1.3980)  ( 0.00    -0.0908)
 F :1...2            (14.00    -5.5503)  ( 0.00     3.6789)

 SCF CONVERGED

 CYCLE    3
1
 ***************************************************************************************************



                                                *******************
                                                *  R E S U L T S  *
                                                *******************
  
 *** Using FIT density in Focky
  SDIIS (wt  0.000): -1.1682  2.1682
 A-DIIS (wt  1.000):  0.0000  1.0000
  DIIS coefficients:  0.0000  1.0000
 SCF Error: norm([F,P])=      0.000000000570, max([F,P])=      0.000000000159

 Scaled ZORA Orbital Energies, per Irrep and Spin:
 =================================================
                        Occup              E (au)              E (eV)       Diff (eV) with prev. cycle
                        -----      --------------------        ------       --------------------------
 S
               1        2.000     -0.58724605791378E+01      -159.798               7.06E-09
               2        2.000     -0.10101411378267E+01       -27.487               1.10E-09
               3        0.000     -0.31178099936038E+00        -8.484
               4        0.000      0.45662321409732E+00        12.425
               5        0.000      0.51237641523830E+01       139.425
               6        0.000      0.36924136331711E+04    100475.687
 P
               1        6.000     -0.37549372168762E+01      -102.177               6.16E-09
               2        0.000     -0.63195713402260E+00       -17.196
               3        0.000     -0.24044624777531E+00        -6.543
               4        0.000      0.19009986151982E-01         0.517
               5        0.000      0.24805923711298E+01        67.500
 D
               1       10.000     -0.13979750852022E+01       -38.041               4.25E-09
               2        0.000     -0.90753606318261E-01        -2.470
               3        0.000      0.28087796908359E+01        76.431
 F
               1       14.000     -0.55503062587462E+01      -151.032               8.73E-09
               2        0.000      0.36789334396735E+01       100.109
               3        0.000      0.36342055166854E+02       988.918
  
 HOMO :        2 S                -0.10101411378267E+01
 LUMO :        2 P                -0.63195713402260E+00
  


 Orbital Energies, all Irreps
 ========================================

 Irrep        no.  (spin)   Occup              E (au)                E (eV)
 ---------------------------------------------------------------------------
 S             1             2.00       -0.58724605791378E+01      -159.7978
 F             1            14.00       -0.55503062587462E+01      -151.0315
 P             1             6.00       -0.37549372168762E+01      -102.1770
 D             1            10.00       -0.13979750852022E+01       -38.0408
 S             2             2.00       -0.10101411378267E+01       -27.4873
 P             2             0.00       -0.63195713402260E+00       -17.1964
 S             3             0.00       -0.31178099936038E+00        -8.4840
 P             3             0.00       -0.24044624777531E+00        -6.5429
 D             2             0.00       -0.90753606318261E-01        -2.4695
 P             4             0.00        0.19009986151982E-01         0.5173
 S             4             0.00        0.45662321409732E+00        12.4253
 P             5             0.00        0.24805923711298E+01        67.5004
 D             3             0.00        0.28087796908359E+01        76.4308
 F             2             0.00        0.36789334396735E+01       100.1089
 S             5             0.00        0.51237641523830E+01       139.4247
 F             3             0.00        0.36342055166854E+02       988.9176
 S             6             0.00        0.36924136331711E+04    100475.6872


 Scaled ZORA Orbital Energies of the Core Orbitals:
 ==================================================

 (Note that the atoms are grouped by atomtype, see the labels, and may hence NOT be in input order)

 AtomType  Orbital  Atom                   E (au)                        E (eV)
 --------  -------  ----           --------------------        ----------------
 Pb          1S        1          -0.32301671390337E+04              -87897.320
             2S        1          -0.57794663852652E+03              -15726.728
             3S        1          -0.13926676911853E+03               -3789.642
             4S        1          -0.32035935731340E+02                -871.742
             2P        1          -0.49549840587564E+03              -13483.198
             3P        1          -0.11562055741191E+03               -3146.195
             4P        1          -0.24305895202935E+02                -661.397
             3D        1          -0.91752627704037E+02               -2496.716
             4D        1          -0.15413948637362E+02                -419.435


 Fit test: (difference of exact and fit density, squared integrated, result summed over spins)
         Sum-of-Fragments:                             0.00000000006778
         Orthogonalized Fragments:                     0.00000037998254
         SCF:                                          0.00000037844273



 ==========================
 Electron Density at Nuclei
 ==========================
  
 The electron density is calculated at points on a small sphere around the center of a nucleus.
 The printed electron density is the average electron density on these points.
 The radius of the sphere is the printed approximate finite nuclear radius.
 Note: ZORA-4 density is used, which includes small component density

         Atom        Nuclear Radius (Angstrom)             Electron Density (a.u.)
         ----        -------------------------             -----------------------
     1)   Pb                0.0000713054                          2606422.77401



 =======================================
 M U L L I K E N   P O P U L A T I O N S
 =======================================
  
 The survey below gives for each atom:
 a) the total charge (Z minus electrons)
 b) the net spin polarization (nr of electrons spin-A minus spin-B)
 c) for each spin the atomic electron valence density (integrated) per L-value.

 Atom              Charge    Spin density          S         P         D         F
 ----              ------    ------------       ------    ------    ------    ------
 1 Pb              2.0000                       4.0000    6.0000   10.0000   14.0000

 Populations of individual BAS functions
 ----------------------------------------
 1 Pb          -0.0030 -0.0024  0.0031  0.0615 -0.0017 -0.0017 -0.0017 -0.0031 -0.0031 -0.0031
                0.0732  0.0732  0.0732  0.0046  0.0069  0.0069  0.0046  0.0069  0.0046  0.0372
                0.0558  0.0558  0.0372  0.0558  0.0372  0.0004  1.3263  0.6825  0.9988  0.9183
                0.0145  1.3292  1.3292  1.3292  0.6073  0.6073  0.6073 -0.0055 -0.0055 -0.0055
                0.0006  0.0006  0.0006 -0.0000 -0.0000 -0.0000  0.4865  0.7297  0.7297  0.4865
                0.7297  0.4865  0.7293  1.0939  1.0939  0.7293  1.0939  0.7293  0.0758  0.1137
                0.1137  0.0758  0.1137  0.0758  0.1599  0.3197  0.3197  0.3197  0.3997  0.3197
                0.1599  0.3197  0.3197  0.1599  0.4923  0.9846  0.9846  0.9846  1.2307  0.9846
                0.4923  0.9846  0.9846  0.4923  0.1479  0.2957  0.2957  0.2957  0.3696  0.2957
                0.1479  0.2957  0.2957  0.1479

 Gross Charges per Atom (Z minus electrons)
 ==========================================
             2.0000
 Net Total:  2.00000000


 Atom-Atom Population Matrix (off-diagonal elements not doubled)
 ===============================================================

     1 :    34.0000



 =================================================
 H I R S H F E L D   C H A R G E   A N A L Y S I S
 =================================================
  
 For each fragment: the (numerical) integral of rho(scf) * rho(fragment)/rho(sum-of-fragments)
 (nuclear charges are included, electrons are counted negative)

 The fragments and their ordering are defined in the early G E O M E T R Y output section.
 If you use single-atom fragments, this usually implies that all atoms of the same
 chemical type are grouped together. This may not be the order in which you listed them
 in the input file!

    1  Pb                        2.0000

 Sum of these charges (accuracy NumInt/Tails) =           1.99999997



 =============================
 V O R O N O I   C H A R G E S
 =============================
  
 For each atom: the (numerical) integral of the total electronic charge density in its Voronoi cell,
 i.e. the region of space that is closer to that atom than to any other atom.
 (cf. Wigner-Seitz cells in crystals)

 Within the Voronoi cell the subintegrals over the atomic sphere and the remaining part are evaluated
 separately to give the numbers of electrons (negative charge) in these regions.
 The net total charge in the cell (including the nuclear charge) is also given.

 Values are provided for
    a) the Initial (sum-of-fragments) density
    b) the Orthogonalized-Fragments density
    c) the SCF density
    d) the Voronoi Deformation Density (VDD): the difference SCF-Initial for the complete atomic cell


  Atom                Initial                    OrthFrag                   SCF
             Sphere RestCell NetTotal   Sphere RestCell NetTotal   Sphere RestCell NetTotal      VDD
 -----       ------------------------   ------------------------   ------------------------    -----
    1 Pb    -82.000   -0.000   -0.000  -82.000   -0.000   -0.000  -80.000   -0.000    2.000    2.000
 ---------------------------------------------------------------------------------------------------
 Total NetCharge:              -0.000                     -0.000                      2.000    2.000
 (accuracy NumInt/Tails)

 Remark: the 'NetTotal' Voronoi charges often do not match the Mulliken and/or Hirshfeld charges very
 well. This is caused by the fact that chemically different atoms are not treated in accordance with
 their relative sizes. (Voronoi cells are defined by boundary planes halfway between the atoms.)
 However, the CHANGES in charge, comparing 'Initial' to 'SCF' for instance, do give a fair indication
 of the flow of charge caused by the relaxation from sum-of-fragments to self-consistency.

 Warning: the absolute accuracy of the VDD charges obtained using the Fuzzy Cells (Becke) integration
 scheme is much poorer than the one obtained with an 'equivalent' Voronoi integration grid. 



 =================================================================
 M U L T I P O L E   D E R I V E D   C H A R G E   A N A L Y S I S
 =================================================================

 This charge analysis uses the atomic multipoles (obtained from the fitted density) up to some level X,
 and reconstructs these multipoles exactly (up to level X) by distributing charges over all atoms.
 This is achieved by using Lagrange multipliers and a weight function to keep the multipoles local.

 Dummy atoms can be included (by setting INCDUM in MDC-block to 1) to obtain a fractional charge.
 This is generally useful and necessary only for small symmetrical molecules, when there are not
 enough degrees of freedom to reconstruct the multipoles.

 Since the atomic multipoles are reconstructed up to level X,
 the molecular multipoles are represented also up to level X.
 The recommended level is to reconstruct up to quadrupole : -> MDC-q charges.

 See: M. Swart, P.Th. van Duijnen, J.G. Snijders, J.Comput.Chem., (2001), p. 79-88.

 ------------------------------------------------------------- 
 Atomic electronic multipole moments from SCF equations (a.u.)
 ------------------------------------------------------------- 

   atom        charge        dip-x     dip-y     dip-z      quad-xx   quad-xy   quad-xz   quad-yy   quad-yz   quad-zz
 --------------------------------------------------------------------------------------------------------------------
    1 Pb     2.000000    -0.000000 -0.000000  0.000000    -0.000000 -0.000000  0.000000 -0.000000  0.000000  0.000000

 --------------------------------------- 
 Multipole derived atomic charges (a.u.)
 --------------------------------------- 

 The MDC-m charges are just the Monopole terms in the multipole expansion, while for the MDC-d charges
 also the Dipoles are reconstructed. The usually preferred charges are the MDC-q charges.
 These reconstruct the Monopoles, Dipoles and Quadrupoles (both atomic AND molecular).

        Atom    Level:     MDC-m        MDC-d        MDC-q
 ---------------------------------------------------------
     1     Pb           2.000000     2.000000     2.000000

 ------------------------------------------------ 
 Average absolute deviations in atomic multipoles
 ------------------------------------------------ 

 Stated here are the average differences between the atomic multipoles
 and the reconstructed atomic multipoles (from the distributed charges).
 If these values are not zero, this means there are not enough degrees of freedom,
 to be able to reconstruct the atomic multipoles. (This usually happens only
 for small and/or highly symmetric molecules). If this is the case, one could add
 dummy atoms as extra point charges (and setting INCDUM in MDC-block to 1).

 Level:                                 MDC-d        MDC-q
 ---------------------------------------------------------
 Charge   (a.u.)                       0.0000       0.0000
 Dipole   (Debye)                      0.0000       0.0000
 Quad.    (a.u.)                       0.0000       0.0000

 --------------------------------------- 
 Represented molecular multipole moments
 --------------------------------------- 

 Given here are the Molecular multipole moments from the atomic charges, and from the Fit Density.
 Note that the atomic charges represent the latter, NOT the ones from the Exact density.

            Q (a.u.)             Dipole moment (Debye)                                          Quadrupole moment (a.u.)
                                 x         y         z              xx        xy        xz        yy        yz        zz
------------------------------------------------------------------------------------------------------------------------
MDC-m         2.0000        0.0000    0.0000    0.0000          0.0000    0.0000    0.0000    0.0000    0.0000    0.0000
MDC-d         2.0000        0.0000    0.0000    0.0000          0.0000    0.0000    0.0000    0.0000    0.0000    0.0000
MDC-q         2.0000        0.0000    0.0000    0.0000          0.0000    0.0000    0.0000    0.0000    0.0000    0.0000
 
Fit.Dens.     2.0000       -0.0000   -0.0000    0.0000         -0.0000   -0.0000    0.0000   -0.0000    0.0000    0.0000



 =============
 Dipole Moment  ***  (Debye)  ***
 =============
  
 Vector   :         0.00000000      0.00000000      0.00000000
 Magnitude:         0.00000000

 This molecular dipole moment is calculated with analytic integration
 ************************************************************************************
 Since the molecule is NOT NEUTRAL, the dipole moment depends on the choice of origin
 ************************************************************************************



 =========================================
 Quadrupole Moment (Buckingham convention)  ***  (a.u.)  ***
 =========================================
  
      quad-xx        quad-xy        quad-xz        quad-yy        quad-yz        quad-zz
      0.00000000     0.00000000     0.00000000     0.00000000     0.00000000     0.00000000

 This molecular quadrupole moment is calculated with analytic integration
1



 ===========================
 B O N D I N G   E N E R G Y  ***  (decomposition)  ***
 ===========================
  
*** IMPORTANT NOTE ***

The bond energy is computed as an energy difference between molecule and
fragments. In particular when the fragments are single atoms, they are usually
computed as SPHERICALLY SYMMETRIC and SPIN-RESTRICTED. Obviously, this usually
does NOT represent the true atomic groundstate.

To obtain the 'real' bond energy, (atomic) correction terms must be applied
for the true (multiplet) fragment ground state. See ref: E.J.Baerends,
V.Branchadell, M.Sodupe, Chem.Phys.Lett.265 (1997) 481

General theoretical background on the bond energy decomposition scheme used
here (Morokuma-Ziegler) can be found in the review paper:
F.M. Bickelhaupt and E.J. Baerends,
"Kohn-Sham Density Functional Theory: Predicting and Understanding Chemistry"
In: Rev. Comput. Chem.; Lipkowitz, K. B. and Boyd, D. B., Eds.;
Wiley-VCH: New York, 2000, Vol. 15, 1-86.

Symbols used in the Bickelhaupt-Baerends (BB) paper are given below to make
the direct connection to that paper, where detailed explanations can be found
on the meaning of the various terms.


                                                   hartree              eV         kcal/mol           kJ/mol
                                      --------------------     -----------       ----------      -----------

Pauli Repulsion
  Kinetic (Delta T^0):                   0.000000000000073          0.0000             0.00             0.00
  Delta V^Pauli Coulomb:                -0.000000026604661         -0.0000            -0.00            -0.00
  Delta V^Pauli LDA-XC:                  0.000000000000011          0.0000             0.00             0.00
  Delta V^Pauli GGA-Exchange:            0.000000000000000          0.0000             0.00             0.00
  Delta V^Pauli GGA-Correlation:         0.000000000000000          0.0000             0.00             0.00
                                      --------------------     -----------       ----------      -----------
  Total Pauli Repulsion:                -0.000000026604577         -0.0000            -0.00            -0.00
 (Total Pauli Repulsion =
  Delta E^Pauli in BB paper)

Steric Interaction
  Pauli Repulsion (Delta E^Pauli):      -0.000000026604577         -0.0000            -0.00            -0.00
  Electrostatic Interaction:             0.000000000000000          0.0000             0.00             0.00
 (Electrostatic Interaction =
  Delta V_elstat in the BB paper)
                                      --------------------     -----------       ----------      -----------
  Total Steric Interaction:             -0.000000026604577         -0.0000            -0.00            -0.00
 (Total Steric Interaction =
  Delta E^0 in the BB paper)

Orbital Interactions
  S:                                    -0.000603996734232         -0.0164            -0.38            -1.59
  P:                                     0.744616261683017         20.2620           467.25          1954.99
  D:                                     0.000032668454876          0.0009             0.02             0.09
  F:                                    -0.000000298146715         -0.0000            -0.00            -0.00
                                      --------------------     -----------       ----------      -----------
  Total Orbital Interactions:            0.744044635254720         20.2465           466.90          1953.49

Alternative Decomposition Orb.Int.
  Kinetic:                              -0.775211161063045        -21.0946          -486.45         -2035.32
  Coulomb:                               1.080969249514381         29.4147           678.32          2838.08
  XC:                                    0.438286546803384         11.9264           275.03          1150.72
                                      --------------------     -----------       ----------      -----------
  Total Orbital Interactions:            0.744044635254720         20.2465           466.90          1953.49

  Residu (E=Steric+OrbInt+Res):          0.000000904942275          0.0000             0.00             0.00

Total Bonding Energy:                    0.744045513592419         20.2465           466.90          1953.49


Summary of Bonding Energy (energy terms are taken from the energy decomposition above)
======================================================================================

  Electrostatic Energy:                  0.000000000000000          0.0000             0.00             0.00
  Kinetic Energy:                       -0.775211161062972        -21.0946          -486.45         -2035.32
  Coulomb (Steric+OrbInt) Energy:        1.080970127851996         29.4147           678.32          2838.09
  XC Energy:                             0.438286546803395         11.9264           275.03          1150.72
                                      --------------------     -----------       ----------      -----------
  Total Bonding Energy:                  0.744045513592419         20.2465           466.90          1953.49


Correction terms (incorporated in energies above; only for test purposes):

1. Indication of fit-quality: 1st-order fit-correction used in the energy (hartree):  -0.0000612596
2. Electrostatic (Fit correction):   0.0000000000

Scaled ZORA energy correction, not included in bonding energy (hartree):            0.0000355057
 NOTE: This scaled ZORA energy correction should only be used to compare two calculations
 in which the only difference in the calculation is the electron configuration.
 Then the difference in energy of this term should be added to the difference in energy of
 the two electron configurations.
 This term should not be used otherwise.
 In practice it is useful only for core excitation energy calculations.



 =========================================
 F R A G M E N T   E N E R G Y   T E R M S  ***  (summed over all fragments)  ***
 =========================================
  

The energy terms below are (parts of) the Total Energy of the fragments from which the molecule
 is built.

Exchange and Correlation
  Exchange LDA:                       -370.019641680167751     -10068.7468       -232190.86       -971486.43
  Exchange GGA:                        -16.511497698598060       -449.3007        -10361.12        -43350.93
  Correlation LDA:                      -8.637894418522068       -235.0491         -5420.36        -22678.79
  Correlation GGA:                       2.892875754464382         78.7192          1815.31          7595.24
                                      --------------------     -----------       ----------      -----------
  Total XC:                           -392.276158042823511     -10674.3774       -246157.03      -1029920.91
1



 =======================================================
 S F O   P O P U L A T I O N S ,   M O   A N A L Y S I S
 =======================================================
  
 A Mulliken population analysis is performed on (input-)selected MOs. All populations refer to SFOs.
 BAS populations may have been printed directly after the SCF part.


                                       === S ===


 SFO contributions (%) per orbital
 (multiplication by the orbital occupation yields the SFO Gross Populations)

 Orb.:        1      2      3      4      5      6
 occup:     2.00   2.00   0.00   0.00   0.00   0.00
 CF+SFO     ----   ----   ----   ----   ----   ----
 ------
      5:  100.00   0.00   0.00   0.00   0.00   0.00
      6:    0.00  99.00   0.98   0.03   0.00   0.00
      7:    0.00   0.94  98.19   0.88   0.00   0.00
      8:    0.00   0.07   0.84  99.09   0.01   0.00
      9:    0.00   0.00   0.00   0.01  99.99   0.00
     10:    0.00   0.00   0.00   0.00   0.00 100.00


 Summation over all MOs, multiplied by occupation: Total SFO Gross Populations in this Irrep
 ===========================================================================================

    -0.00   -0.00    0.00    0.00    2.00    1.98    0.02    0.00    0.00    0.00


                                       === P:x ===


 SFO contributions (%) per orbital
 (multiplication by the orbital occupation yields the SFO Gross Populations)

 Orb.:        1      2      3      4      5
 occup:     2.00   0.00   0.00   0.00   0.00
 CF+SFO     ----   ----   ----   ----   ----
 ------
[...]

    -0.00   -0.00    0.00    2.00    0.00    0.00    0.00    0.00


                                       === P:z ===


 SFO contributions (%) per orbital
 (multiplication by the orbital occupation yields the SFO Gross Populations)

 Orb.:        1      2      3      4      5
 occup:     2.00   0.00   0.00   0.00   0.00
 CF+SFO     ----   ----   ----   ----   ----
 ------
      4:  100.00   0.00   0.00   0.00   0.00
      5:    0.00  92.76   6.59   0.65   0.00
      6:    0.00   5.19  87.85   6.96   0.00
      7:    0.00   2.05   5.56  92.33   0.06
      8:    0.00   0.00   0.00   0.06  99.94


 Summation over all MOs, multiplied by occupation: Total SFO Gross Populations in this Irrep
 ===========================================================================================

    -0.00   -0.00    0.00    2.00    0.00    0.00    0.00    0.00


                                       === D:z2 ===


 SFO contributions (%) per orbital
 (multiplication by the orbital occupation yields the SFO Gross Populations)

 Orb.:        1      2      3
 occup:     2.00   0.00   0.00
 CF+SFO     ----   ----   ----
 ------
      7:   99.98   0.02   0.00
      8:    0.02  99.96   0.02
      9:    0.00   0.02  99.98


 Summation over all MOs, multiplied by occupation: Total SFO Gross Populations in this Irrep
 ===========================================================================================

     0.00    0.00    0.00    0.00   -0.00    0.00    2.00    0.00    0.00


                                       === D:x2-y2 ===


 SFO contributions (%) per orbital
 (multiplication by the orbital occupation yields the SFO Gross Populations)

 Orb.:        1      2      3
 occup:     2.00   0.00   0.00
 CF+SFO     ----   ----   ----
 ------
      5:   99.98   0.02   0.00
      6:    0.02  99.96   0.02
      7:    0.00   0.02  99.98


 Summation over all MOs, multiplied by occupation: Total SFO Gross Populations in this Irrep
 ===========================================================================================

     0.00    0.00   -0.00   -0.00    2.00    0.00    0.00


                                       === D:xy ===


 SFO contributions (%) per orbital
 (multiplication by the orbital occupation yields the SFO Gross Populations)

 Orb.:        1      2      3
 occup:     2.00   0.00   0.00
 CF+SFO     ----   ----   ----
 ------
      3:   99.98   0.02   0.00
      4:    0.02  99.96   0.02
      5:    0.00   0.02  99.98


 Summation over all MOs, multiplied by occupation: Total SFO Gross Populations in this Irrep
 ===========================================================================================

     0.00    0.00    2.00    0.00    0.00


                                       === D:xz ===


 SFO contributions (%) per orbital
 (multiplication by the orbital occupation yields the SFO Gross Populations)

 Orb.:        1      2      3
 occup:     2.00   0.00   0.00
 CF+SFO     ----   ----   ----
 ------
      3:   99.98   0.02   0.00
      4:    0.02  99.96   0.02
      5:    0.00   0.02  99.98


 Summation over all MOs, multiplied by occupation: Total SFO Gross Populations in this Irrep
 ===========================================================================================

     0.00   -0.00    2.00    0.00    0.00


                                       === D:yz ===


 SFO contributions (%) per orbital
 (multiplication by the orbital occupation yields the SFO Gross Populations)

 Orb.:        1      2      3
 occup:     2.00   0.00   0.00
 CF+SFO     ----   ----   ----
 ------
      3:   99.98   0.02   0.00
      4:    0.02  99.96   0.02
      5:    0.00   0.02  99.98


 Summation over all MOs, multiplied by occupation: Total SFO Gross Populations in this Irrep
 ===========================================================================================

     0.00    0.00    2.00    0.00    0.00


                                       === F:z3 ===


 SFO contributions (%) per orbital
 (multiplication by the orbital occupation yields the SFO Gross Populations)

 Orb.:        1      2      3
 occup:     2.00   0.00   0.00
 CF+SFO     ----   ----   ----
 ------
      1:  100.00   0.00   0.00
      2:    0.00 100.00   0.00
      3:    0.00   0.00 100.00


 Summation over all MOs, multiplied by occupation: Total SFO Gross Populations in this Irrep
 ===========================================================================================

     2.00    0.00    0.00


                                       === F:z ===


 SFO contributions (%) per orbital
 (multiplication by the orbital occupation yields the SFO Gross Populations)

 Orb.:        1      2      3
 occup:     2.00   0.00   0.00
 CF+SFO     ----   ----   ----
 ------
      1:  100.00   0.00   0.00
      2:    0.00 100.00   0.00
      3:    0.00   0.00 100.00


 Summation over all MOs, multiplied by occupation: Total SFO Gross Populations in this Irrep
 ===========================================================================================

     2.00    0.00    0.00


                                       === F:xyz ===


 SFO contributions (%) per orbital
 (multiplication by the orbital occupation yields the SFO Gross Populations)

 Orb.:        1      2      3
 occup:     2.00   0.00   0.00
 CF+SFO     ----   ----   ----
 ------
      1:  100.00   0.00   0.00
      2:    0.00 100.00   0.00
      3:    0.00   0.00 100.00


 Summation over all MOs, multiplied by occupation: Total SFO Gross Populations in this Irrep
 ===========================================================================================

     2.00    0.00    0.00


                                       === F:z2x ===


 SFO contributions (%) per orbital
 (multiplication by the orbital occupation yields the SFO Gross Populations)

 Orb.:        1      2      3
 occup:     2.00   0.00   0.00
 CF+SFO     ----   ----   ----
 ------
      1:  100.00   0.00   0.00
      2:    0.00 100.00   0.00
      3:    0.00   0.00 100.00


 Summation over all MOs, multiplied by occupation: Total SFO Gross Populations in this Irrep
 ===========================================================================================

     2.00    0.00    0.00


                                       === F:z2y ===


 SFO contributions (%) per orbital
 (multiplication by the orbital occupation yields the SFO Gross Populations)

 Orb.:        1      2      3
 occup:     2.00   0.00   0.00
 CF+SFO     ----   ----   ----
 ------
      1:  100.00   0.00   0.00
      2:    0.00 100.00   0.00
      3:    0.00   0.00 100.00


 Summation over all MOs, multiplied by occupation: Total SFO Gross Populations in this Irrep
 ===========================================================================================

     2.00    0.00    0.00


                                       === F:x ===


 SFO contributions (%) per orbital
 (multiplication by the orbital occupation yields the SFO Gross Populations)

 Orb.:        1      2      3
 occup:     2.00   0.00   0.00
 CF+SFO     ----   ----   ----
 ------
      1:  100.00   0.00   0.00
      2:    0.00 100.00   0.00
      3:    0.00   0.00 100.00


 Summation over all MOs, multiplied by occupation: Total SFO Gross Populations in this Irrep
 ===========================================================================================

     2.00    0.00    0.00


                                       === F:y ===


 SFO contributions (%) per orbital
 (multiplication by the orbital occupation yields the SFO Gross Populations)

 Orb.:        1      2      3
 occup:     2.00   0.00   0.00
 CF+SFO     ----   ----   ----
 ------
      1:  100.00   0.00   0.00
      2:    0.00 100.00   0.00
      3:    0.00   0.00 100.00


 Summation over all MOs, multiplied by occupation: Total SFO Gross Populations in this Irrep
 ===========================================================================================

     2.00    0.00    0.00



 List of all MOs, ordered by energy, with the most significant SFO gross populations
 ===================================================================================

 Each percentage contribution in the table below corres ponds to the indicated SFO.
 In general, a SFO may be a linear combination of several Fragment Orbitals on the same,
 or on symmetry-related Fragments. Only the first 'member' of such a combination is
 specified here. A full definition of all SFOs is given in an earlier part of the output.
 The numbering of the SFOs in this table does NOT include the Core Orbitals, and starts
 from one for each symmetry representation, as in the SFO definition list earlier.

       E(eV)  Occ       MO           %     SFO (first member)   E(eV)  Occ   Fragment
 -------------------------------------------------------------------------------------

     -38.041  2.00     1 D:z2      99.98%     1 D:z2          -21.381  2.00     1 Pb
                                    0.02%     2 D:z2           11.626  0.00     1 Pb
     -38.041  2.00     1 D:x2-y2   99.98%     1 D:x2-y2       -21.381  2.00     1 Pb
                                    0.02%     2 D:x2-y2        11.626  0.00     1 Pb
     -38.041  2.00     1 D:xy      99.98%     1 D:xy          -21.381  2.00     1 Pb
                                    0.02%     2 D:xy           11.626  0.00     1 Pb
     -38.041  2.00     1 D:xz      99.98%     1 D:xz          -21.381  2.00     1 Pb
                                    0.02%     2 D:xz           11.626  0.00     1 Pb
     -38.041  2.00     1 D:yz      99.98%     1 D:yz          -21.381  2.00     1 Pb
                                    0.02%     2 D:yz           11.626  0.00     1 Pb
     -27.487  2.00     2 S         99.00%     2 S             -12.093  2.00     1 Pb
                                    0.94%     3 S               1.706  0.00     1 Pb
     -17.196  0.00     2 P:x       92.76%     2 P:x            -3.632  0.67     1 Pb
                                    5.19%     3 P:x             1.212  0.00     1 Pb
                                    2.05%     4 P:x            11.596  0.00     1 Pb
     -17.196  0.00     2 P:y       92.76%     2 P:y            -3.632  0.67     1 Pb
                                    5.19%     3 P:y             1.212  0.00     1 Pb
                                    2.05%     4 P:y            11.596  0.00     1 Pb
     -17.196  0.00     2 P:z       92.76%     2 P:z            -3.632  0.67     1 Pb
                                    5.19%     3 P:z             1.212  0.00     1 Pb
                                    2.05%     4 P:z            11.596  0.00     1 Pb

 Energy gradients wrt nuclear displacements
 ==========================================

     Atom      Cartesian (a.u./angstrom)
                 X         Y         Z
 ----------------------------------------
     1 Pb    0.000000  0.000000  0.000000
 ----------------------------------------



 =======================================================================
 Electrostatic potential at the Nuclei due to electrons and other nuclei
 =======================================================================
  
         Atom                  Potential
         ----                  ---------
     1)   Pb                644.89560992

=============================================================
=== CALCULATE ANALYTICAL SECOND DERIVATIVES OF THE ENERGY ===
=============================================================


-----------------------------------------------
*** RESTART ***
*** CHECKING FOR HESSIAN ON RESTART FILE ***
@@@ WARNING: Cannot find section: Hessian                                                                                                                                                         
*** NO HESSIAN EXISTS ON RESTART FILE ***
*** HESSIAN FROM RESTART FILE IS NOT COMPLETE ***
*** FURTHER CALCULATIONS WILL BE DONE         ***
-----------------------------------------------
                  ------------------------------------------------
                  
                  This Analytical Second Derivatives Progam    
                            was written for ADF by             
                  
                                Stephen K. Wolff               
                  
                         Scientific Computing & Modelling      
                  
                                Vrije University
                              Theoretical Chemistry
                                De Boelelaan 1083
                                1081 HV Amsterdam
                                 The Netherlands
                  
                  ------------------------------------------------
                  
                                    References:                
                                    ===========                
                  
                   Attila Berces, Ross M. Dickson, Liangyou Fan
                   Heiko Jacobsen, David Swerhone, Tom Ziegler,
                   Computer Physics Communications 100 (1997) 247.
                  
                   Heiko Jacobsen, Attila Berces
                   David Swerhone, Tom Ziegler,
                   Computer Physics Communications 100 (1997) 263.
                  
                   Stephen K. Wolff
                   Int. J. Quantum Chem. 104 (2005) 645.
                  
                  ------------------------------------------------
                  
              <><><><><><><><><><><><><><><><><><><><><><><><><>
 
                 SECOND DERIVATIVES INFORMATION:
                 -------------------------------
 
                 === PRINT
 
                   EIGS,  lprint_eigbas =  F
                   U1,    lprint_u1     =  F
                   PARTS, lprint_parts  =  F
 
                 === DEBUG
 
                   ALL        =  F
                   B1         =  F
                   DENSITIES  =  F
                   FIT        =  F
                   HESSIAN    =  F
                   NUMBERS    =  F
                   SYMMETRY   =  F
                   U1         =  F
 
                 === CPKS
 
                   MAX_CPKS_ITERATIONS    =    20
                   U1_ACCURACY PARAMETER  =     5.00
                   U1 ACCURACY            =     0.0000100
 

                 Estimated peak private memory usage    100 MB per process
                                 shared memory usage      7 MB per node

              <><><><><><><><><><><><><><><><><><><><><><><><><>
 Handling            1  atoms per pass in write_gradb1
 wr_gradb1   921024.000000000        1048576000.00000     

######## LOOPING OVER NUCLEI ########

==========================
###### NUCLEUS:     1  Pb 
==========================

====================  solving CPKS equations  ====================

NUCLEUS  COORD.    ITERATION   ACCURACY
-------  ------    ---------   --------
    1       1          1       0.11681095D-03
    1       1          2       0.48542943D-05
*** CPKS converged.
----------------------------------------------
    1       2          1       0.11684665D-03
    1       2          2       0.48539277D-05
*** CPKS converged.
----------------------------------------------
    1       3          1       0.11681633D-03
    1       3          2       0.48556708D-05
*** CPKS converged.
----------------------------------------------

====================  end of solving CPKS equations  ====================


====================================================================
*** DONE CALCULATING ANALYTICAL SECOND DERIVATIVES OF THE ENERGY ***
====================================================================

 Mulliken charges used for AMS results%charges...
Scanning modes in range provided by user.


    =====================
     CALCULATION RESULTS
    =====================

Energy (hartree)             0.74404551

Gradients (hartree/bohr)
  Index   Atom            d/dx            d/dy            d/dz
      1     Pb    0.0000000000    0.0000000000    0.0000000000

 -----------------------
 Normal Mode Frequencies
 -----------------------

 Index   Frequency (cm-1)   Intensity (km/mol)

 Zero-point energy (Hartree):     0.0000

 ------------
 Normal Modes
 ------------

 Number of removed rigid normal modes: 3

PES point character: Geometry corresponds to a local minimum on the PES.




 ============================
 Statistical Thermal Analysis  ***  ideal gas assumed  ***
 ============================
  
 Pressure:                  1.000000 atm.
 Temperature:             298.150000 K



 Moments of Inertia [amu*bohr^2] and principal axis
 ==================================================

           0.0000          0.0000          0.0000
 ------------------------------------------------
           1.0000          0.0000          0.0000
           0.0000          1.0000          0.0000
           0.0000          0.0000          1.0000
 Contributions from frequencies below 20 1/cm are not included in vibrational sums.
 Their contributions, if any, are reported separately.


     Temp                                                        Transl      Rotat     Vibrat     Total
     ----                                                        ------      -----     ------     -----

     298.15   Entropy (cal/mol-K):                               41.901      0.000      0.000     41.901
              Nuclear Internal Energy (kcal/mol):                 0.889      0.000      0.000      0.889
              Constant Volume Heat Capacity (cal/mol-K):          2.981      0.000      0.000      2.981
          (c) Constant Volume Heat Capacity (cal/mol-K):          2.981      0.000      0.000      2.981

       Summary of energy terms
                                                   hartree              eV         kcal/mol           kJ/mol
                                      --------------------     -----------       ----------      -----------
      Energy from Engine:                0.744045513592419         20.2465           466.90          1953.49
      Nuclear Internal Energy:           0.001416279020229          0.0385             0.89             3.72
  (c) Nuclear Internal Energy:           0.001416279020229          0.0385             0.89             3.72
      Internal Energy U:                 0.745461792612648         20.2850           467.78          1957.21
      pV/n = RT:                         0.000944186013486          0.0257             0.59             2.48
      Enthalpy H:                        0.746405978626133         20.3107           468.38          1959.69
      -T*S:                             -0.019908411368732         -0.5417           -12.49           -52.27
  (c) -T*S:                             -0.019908411368732         -0.5417           -12.49           -52.27
      Gibbs free energy:                 0.726497567257402         19.7690           455.88          1907.42
 
 
 
  (c) The properties marked with this symbol have been corrected using 'low vibrational frequency free rotor
      interpolation corrections'. For those terms all positive frequencies are used (also ones below 20 1/cm),
      but the contribution to the partition function of small vibrational frequencies is modified as described
      in the following paper:
      S. Grimme, 'Supramolecular Binding Thermodynamics by Dispersion-Corrected Density Functional Theory'
      (Chem. Eur. J. 2012, 18, 9955-9964)
      Configuration: Dampener Frequency          :   100.000 1/cm
                     Dampener Alpha              :     4.000
                     Averaging Moment of Inertia : 1.000E-44 kg m2

--------------
Atomic charges
--------------
  Index   Atom    Charge
      1     Pb    2.0000


Dipole moment vector    (Debye):     0.00000000    0.00000000    0.00000000
              magnitude (Debye):     0.00000000


Final PES point is a local minimum. Geometry optimization successful!


AMS application finished. Exiting.
NORMAL TERMINATION
     Total cpu time:       6.10
  Total system time:       0.57
 Total elapsed time:       7.01
