

 Parallel Execution: Process Information
 ==============================================================================
 Rank   Node Name                              NodeID   MyNodeRank  NodeMaster
    0   adf1                                      0          0          0
    1   adf1                                      0          1         -1
    2   adf1                                      0          2         -1
    3   adf1                                      0          3         -1
    4   adf1                                      0          4         -1
    5   adf1                                      0          5         -1
    6   adf1                                      1          0          1
    7   adf1                                      1          1         -1
    8   adf1                                      1          2         -1
    9   adf1                                      1          3         -1
   10   adf1                                      1          4         -1
   11   adf1                                      1          5         -1
 ==============================================================================


May use up to 11697MB of RAM as shared memory on node 0
May use up to 11718MB of RAM as shared memory on node 1

 *******************************************************************************
 *                                                                             *
 *  --------------------------------                                           *
 *   Amsterdam Modeling Suite (AMS)              2021.105                      *
 *  --------------------------------                                           *
 *                                               r97261 2021-09-16             *
 *                                                                             *
 *                                                                             *
 *                              =================                              *
 *                              |               |                              *
 *                              |     A M S     |                              *
 *                              |               |                              *
 *                              =================                              *
 *                                                                             *
 *                                                                             *
 *   Online information and documentation:  https://www.scm.com/support/       *
 *   E-mail:  support@scm.com   info@scm.com                                   *
 *                                                                             *
 *   Scientific publications using AMS results must be properly referenced     *
 *   See the User Manuals (or the web site) for recommended citations          *
 *   The terms and conditions of the End User License Agreement apply to       *
 *   the use of AMS, https://www.scm.com/license-terms/                        *
 *                                                                             *
 **********************  x86_64_linux_intel / intelmpi  ************************
 
 Licensed to: Dr. Miroslav Ilias / Matej Bel University, Department Chemistry, Fac. Natural Sciences / Banska Bystrica / SLOVAKIA
 SCM User ID: u17848
  
 AMS 2021.105  RunTime: Nov04-2021 21:24:46  ShM Nodes: 2  Procs: 12

 AMS jobname: ams
 AMS jobid  : 153892249

 Start   directory: /home/milias/Work/projects/open-collection/theoretical_chemistry/projects/lead_water_complexes/adf/Pb_2p/tmp.milias.29872.0.noindex/
 Results directory: /home/milias/Work/projects/open-collection/theoretical_chemistry/projects/lead_water_complexes/adf/Pb_2p/Pb_2p.geoptfreq_sozora_bp86_dzp_sc.results/
 Scratch directory: /tmp/amstmp_ams_kid0.153892249/


 Communication costs MPI_COMM_WORLD:      2.898 usec per message,   0.0275 usec per 8-byte item
 Communication costs for intra-node:      1.585 usec per message,   0.0130 usec per 8-byte item

 RNG seed: 1151164289 620758530 -1389374199 449730707 1350456808 1050835693 -741583516 1363476105



                     *************************************************************************
                     *  ADF 2021.105  RunTime: Nov04-2021 21:24:46  ShM Nodes: 2  Procs: 12  *
                     *************************************************************************
  
       ***************************
       *  GEOMETRY OPTIMIZATION  *
       ***************************

Optimization Method                    Quasi Newton
Optimization Coordinates               Delocalized Coordinates
Optimize lattice                       F
 
 ------------------------------------------------------
 Convergence criteria (Hartree,Angstrom)
 ------------------------------------------------------
 Maximum gradient               0.001000000000
 Maximum rms gradient           0.000666666667
 Maximum step allowed           0.010000000000
 Maximum rms step allowed       0.006666666667
 Maximum energy change allowe   0.000010000000
 Maximum stress energy allowe   0.000500000000
 
Initial model Hessian                  Automatic Hessian
 
------------------------------------
Quasi-Newton Optimizer Parameters
------------------------------------
Hessian Update Method                  BFGS
Maximum number of steps                  250
First GDIIS cycle                          0
Maximum GDIIS vectors                      0
Trust radius (bohr)                        0.200000
Trust radius varies                        T
Constraints converged at all steps         T
Use projector                              T
 
 Rigid motions settings for: old optimizer
 Atomic rotations (x,y,z):     T T T
 Atomic translations (x,y,z):  T T T
 Tolerance:                   1.000000000000000E-006
 
--------
Geometry
--------
Formula: Pb
Atoms
  Index Symbol   x (angstrom)   y (angstrom)   z (angstrom)
      1     Pb     0.00000000     0.00000000     0.00000000
 
Total System Charge             2.00000
 
 
----------------
ADF Engine Input
----------------
 
 Basis
 Type DZP
 Core Small
 End
 XC
 GGA BP86
 End
 Relativity
 Level Spin-Orbit
 End
 

 Title: *** (NO TITLE) ***

 *** SkipGO ***



 ===========================
 A T T A C H E D   F I L E S
 ===========================
  



 ===============================
 M O D E L   P A R A M E T E R S
 ===============================
  
 DENSITY FUNCTIONAL POTENTIAL (scf)
    LDA:                               VWN                                      
    Gradient Corrections:              Becke88 Perdew86                        == Not Default ==

 SPIN  (restricted / unrestr.)
    Molecule:                          Restricted                               
    Fragments:                         Restricted                               

 OTHER ASPECTS
    Relativistic Corrections:          Spin-Orbit (ZORA,MAPA)                  == Not Default ==

    Nuclear Charge Density Model:      Point Charge Nuclei                      
    Core Treatment:                    Frozen Orbital(s)                        

    Hyperfine or Zeeman Interaction:   ---                                      


 Fragment File(s)
 ----------------
 Pb:
         file : /home/milias/Work/projects/open-collection/theoretical_chemistry/projects/lead_water_complexes/adf/Pb_2p/Pb_2p.geoptfreq_sozora_bp86_dzp_sc.results/t21.43F68F43.Pb
         jobid: 0
         title: Lead (TZP, 4d frozen)



 ===============
 G E O M E T R Y  ***  Single Atom  ***
 ===============
  

 ATOMS
 =====                            X Y Z                    CHARGE
                                (Angstrom)             Nucl     +Core       At.Mass
                       --------------------------    ----------------       -------
    1  Pb              0.0000    0.0000    0.0000     82.00     36.00      207.9766


 FRAGMENTS
 =========                                     Atoms in this Fragment     Cart. coord.s (Angstrom)
                                               -------------------------------------------------------
    1  Pb                                                1  Pb           0.0000    0.0000    0.0000



 =====================================
 S Y M M E T R Y ,   E L E C T R O N S
 =====================================
  
 Symmetry: ATOM

 Double Group Irreducible Representations (spinor symmetry)
 -----------------------------------------------------------
 S1/2
 P1/2
 P3/2
 D3/2
 D5/2
 F5/2
 F7/2


 Configuration of Valence Electrons
 ==================================
 ( determined in the SCF procedure )

 Total:   34

 Net Charge: 2 (Nuclei minus Electrons)

 Aufbau principle for MO occupations will be applied through SCF cycle no.     150
 Thereafter, the program will assign electrons to MOs that are spatially
 similar to the occupied MOs in a "reference" cycle ("KeepOrbitals").
 The reference cycle is always the PREVIOUS cycle: it will evolve with
 the SCF procedure.
1
 ***************************************************************************************************



                                      ****************************************
                                      *  B U I L D : (Fragments, Functions)  *
                                      ****************************************
  

 Total nr. of (C)SFOs (summation over all irreps) :    57

 Specify PRINT SFO in the input file to get a full list

 Nr. of SFOs for ir.rep.           S :     6
 Nr. of SFOs for ir.rep.         P:x :     5
 Nr. of SFOs for ir.rep.         P:y :     5
 Nr. of SFOs for ir.rep.         P:z :     5
 Nr. of SFOs for ir.rep.        D:z2 :     3
 Nr. of SFOs for ir.rep.     D:x2-y2 :     3
 Nr. of SFOs for ir.rep.        D:xy :     3
 Nr. of SFOs for ir.rep.        D:xz :     3
 Nr. of SFOs for ir.rep.        D:yz :     3
 Nr. of SFOs for ir.rep.        F:z3 :     3
 Nr. of SFOs for ir.rep.         F:z :     3
 Nr. of SFOs for ir.rep.       F:xyz :     3
 Nr. of SFOs for ir.rep.       F:z2x :     3
 Nr. of SFOs for ir.rep.       F:z2y :     3
 Nr. of SFOs for ir.rep.         F:x :     3
 Nr. of SFOs for ir.rep.         F:y :     3



 ================================
 (Slater-type)  F U N C T I O N S  ***  (Basis and Fit)  ***
 ================================
  

 Atom Type    1  (Pb)
 ==============

 Valence Basis Sets:  26
 -----------------------
   1 S   60.000000
   2 S   37.900000
   3 S   22.100000
   4 S   13.150000
   2 P   38.650000
   3 P   20.600000
   4 P   12.450000
   3 D   23.450000
   4 D   11.600000
   1 S  196.000000
   5 S    7.650000
   5 S    5.200000
   6 S    3.700000
   6 S    2.400000
   6 S    1.580000
   5 P    6.600000
   5 P    4.200000
   6 P    2.700000
   6 P    1.600000
   6 P    0.960000
   5 D    6.000000
   5 D    3.650000
   5 D    2.200000
   4 F   17.560000
   4 F    9.950000
   4 F    5.750000

 Frozen Core Shells
 ------------------
    S:  4
    P:  3
    D:  2


 BAS: List of all Elementary Cartesian Basis Functions
 =====================================================

 The numbering in the list below (to the right of the function characteristics) is referred
 to in print-outs of MO eigenvectors and Mulliken populations in the BAS representation
 (as contrasted to the SFO representation).

 Notes:
 1. The functions are characterized by a polynomial prefactor (powers of x,y,z and r) and
    an exponential decay factor alpha.
 2. Since the basis sets are specific for an atom TYPE, the individual functions occur on
    all atoms of that type.
 3. The word 'Core' in the left margin signals that it is a Core Function (CF) : not a
    degree of freedom in the valence set, but only used to ensure orthogonalization of
    the other valence basis functions on the frozen Core Orbitals.


 (power of) X  Y  Z  R     Alpha  on Atom
            ==========     =====     ==========

 Pb                                   1
                                  ---------------------------------------------------------------------------
    Core    0  0  0  0    60.000      1
    Core    0  0  0  1    37.900      2
    Core    0  0  0  2    22.100      3
    Core    0  0  0  3    13.150      4
    Core    1  0  0  0    38.650      5
    Core    0  1  0  0    38.650      6
    Core    0  0  1  0    38.650      7
    Core    1  0  0  1    20.600      8
    Core    0  1  0  1    20.600      9
    Core    0  0  1  1    20.600     10
    Core    1  0  0  2    12.450     11
    Core    0  1  0  2    12.450     12
    Core    0  0  1  2    12.450     13
    Core    2  0  0  0    23.450     14
    Core    1  1  0  0    23.450     15
    Core    1  0  1  0    23.450     16
    Core    0  2  0  0    23.450     17
    Core    0  1  1  0    23.450     18
    Core    0  0  2  0    23.450     19
    Core    2  0  0  1    11.600     20
    Core    1  1  0  1    11.600     21
    Core    1  0  1  1    11.600     22
    Core    0  2  0  1    11.600     23
    Core    0  1  1  1    11.600     24
    Core    0  0  2  1    11.600     25
            0  0  0  0   196.000     26
            0  0  0  4     7.650     27
            0  0  0  4     5.200     28
            0  0  0  5     3.700     29
            0  0  0  5     2.400     30
            0  0  0  5     1.580     31
            1  0  0  3     6.600     32
            0  1  0  3     6.600     33
            0  0  1  3     6.600     34
            1  0  0  3     4.200     35
            0  1  0  3     4.200     36
            0  0  1  3     4.200     37
            1  0  0  4     2.700     38
            0  1  0  4     2.700     39
            0  0  1  4     2.700     40
            1  0  0  4     1.600     41
            0  1  0  4     1.600     42
            0  0  1  4     1.600     43
            1  0  0  4     0.960     44
            0  1  0  4     0.960     45
            0  0  1  4     0.960     46
            2  0  0  2     6.000     47
            1  1  0  2     6.000     48
            1  0  1  2     6.000     49
            0  2  0  2     6.000     50
            0  1  1  2     6.000     51
            0  0  2  2     6.000     52
            2  0  0  2     3.650     53
            1  1  0  2     3.650     54
            1  0  1  2     3.650     55
            0  2  0  2     3.650     56
            0  1  1  2     3.650     57
            0  0  2  2     3.650     58
            2  0  0  2     2.200     59
            1  1  0  2     2.200     60
            1  0  1  2     2.200     61
            0  2  0  2     2.200     62
            0  1  1  2     2.200     63
            0  0  2  2     2.200     64
            3  0  0  0    17.560     65
            2  1  0  0    17.560     66
            2  0  1  0    17.560     67
            1  2  0  0    17.560     68
            1  1  1  0    17.560     69
            1  0  2  0    17.560     70
            0  3  0  0    17.560     71
            0  2  1  0    17.560     72
            0  1  2  0    17.560     73
            0  0  3  0    17.560     74
            3  0  0  0     9.950     75
            2  1  0  0     9.950     76
            2  0  1  0     9.950     77
            1  2  0  0     9.950     78
            1  1  1  0     9.950     79
            1  0  2  0     9.950     80
            0  3  0  0     9.950     81
            0  2  1  0     9.950     82
            0  1  2  0     9.950     83
            0  0  3  0     9.950     84
            3  0  0  0     5.750     85
            2  1  0  0     5.750     86
            2  0  1  0     5.750     87
            1  2  0  0     5.750     88
            1  1  1  0     5.750     89
            1  0  2  0     5.750     90
            0  3  0  0     5.750     91
            0  2  1  0     5.750     92
            0  1  2  0     5.750     93
            0  0  3  0     5.750     94

 Total number of charge fitting functions (nprimf)       342
 Total number of Cartesian basis functions (naos)         94
 Total number of Cartesian core functions  (ncos)         25

1
 ***************************************************************************************************



                                              ***********************
                                              *  T E C H N I C A L  *
                                              ***********************
  



 =============================================================
 P A R A L L E L I Z A T I O N  and  V E C T O R I Z A T I O N
 =============================================================
  
 Nr of parallel processes:                               12
 Maximum vector length in NumInt loops:                 128



 =====================
 S C F   U P D A T E S
 =====================
  
 Max. nr. of cycles:                               300
 Convergence criterion:                              0.0000010000
   secondary criterion:                              0.0010000000

 Mix parameter (when DIIS does not apply):           0.2000000000
 Mixed ADIIS+SDIIS will be used                  
    Max number of expansion vectors:                10
    Pure ADIIS when Max([F,P]) is above              0.1000000000
    Pure SDIIS when Max([F,P]) is below              0.0010000000
 Automatic ElectronSmearing (in case of problematic SCF convergence) disabled



 =================
 P R E C I S I O N  ***  (General: NumInt, NeglectFunctionTails, ...)  ***
 =================
  

 NumInt:           Target precision:                 4.0000000000
 -------           Initial precision:                4.0000000000
                   Min. precision (optimization):    4.0000000000

 Neglect Functions:          Basis functions:        0.1000000000E-05
 ------------------          Fit functions:          0.1000000000E-05



 ===========================
 L I N E A R   S C A L I N G
 ===========================
  

 Cut-off radii density fit:                        0.1000000000E-07
 Overlap cut-off criterion AO matrix elements:     0.1000000000E-05
 Cut-offs for Coulomb potential and fitted density:0.1000000000E-07
 Cut-off criterion for Coulomb multipole terms:    0.1000000000E-07
 Progressive Convergence parameter:                 0.000000000    
1
 ***************************************************************************************************



                                            ***************************
                                            *  C O M P U T A T I O N  *
                                            ***************************
  



 ==============================
 Double group spinor symmetries  ***  (Spin-Orbit)  ***
 ==============================
  

 The double group Lowdins are spinors adapted to the irreducible representations
 of the double group. These double group Lowdins are linear combinations of
 products of the single group Lowdins and the spinfunctions. The single group
 Lowdins are  orthonormalized symmetrized fragment orbitals (SFOs).
 The complex coefficients that are used in the linear combinations are also
 known as Clebsch-Gordan coefficients.
 The spin functions (alpha,beta) span irrep e1/2


 Double-group Lowdins

          S * e 1/2 :      S1/2

  S1/2:1      = ( 1.0000+0.0000i) alpha + ( 0.0000+0.0000i) beta  S
  S1/2:2      = ( 0.0000+0.0000i) alpha + ( 1.0000+0.0000i) beta  S

          P * e 1/2 :      P1/2

  P1/2:1      = ( 0.0000+0.0000i) alpha + ( 0.5774+0.0000i) beta  P:x
              + ( 0.0000+0.0000i) alpha + ( 0.0000+0.5774i) beta  P:y
              + ( 0.5774+0.0000i) alpha + ( 0.0000+0.0000i) beta  P:z
  P1/2:2      = ( 0.5774+0.0000i) alpha + ( 0.0000+0.0000i) beta  P:x
              + ( 0.0000-0.5774i) alpha + ( 0.0000+0.0000i) beta  P:y
              + ( 0.0000+0.0000i) alpha + (-0.5774+0.0000i) beta  P:z

          P * e 1/2 :      P3/2

  P3/2:1      = (-0.7071+0.0000i) alpha + ( 0.0000+0.0000i) beta  P:x
              + ( 0.0000-0.7071i) alpha + ( 0.0000+0.0000i) beta  P:y
              + ( 0.0000+0.0000i) alpha + ( 0.0000+0.0000i) beta  P:z
  P3/2:2      = ( 0.0000+0.0000i) alpha + (-0.4082+0.0000i) beta  P:x
              + ( 0.0000+0.0000i) alpha + ( 0.0000-0.4082i) beta  P:y
              + ( 0.8165+0.0000i) alpha + ( 0.0000+0.0000i) beta  P:z
  P3/2:3      = ( 0.4082+0.0000i) alpha + ( 0.0000+0.0000i) beta  P:x
              + ( 0.0000-0.4082i) alpha + ( 0.0000+0.0000i) beta  P:y
              + ( 0.0000+0.0000i) alpha + ( 0.8165+0.0000i) beta  P:z
  P3/2:4      = ( 0.0000+0.0000i) alpha + ( 0.7071+0.0000i) beta  P:x
              + ( 0.0000+0.0000i) alpha + ( 0.0000-0.7071i) beta  P:y
              + ( 0.0000+0.0000i) alpha + ( 0.0000+0.0000i) beta  P:z

          D * e 1/2 :      D3/2

  D3/2:1      = ( 0.0000+0.0000i) alpha + ( 0.0000+0.0000i) beta  D:z2
              + ( 0.0000+0.0000i) alpha + (-0.6325+0.0000i) beta  D:x2-y2
              + ( 0.0000+0.0000i) alpha + ( 0.0000-0.6325i) beta  D:xy
              + (-0.3162+0.0000i) alpha + ( 0.0000+0.0000i) beta  D:xz
              + ( 0.0000-0.3162i) alpha + ( 0.0000+0.0000i) beta  D:yz
  D3/2:2      = ( 0.6325+0.0000i) alpha + ( 0.0000+0.0000i) beta  D:z2
              + ( 0.0000+0.0000i) alpha + ( 0.0000+0.0000i) beta  D:x2-y2
              + ( 0.0000+0.0000i) alpha + ( 0.0000+0.0000i) beta  D:xy
              + ( 0.0000+0.0000i) alpha + ( 0.5477+0.0000i) beta  D:xz
              + ( 0.0000+0.0000i) alpha + ( 0.0000+0.5477i) beta  D:yz
  D3/2:3      = ( 0.0000+0.0000i) alpha + (-0.6325+0.0000i) beta  D:z2
              + ( 0.0000+0.0000i) alpha + ( 0.0000+0.0000i) beta  D:x2-y2
              + ( 0.0000+0.0000i) alpha + ( 0.0000+0.0000i) beta  D:xy
              + ( 0.5477+0.0000i) alpha + ( 0.0000+0.0000i) beta  D:xz
              + ( 0.0000-0.5477i) alpha + ( 0.0000+0.0000i) beta  D:yz
  D3/2:4      = ( 0.0000+0.0000i) alpha + ( 0.0000+0.0000i) beta  D:z2
              + ( 0.6325+0.0000i) alpha + ( 0.0000+0.0000i) beta  D:x2-y2
              + ( 0.0000-0.6325i) alpha + ( 0.0000+0.0000i) beta  D:xy
              + ( 0.0000+0.0000i) alpha + (-0.3162+0.0000i) beta  D:xz
              + ( 0.0000+0.0000i) alpha + ( 0.0000+0.3162i) beta  D:yz

          D * e 1/2 :      D5/2

  D5/2:1      = ( 0.0000+0.0000i) alpha + ( 0.0000+0.0000i) beta  D:z2
              + ( 0.7071+0.0000i) alpha + ( 0.0000+0.0000i) beta  D:x2-y2
              + ( 0.0000+0.7071i) alpha + ( 0.0000+0.0000i) beta  D:xy
              + ( 0.0000+0.0000i) alpha + ( 0.0000+0.0000i) beta  D:xz
              + ( 0.0000+0.0000i) alpha + ( 0.0000+0.0000i) beta  D:yz
  D5/2:2      = ( 0.0000+0.0000i) alpha + ( 0.0000+0.0000i) beta  D:z2
              + ( 0.0000+0.0000i) alpha + ( 0.3162+0.0000i) beta  D:x2-y2
              + ( 0.0000+0.0000i) alpha + ( 0.0000+0.3162i) beta  D:xy
              + (-0.6325+0.0000i) alpha + ( 0.0000+0.0000i) beta  D:xz
              + ( 0.0000-0.6325i) alpha + ( 0.0000+0.0000i) beta  D:yz
  D5/2:3      = ( 0.7746+0.0000i) alpha + ( 0.0000+0.0000i) beta  D:z2
              + ( 0.0000+0.0000i) alpha + ( 0.0000+0.0000i) beta  D:x2-y2
              + ( 0.0000+0.0000i) alpha + ( 0.0000+0.0000i) beta  D:xy
              + ( 0.0000+0.0000i) alpha + (-0.4472+0.0000i) beta  D:xz
              + ( 0.0000+0.0000i) alpha + ( 0.0000-0.4472i) beta  D:yz
  D5/2:4      = ( 0.0000+0.0000i) alpha + ( 0.7746+0.0000i) beta  D:z2
              + ( 0.0000+0.0000i) alpha + ( 0.0000+0.0000i) beta  D:x2-y2
              + ( 0.0000+0.0000i) alpha + ( 0.0000+0.0000i) beta  D:xy
              + ( 0.4472+0.0000i) alpha + ( 0.0000+0.0000i) beta  D:xz
              + ( 0.0000-0.4472i) alpha + ( 0.0000+0.0000i) beta  D:yz
  D5/2:5      = ( 0.0000+0.0000i) alpha + ( 0.0000+0.0000i) beta  D:z2
              + ( 0.3162+0.0000i) alpha + ( 0.0000+0.0000i) beta  D:x2-y2
              + ( 0.0000-0.3162i) alpha + ( 0.0000+0.0000i) beta  D:xy
              + ( 0.0000+0.0000i) alpha + ( 0.6325+0.0000i) beta  D:xz
              + ( 0.0000+0.0000i) alpha + ( 0.0000-0.6325i) beta  D:yz
  D5/2:6      = ( 0.0000+0.0000i) alpha + ( 0.0000+0.0000i) beta  D:z2
              + ( 0.0000+0.0000i) alpha + ( 0.7071+0.0000i) beta  D:x2-y2
              + ( 0.0000+0.0000i) alpha + ( 0.0000-0.7071i) beta  D:xy
              + ( 0.0000+0.0000i) alpha + ( 0.0000+0.0000i) beta  D:xz
              + ( 0.0000+0.0000i) alpha + ( 0.0000+0.0000i) beta  D:yz

          F * e 1/2 :      F5/2

  F5/2:1      = ( 0.0000+0.0000i) alpha + ( 0.0000+0.0000i) beta  F:z3
              + ( 0.2673+0.0000i) alpha + ( 0.0000+0.0000i) beta  F:z
              + ( 0.0000+0.2673i) alpha + ( 0.0000+0.0000i) beta  F:xyz
              + ( 0.0000+0.0000i) alpha + ( 0.0000+0.0000i) beta  F:z2x
              + ( 0.0000+0.0000i) alpha + ( 0.0000+0.0000i) beta  F:z2y
              + ( 0.0000+0.0000i) alpha + ( 0.6547+0.0000i) beta  F:x
              + ( 0.0000+0.0000i) alpha + ( 0.0000+0.6547i) beta  F:y
  F5/2:2      = ( 0.0000+0.0000i) alpha + ( 0.0000+0.0000i) beta  F:z3
              + ( 0.0000+0.0000i) alpha + (-0.5976+0.0000i) beta  F:z
              + ( 0.0000+0.0000i) alpha + ( 0.0000-0.5976i) beta  F:xyz
              + (-0.3780+0.0000i) alpha + ( 0.0000+0.0000i) beta  F:z2x
              + ( 0.0000-0.3780i) alpha + ( 0.0000+0.0000i) beta  F:z2y
              + ( 0.0000+0.0000i) alpha + ( 0.0000+0.0000i) beta  F:x
              + ( 0.0000+0.0000i) alpha + ( 0.0000+0.0000i) beta  F:y
  F5/2:3      = ( 0.6547+0.0000i) alpha + ( 0.0000+0.0000i) beta  F:z3
              + ( 0.0000+0.0000i) alpha + ( 0.0000+0.0000i) beta  F:z
              + ( 0.0000+0.0000i) alpha + ( 0.0000+0.0000i) beta  F:xyz
              + ( 0.0000+0.0000i) alpha + ( 0.5345+0.0000i) beta  F:z2x
              + ( 0.0000+0.0000i) alpha + ( 0.0000+0.5345i) beta  F:z2y
              + ( 0.0000+0.0000i) alpha + ( 0.0000+0.0000i) beta  F:x
              + ( 0.0000+0.0000i) alpha + ( 0.0000+0.0000i) beta  F:y
  F5/2:4      = ( 0.0000+0.0000i) alpha + (-0.6547+0.0000i) beta  F:z3
              + ( 0.0000+0.0000i) alpha + ( 0.0000+0.0000i) beta  F:z
              + ( 0.0000+0.0000i) alpha + ( 0.0000+0.0000i) beta  F:xyz
              + ( 0.5345+0.0000i) alpha + ( 0.0000+0.0000i) beta  F:z2x
              + ( 0.0000-0.5345i) alpha + ( 0.0000+0.0000i) beta  F:z2y
              + ( 0.0000+0.0000i) alpha + ( 0.0000+0.0000i) beta  F:x
              + ( 0.0000+0.0000i) alpha + ( 0.0000+0.0000i) beta  F:y
  F5/2:5      = ( 0.0000+0.0000i) alpha + ( 0.0000+0.0000i) beta  F:z3
              + ( 0.5976+0.0000i) alpha + ( 0.0000+0.0000i) beta  F:z
              + ( 0.0000-0.5976i) alpha + ( 0.0000+0.0000i) beta  F:xyz
              + ( 0.0000+0.0000i) alpha + (-0.3780+0.0000i) beta  F:z2x
              + ( 0.0000+0.0000i) alpha + ( 0.0000+0.3780i) beta  F:z2y
              + ( 0.0000+0.0000i) alpha + ( 0.0000+0.0000i) beta  F:x
              + ( 0.0000+0.0000i) alpha + ( 0.0000+0.0000i) beta  F:y
  F5/2:6      = ( 0.0000+0.0000i) alpha + ( 0.0000+0.0000i) beta  F:z3
              + ( 0.0000+0.0000i) alpha + (-0.2673+0.0000i) beta  F:z
              + ( 0.0000+0.0000i) alpha + ( 0.0000+0.2673i) beta  F:xyz
              + ( 0.0000+0.0000i) alpha + ( 0.0000+0.0000i) beta  F:z2x
              + ( 0.0000+0.0000i) alpha + ( 0.0000+0.0000i) beta  F:z2y
              + ( 0.6547+0.0000i) alpha + ( 0.0000+0.0000i) beta  F:x
              + ( 0.0000-0.6547i) alpha + ( 0.0000+0.0000i) beta  F:y

          F * e 1/2 :      F7/2

  F7/2:1      = ( 0.0000+0.0000i) alpha + ( 0.0000+0.0000i) beta  F:z3
              + ( 0.0000+0.0000i) alpha + ( 0.0000+0.0000i) beta  F:z
              + ( 0.0000+0.0000i) alpha + ( 0.0000+0.0000i) beta  F:xyz
              + ( 0.0000+0.0000i) alpha + ( 0.0000+0.0000i) beta  F:z2x
              + ( 0.0000+0.0000i) alpha + ( 0.0000+0.0000i) beta  F:z2y
              + (-0.7071+0.0000i) alpha + ( 0.0000+0.0000i) beta  F:x
              + ( 0.0000-0.7071i) alpha + ( 0.0000+0.0000i) beta  F:y
  F7/2:2      = ( 0.0000+0.0000i) alpha + ( 0.0000+0.0000i) beta  F:z3
              + ( 0.6547+0.0000i) alpha + ( 0.0000+0.0000i) beta  F:z
              + ( 0.0000+0.6547i) alpha + ( 0.0000+0.0000i) beta  F:xyz
              + ( 0.0000+0.0000i) alpha + ( 0.0000+0.0000i) beta  F:z2x
              + ( 0.0000+0.0000i) alpha + ( 0.0000+0.0000i) beta  F:z2y
              + ( 0.0000+0.0000i) alpha + (-0.2673+0.0000i) beta  F:x
              + ( 0.0000+0.0000i) alpha + ( 0.0000-0.2673i) beta  F:y
  F7/2:3      = ( 0.0000+0.0000i) alpha + ( 0.0000+0.0000i) beta  F:z3
              + ( 0.0000+0.0000i) alpha + ( 0.3780+0.0000i) beta  F:z
              + ( 0.0000+0.0000i) alpha + ( 0.0000+0.3780i) beta  F:xyz
              + (-0.5976+0.0000i) alpha + ( 0.0000+0.0000i) beta  F:z2x
              + ( 0.0000-0.5976i) alpha + ( 0.0000+0.0000i) beta  F:z2y
              + ( 0.0000+0.0000i) alpha + ( 0.0000+0.0000i) beta  F:x
              + ( 0.0000+0.0000i) alpha + ( 0.0000+0.0000i) beta  F:y
  F7/2:4      = ( 0.7559+0.0000i) alpha + ( 0.0000+0.0000i) beta  F:z3
              + ( 0.0000+0.0000i) alpha + ( 0.0000+0.0000i) beta  F:z
              + ( 0.0000+0.0000i) alpha + ( 0.0000+0.0000i) beta  F:xyz
              + ( 0.0000+0.0000i) alpha + (-0.4629+0.0000i) beta  F:z2x
              + ( 0.0000+0.0000i) alpha + ( 0.0000-0.4629i) beta  F:z2y
              + ( 0.0000+0.0000i) alpha + ( 0.0000+0.0000i) beta  F:x
              + ( 0.0000+0.0000i) alpha + ( 0.0000+0.0000i) beta  F:y
  F7/2:5      = ( 0.0000+0.0000i) alpha + ( 0.7559+0.0000i) beta  F:z3
              + ( 0.0000+0.0000i) alpha + ( 0.0000+0.0000i) beta  F:z
              + ( 0.0000+0.0000i) alpha + ( 0.0000+0.0000i) beta  F:xyz
              + ( 0.4629+0.0000i) alpha + ( 0.0000+0.0000i) beta  F:z2x
              + ( 0.0000-0.4629i) alpha + ( 0.0000+0.0000i) beta  F:z2y
              + ( 0.0000+0.0000i) alpha + ( 0.0000+0.0000i) beta  F:x
              + ( 0.0000+0.0000i) alpha + ( 0.0000+0.0000i) beta  F:y
  F7/2:6      = ( 0.0000+0.0000i) alpha + ( 0.0000+0.0000i) beta  F:z3
              + ( 0.3780+0.0000i) alpha + ( 0.0000+0.0000i) beta  F:z
              + ( 0.0000-0.3780i) alpha + ( 0.0000+0.0000i) beta  F:xyz
              + ( 0.0000+0.0000i) alpha + ( 0.5976+0.0000i) beta  F:z2x
              + ( 0.0000+0.0000i) alpha + ( 0.0000-0.5976i) beta  F:z2y
              + ( 0.0000+0.0000i) alpha + ( 0.0000+0.0000i) beta  F:x
              + ( 0.0000+0.0000i) alpha + ( 0.0000+0.0000i) beta  F:y
  F7/2:7      = ( 0.0000+0.0000i) alpha + ( 0.0000+0.0000i) beta  F:z3
              + ( 0.0000+0.0000i) alpha + ( 0.6547+0.0000i) beta  F:z
              + ( 0.0000+0.0000i) alpha + ( 0.0000-0.6547i) beta  F:xyz
              + ( 0.0000+0.0000i) alpha + ( 0.0000+0.0000i) beta  F:z2x
              + ( 0.0000+0.0000i) alpha + ( 0.0000+0.0000i) beta  F:z2y
              + ( 0.2673+0.0000i) alpha + ( 0.0000+0.0000i) beta  F:x
              + ( 0.0000-0.2673i) alpha + ( 0.0000+0.0000i) beta  F:y
  F7/2:8      = ( 0.0000+0.0000i) alpha + ( 0.0000+0.0000i) beta  F:z3
              + ( 0.0000+0.0000i) alpha + ( 0.0000+0.0000i) beta  F:z
              + ( 0.0000+0.0000i) alpha + ( 0.0000+0.0000i) beta  F:xyz
              + ( 0.0000+0.0000i) alpha + ( 0.0000+0.0000i) beta  F:z2x
              + ( 0.0000+0.0000i) alpha + ( 0.0000+0.0000i) beta  F:z2y
              + ( 0.0000+0.0000i) alpha + ( 0.7071+0.0000i) beta  F:x
              + ( 0.0000+0.0000i) alpha + ( 0.0000-0.7071i) beta  F:y

 The table summarizes which one-electron orbital irreps (single group) couple
 with spin to which spinor irreps (double group).
 The Clebsch-Gordan series for each direct product: orbital irrep times e1/2.
                  S       P       D       F
            ------- ------- ------- -------
  S1/2           X       -       -       -
  P1/2           -       X       -       -
  P3/2           -       X       -       -
  D3/2           -       -       X       -
  D5/2           -       -       X       -
  F5/2           -       -       -       X
  F7/2           -       -       -       X


 dimension (equal to the max. nr. of electrons per spinor) of the double group irreps
 ------------------------------------------------------------------------------------
  S1/2           2
  P1/2           2
  P3/2           4
  D3/2           4
  D5/2           6
  F5/2           6
  F7/2           8

 Number of elements of the density matrix on this node (used, total):      4465      4465



 ===========================================
 Numerical Integration : Fuzzy Cells (Becke)
 ===========================================
  
 Becke grid quality: NORMAL         
  
 Lebedev angular grid order:             min:  11 max:  23
 Nr. of radial points:                   min: 123 max: 123

 Total nr. of points:        123
 Nr. of blocks:                1
 Block length:               123
 Nr. of dummy points:          0


 Test of Precision of the Numerical Integration Grid
 ===================================================

 Integral of the Total Core Density:                  46.00000002977841
 Relative Error:                                       6.474E-10



 ========================
 Density Fitting (zlmFit)
 ========================
  
 ZlmFit Fit Quality: NORMAL         
  
 Max L-expansion:                        min:   7 max:   7
 Nr. of radial interpolation points:     min: 114 max: 114



 =====
 S C F  ***  ScaSCF  ***
 =====
  
 Initial density matrix is calculated as sum of fragments

 CYCLE    1
 SCF Error: norm([F,P])=      1.809545743176, max([F,P])=      0.477414393297
 orbitals (Q,E):
 ---------------
 S1/2 :1...6         ( 2.00    -5.2569)  ( 2.00    -0.4446)  ( 0.00     0.0627)  ( 0.00     0.9554)
                     ( 0.00     5.7133)  ( 0.00  3692.8819)
 P1/2 :1...5         ( 2.00    -3.4962)  ( 0.00    -0.1573)  ( 0.00     0.0378)  ( 0.00     0.3939)
                     ( 0.00     2.6971)
 P3/2 :1...5         ( 4.00    -2.9808)  ( 0.00    -0.1235)  ( 0.00     0.0479)  ( 0.00     0.4422)
                     ( 0.00     3.2564)
 D3/2 :1...3         ( 4.00    -0.8343)  ( 0.00     0.4171)  ( 0.00     3.2861)
 D5/2 :1...3         ( 6.00    -0.7555)  ( 0.00     0.4338)  ( 0.00     3.4754)
 F5/2 :1...3         ( 6.00    -5.0386)  ( 0.00     4.2481)  ( 0.00    36.4670)
 F7/2 :1...3         ( 8.00    -4.8558)  ( 0.00     4.3296)  ( 0.00    37.3277)

 CYCLE    2
  SDIIS (wt  0.000):  0.1643  0.8357
 A-DIIS (wt  1.000):  0.0000  1.0000
  DIIS coefficients:  0.0000  1.0000
 SCF Error: norm([F,P])=      0.712969228148, max([F,P])=      0.217555432061
 orbitals (Q,E):
 ---------------
 S1/2 :1...6         ( 2.00    -5.9623)  ( 2.00    -1.0482)  ( 0.00    -0.3298)  ( 0.00     0.4259)
                     ( 0.00     5.0533)  ( 0.00  3692.3231)
 P1/2 :1...5         ( 2.00    -4.1980)  ( 0.00    -0.6999)  ( 0.00    -0.2573)  ( 0.00    -0.0255)
                     ( 0.00     2.0708)
 P3/2 :1...5         ( 4.00    -3.6796)  ( 0.00    -0.6437)  ( 0.00    -0.2456)  ( 0.00     0.0090)
                     ( 0.00     2.6169)
 D3/2 :1...3         ( 4.00    -1.5175)  ( 0.00    -0.1317)  ( 0.00     2.6314)
 D5/2 :1...3         ( 6.00    -1.4363)  ( 0.00    -0.1147)  ( 0.00     2.8180)
 F5/2 :1...3         ( 6.00    -5.7609)  ( 0.00     3.5418)  ( 0.00    35.7451)
 F7/2 :1...3         ( 8.00    -5.5780)  ( 0.00     3.6233)  ( 0.00    36.6057)

 CYCLE    3
  SDIIS (wt  0.000):  0.0048  0.6211  0.3740
 A-DIIS (wt  1.000):  0.0000  0.2381  0.7619
  DIIS coefficients:  0.0000  0.2381  0.7619
 SCF Error: norm([F,P])=      1.108739003452, max([F,P])=      0.211057366923
 orbitals (Q,E):
 ---------------
 S1/2 :1...6         ( 2.00    -5.8432)  ( 2.00    -1.0064)  ( 0.00    -0.3126)  ( 0.00     0.4602)
                     ( 0.00     5.1458)  ( 0.00  3692.4779)
 P1/2 :1...5         ( 2.00    -4.0857)  ( 0.00    -0.6675)  ( 0.00    -0.2490)  ( 0.00    -0.0050)
                     ( 0.00     2.1415)
 P3/2 :1...5         ( 4.00    -3.5732)  ( 0.00    -0.6140)  ( 0.00    -0.2381)  ( 0.00     0.0308)
                     ( 0.00     2.6956)
 D3/2 :1...3         ( 4.00    -1.4306)  ( 0.00    -0.0988)  ( 0.00     2.7154)
 D5/2 :1...3         ( 6.00    -1.3522)  ( 0.00    -0.0814)  ( 0.00     2.9043)
 F5/2 :1...3         ( 6.00    -5.6029)  ( 0.00     3.6640)  ( 0.00    35.9095)
 F7/2 :1...3         ( 8.00    -5.4205)  ( 0.00     3.7457)  ( 0.00    36.7705)

 CYCLE    4
  SDIIS (wt  0.000):  0.1958  0.4196  0.3847
 A-DIIS (wt  1.000):  0.0000  0.2745  0.7255
  DIIS coefficients:  0.0000  0.2745  0.7255
 SCF Error: norm([F,P])=      0.958677378823, max([F,P])=      0.213415705893
 orbitals (Q,E):
 ---------------
 S1/2 :1...6         ( 2.00    -5.8820)  ( 2.00    -1.0117)  ( 0.00    -0.3122)  ( 0.00     0.4551)
                     ( 0.00     5.1161)  ( 0.00  3692.3899)
 P1/2 :1...5         ( 2.00    -4.1204)  ( 0.00    -0.6701)  ( 0.00    -0.2488)  ( 0.00    -0.0054)
                     ( 0.00     2.1229)
 P3/2 :1...5         ( 4.00    -3.6042)  ( 0.00    -0.6159)  ( 0.00    -0.2380)  ( 0.00     0.0301)
                     ( 0.00     2.6730)
 D3/2 :1...3         ( 4.00    -1.4522)  ( 0.00    -0.1022)  ( 0.00     2.6907)
 D5/2 :1...3         ( 6.00    -1.3724)  ( 0.00    -0.0849)  ( 0.00     2.8784)
 F5/2 :1...3         ( 6.00    -5.6749)  ( 0.00     3.6215)  ( 0.00    35.8291)
 F7/2 :1...3         ( 8.00    -5.4919)  ( 0.00     3.7030)  ( 0.00    36.6898)

 CYCLE    5
  SDIIS (wt  0.014):  0.0205  0.1328  0.3535  0.4932
 A-DIIS (wt  0.986):  0.0000  0.0000  0.0725  0.9275
  DIIS coefficients:  0.0003  0.0019  0.0765  0.9214
 SCF Error: norm([F,P])=      0.426674710590, max([F,P])=      0.098591821099
 orbitals (Q,E):
 ---------------
 S1/2 :1...6         ( 2.00    -5.8647)  ( 2.00    -1.0088)  ( 0.00    -0.3115)  ( 0.00     0.4578)
                     ( 0.00     5.1303)  ( 0.00  3692.4380)
 P1/2 :1...5         ( 2.00    -4.1050)  ( 0.00    -0.6682)  ( 0.00    -0.2485)  ( 0.00    -0.0044)
                     ( 0.00     2.1318)
 P3/2 :1...5         ( 4.00    -3.5905)  ( 0.00    -0.6144)  ( 0.00    -0.2377)  ( 0.00     0.0313)
                     ( 0.00     2.6838)
 D3/2 :1...3         ( 4.00    -1.4424)  ( 0.00    -0.1001)  ( 0.00     2.7025)
 D5/2 :1...3         ( 6.00    -1.3633)  ( 0.00    -0.0827)  ( 0.00     2.8907)
 F5/2 :1...3         ( 6.00    -5.6387)  ( 0.00     3.6414)  ( 0.00    35.8715)
 F7/2 :1...3         ( 8.00    -5.4561)  ( 0.00     3.7230)  ( 0.00    36.7323)

 CYCLE    6
  SDIIS (wt  0.227):  0.0001  0.0172  0.0164  0.4257  0.5406
 A-DIIS (wt  0.773):  0.0000  0.0000  0.0000  0.4094  0.5906
  DIIS coefficients:  0.0000  0.0039  0.0037  0.4131  0.5792
 SCF Error: norm([F,P])=      0.338812570779, max([F,P])=      0.077498407124
 orbitals (Q,E):
 ---------------
 S1/2 :1...6         ( 2.00    -5.8741)  ( 2.00    -1.0106)  ( 0.00    -0.3120)  ( 0.00     0.4561)
                     ( 0.00     5.1227)  ( 0.00  3692.4146)
 P1/2 :1...5         ( 2.00    -4.1134)  ( 0.00    -0.6695)  ( 0.00    -0.2488)  ( 0.00    -0.0051)
                     ( 0.00     2.1268)
 P3/2 :1...5         ( 4.00    -3.5981)  ( 0.00    -0.6155)  ( 0.00    -0.2379)  ( 0.00     0.0305)
                     ( 0.00     2.6779)
 D3/2 :1...3         ( 4.00    -1.4480)  ( 0.00    -0.1015)  ( 0.00     2.6960)
 D5/2 :1...3         ( 6.00    -1.3685)  ( 0.00    -0.0841)  ( 0.00     2.8840)
 F5/2 :1...3         ( 6.00    -5.6569)  ( 0.00     3.6308)  ( 0.00    35.8505)
 F7/2 :1...3         ( 8.00    -5.4741)  ( 0.00     3.7124)  ( 0.00    36.7112)

 CYCLE    7
  SDIIS (wt  0.952): -0.0001 -0.0050  0.0119 -0.0237  1.0169
 A-DIIS (wt  0.048):  0.0000  0.0000  0.0000  0.0000  1.0000
  DIIS coefficients: -0.0001 -0.0048  0.0113 -0.0225  1.0160
 SCF Error: norm([F,P])=      0.026225263662, max([F,P])=      0.005784328437
 orbitals (Q,E):
 ---------------
 S1/2 :1...6         ( 2.00    -5.8731)  ( 2.00    -1.0104)  ( 0.00    -0.3119)  ( 0.00     0.4563)
                     ( 0.00     5.1235)  ( 0.00  3692.4165)
 P1/2 :1...5         ( 2.00    -4.1125)  ( 0.00    -0.6693)  ( 0.00    -0.2487)  ( 0.00    -0.0050)
                     ( 0.00     2.1273)
 P3/2 :1...5         ( 4.00    -3.5973)  ( 0.00    -0.6153)  ( 0.00    -0.2379)  ( 0.00     0.0306)
                     ( 0.00     2.6785)
 D3/2 :1...3         ( 4.00    -1.4474)  ( 0.00    -0.1013)  ( 0.00     2.6967)
 D5/2 :1...3         ( 6.00    -1.3679)  ( 0.00    -0.0840)  ( 0.00     2.8847)
 F5/2 :1...3         ( 6.00    -5.6553)  ( 0.00     3.6319)  ( 0.00    35.8523)
 F7/2 :1...3         ( 8.00    -5.4725)  ( 0.00     3.7134)  ( 0.00    36.7130)

 CYCLE    8
  SDIIS (wt  1.000): -0.0001 -0.0003 -0.0019  1.0023
  DIIS coefficients: -0.0001 -0.0003 -0.0019  1.0023
 SCF Error: norm([F,P])=      0.001566726665, max([F,P])=      0.000351325791
 orbitals (Q,E):
 ---------------
 S1/2 :1...6         ( 2.00    -5.8732)  ( 2.00    -1.0104)  ( 0.00    -0.3119)  ( 0.00     0.4563)
                     ( 0.00     5.1234)  ( 0.00  3692.4164)
 P1/2 :1...5         ( 2.00    -4.1125)  ( 0.00    -0.6693)  ( 0.00    -0.2487)  ( 0.00    -0.0050)
                     ( 0.00     2.1273)
 P3/2 :1...5         ( 4.00    -3.5973)  ( 0.00    -0.6153)  ( 0.00    -0.2379)  ( 0.00     0.0306)
                     ( 0.00     2.6785)
 D3/2 :1...3         ( 4.00    -1.4474)  ( 0.00    -0.1013)  ( 0.00     2.6967)
 D5/2 :1...3         ( 6.00    -1.3680)  ( 0.00    -0.0840)  ( 0.00     2.8847)
 F5/2 :1...3         ( 6.00    -5.6553)  ( 0.00     3.6318)  ( 0.00    35.8522)
 F7/2 :1...3         ( 8.00    -5.4726)  ( 0.00     3.7134)  ( 0.00    36.7129)

 CYCLE    9
  SDIIS (wt  1.000): -0.0000  0.0002 -0.0007 -0.0002 -0.0008 -0.1013 -0.9851  2.0879
  DIIS coefficients: -0.0000  0.0002 -0.0007 -0.0002 -0.0008 -0.1013 -0.9851  2.0879
 SCF Error: norm([F,P])=      0.000008962023, max([F,P])=      0.000002395340
 orbitals (Q,E):
 ---------------
 S1/2 :1...6         ( 2.00    -5.8732)  ( 2.00    -1.0104)  ( 0.00    -0.3119)  ( 0.00     0.4563)
                     ( 0.00     5.1234)  ( 0.00  3692.4164)
 P1/2 :1...5         ( 2.00    -4.1125)  ( 0.00    -0.6693)  ( 0.00    -0.2487)  ( 0.00    -0.0050)
                     ( 0.00     2.1273)
 P3/2 :1...5         ( 4.00    -3.5973)  ( 0.00    -0.6153)  ( 0.00    -0.2379)  ( 0.00     0.0306)
                     ( 0.00     2.6785)
 D3/2 :1...3         ( 4.00    -1.4474)  ( 0.00    -0.1013)  ( 0.00     2.6967)
 D5/2 :1...3         ( 6.00    -1.3680)  ( 0.00    -0.0840)  ( 0.00     2.8847)
 F5/2 :1...3         ( 6.00    -5.6553)  ( 0.00     3.6318)  ( 0.00    35.8522)
 F7/2 :1...3         ( 8.00    -5.4726)  ( 0.00     3.7134)  ( 0.00    36.7129)

 CYCLE   10
  SDIIS (wt  1.000):  0.0000 -0.0000  0.0011  0.0241 -0.0254  1.0001
  DIIS coefficients:  0.0000 -0.0000  0.0011  0.0241 -0.0254  1.0001
 SCF Error: norm([F,P])=      0.000000353601, max([F,P])=      0.000000082267
 orbitals (Q,E):
 ---------------
 S1/2 :1...6         ( 2.00    -5.8732)  ( 2.00    -1.0104)  ( 0.00    -0.3119)  ( 0.00     0.4563)
                     ( 0.00     5.1234)  ( 0.00  3692.4164)
 P1/2 :1...5         ( 2.00    -4.1125)  ( 0.00    -0.6693)  ( 0.00    -0.2487)  ( 0.00    -0.0050)
                     ( 0.00     2.1273)
 P3/2 :1...5         ( 4.00    -3.5973)  ( 0.00    -0.6153)  ( 0.00    -0.2379)  ( 0.00     0.0306)
                     ( 0.00     2.6785)
 D3/2 :1...3         ( 4.00    -1.4474)  ( 0.00    -0.1013)  ( 0.00     2.6967)
 D5/2 :1...3         ( 6.00    -1.3680)  ( 0.00    -0.0840)  ( 0.00     2.8847)
 F5/2 :1...3         ( 6.00    -5.6553)  ( 0.00     3.6318)  ( 0.00    35.8522)
 F7/2 :1...3         ( 8.00    -5.4726)  ( 0.00     3.7134)  ( 0.00    36.7129)

 SCF CONVERGED

 CYCLE   11
 *** Using FIT density in Focky
  SDIIS (wt  1.000): -0.0000 -0.0002 -0.0001 -0.0579  1.0581
  DIIS coefficients: -0.0000 -0.0002 -0.0001 -0.0579  1.0581
 SCF Error: norm([F,P])=      0.000000008670, max([F,P])=      0.000000001894
 orbitals (Q,E):
 ---------------
 S1/2 :1...6         ( 2.00    -5.8732)  ( 2.00    -1.0104)  ( 0.00    -0.3119)  ( 0.00     0.4563)
                     ( 0.00     5.1234)  ( 0.00  3692.4164)
 P1/2 :1...5         ( 2.00    -4.1125)  ( 0.00    -0.6693)  ( 0.00    -0.2487)  ( 0.00    -0.0050)
                     ( 0.00     2.1273)
 P3/2 :1...5         ( 4.00    -3.5973)  ( 0.00    -0.6153)  ( 0.00    -0.2379)  ( 0.00     0.0306)
                     ( 0.00     2.6785)
 D3/2 :1...3         ( 4.00    -1.4474)  ( 0.00    -0.1013)  ( 0.00     2.6967)
 D5/2 :1...3         ( 6.00    -1.3680)  ( 0.00    -0.0840)  ( 0.00     2.8847)
 F5/2 :1...3         ( 6.00    -5.6553)  ( 0.00     3.6318)  ( 0.00    35.8522)
 F7/2 :1...3         ( 8.00    -5.4726)  ( 0.00     3.7134)  ( 0.00    36.7129)


 Fit test: (difference of exact and fit density, squared integrated, result summed over spins)
         SCF:                                          0.00000037910254

 Gross Charges per Atom (Z minus electrons)
 ==========================================
             2.0000
 Net Total:  2.00000000



 =================================================================
 M U L T I P O L E   D E R I V E D   C H A R G E   A N A L Y S I S
 =================================================================

 See: M. Swart, P.Th. van Duijnen, J.G. Snijders, J.Comput.Chem., (2001), p. 79-88.

 --------------------------------------- 
 Multipole derived atomic charges (a.u.)
 --------------------------------------- 

        Atom    Level:     MDC-m        MDC-d        MDC-q
 ---------------------------------------------------------
     1     Pb           2.000000     2.000000     2.000000



 =======================================================================
 Electrostatic potential at the Nuclei due to electrons and other nuclei
 =======================================================================
  
         Atom                  Potential
         ----                  ---------
     1)   Pb                644.89953710
 Mulliken charges used for AMS results%charges...
Performing a single point calculation on the final geometry ...

 *** adf ***



 ===========================
 A T T A C H E D   F I L E S
 ===========================
  
 Restart/tmp/amstmp_ams_kid0.153892249/SkipGO.rkf*** SkipGO ***



 ===============================
 M O D E L   P A R A M E T E R S
 ===============================
  
 DENSITY FUNCTIONAL POTENTIAL (scf)
    LDA:                               VWN                                      
    Gradient Corrections:              Becke88 Perdew86                        == Not Default ==

 SPIN  (restricted / unrestr.)
    Molecule:                          Restricted
    Fragments:                         Restricted                               

 OTHER ASPECTS
    Relativistic Corrections:          Spin-Orbit (ZORA,MAPA)                  == Not Default ==

    Nuclear Charge Density Model:      Point Charge Nuclei                      
    Core Treatment:                    Frozen Orbital(s)                        

    Hyperfine or Zeeman Interaction:   ---                                      



 ===============
 G E O M E T R Y  ***  Single Atom  ***
 ===============
  

 ATOMS
 =====                            X Y Z                    CHARGE
                                (Angstrom)             Nucl     +Core       At.Mass
                       --------------------------    ----------------       -------
    1  Pb              0.0000    0.0000    0.0000     82.00     36.00      207.9766


 FRAGMENTS
 =========                                     Atoms in this Fragment     Cart. coord.s (Angstrom)
                                               -------------------------------------------------------
    1  Pb                                                1  Pb           0.0000    0.0000    0.0000



 =====================================
 S Y M M E T R Y ,   E L E C T R O N S
 =====================================
  
 Symmetry: ATOM

 Double Group Irreducible Representations (spinor symmetry)
 -----------------------------------------------------------
 S1/2
 P1/2
 P3/2
 D3/2
 D5/2
 F5/2
 F7/2


 Configuration of Valence Electrons
 ==================================
 ( determined in the SCF procedure )

 Total:   34

 Net Charge: 2 (Nuclei minus Electrons)

 Aufbau principle for MO occupations will be applied through SCF cycle no.     150
 Thereafter, the program will assign electrons to MOs that are spatially
 similar to the occupied MOs in a "reference" cycle ("KeepOrbitals").
 The reference cycle is always the PREVIOUS cycle: it will evolve with
 the SCF procedure.
1
 ***************************************************************************************************



                                      ****************************************
                                      *  B U I L D : (Fragments, Functions)  *
                                      ****************************************
  



 =======
 S F O s  ***  (Symmetrized Fragment Orbitals)  ***
 =======
  
 SFOs are linear combinations of (valence) Fragment Orbitals (FOs), such that the SFOs transform as the
 irreducible representations of the (molecular) symmetry group. Each SFO is therefore characterized by
 an irrep of the molecule and by a few (or only one) generating FOs.
 The SFOs constitute a symmetry-adapted basis for the Fock matrix. The MO eigenvector coefficients in
 this basis provide a direct interpretation of the MOs in terms of Frontier Orbital Theory.

 The SFOs are combined with auxiliary Core Functions (CFs) to ensure orthogonalization on the (frozen)
 Core Orbitals (COs). The Core-orthogonalized SFOs (CSFOs) constitute the true Fock basis.

 The FOs, and hence also the (C)SFOs are combinations of the elementary basis functions (BAS). The basis
 functions that participate in the description of the SFOs depend on the irrep. The indices of the
 involved functions are printed below for each irrep.
 (The complete list of primitive basis functions is printed in another section)

 Total nr. of (C)SFOs (summation over all irreps) :    57

 NOTE: a (C)SFO that is defined as a combination of more than one FO is usually NOT normalized.

 NOTE: the (C)SFOs are single group symmetry adapted orbitals.



                                       === S ===
 Nr. of SFOs :    6
 Cartesian basis functions that participate in this irrep (total number =    10) :
      1     2     3     4    26    27    28    29    30    31

    SFO  (index         Fragment          Generating    Expansion in Fragment Orbitals
  indx  incl.CFs)   Occup   Orb.Energy   FragmentType  Coeff.   Orbital     on Fragment
 --------------------------------------------------------------------------------------
     1       5      2.000      -5.257 au  Pb            1.00      1 S               1
                        (    -143.049 eV)
     2       6      2.000      -0.444 au  Pb            1.00      2 S               1
                        (     -12.093 eV)
     3       7       --         0.063 au  Pb            1.00      3 S               1
                        (       1.706 eV)
     4       8       --         0.955 au  Pb            1.00      4 S               1
                        (      25.999 eV)
     5       9       --         5.713 au  Pb            1.00      5 S               1
                        (     155.468 eV)
     6      10       --      3692.882 au  Pb            1.00      6 S               1
                        (  100488.432 eV)



                                       === P:x ===
 Nr. of SFOs :    5
 Cartesian basis functions that participate in this irrep (total number =     8) :
      5     8    11    32    35    38    41    44

    SFO  (index         Fragment          Generating    Expansion in Fragment Orbitals
  indx  incl.CFs)   Occup   Orb.Energy   FragmentType  Coeff.   Orbital     on Fragment
 --------------------------------------------------------------------------------------
     1       4      2.000      -3.139 au  Pb            1.00      1 P:x             1
                        (     -85.422 eV)
     2       5      0.667      -0.133 au  Pb            1.00      2 P:x             1
                        (      -3.632 eV)
     3       6       --         0.045 au  Pb            1.00      3 P:x             1
                        (       1.212 eV)
     4       7       --         0.426 au  Pb            1.00      4 P:x             1
                        (      11.596 eV)
     5       8       --         3.056 au  Pb            1.00      5 P:x             1
                        (      83.146 eV)



                                       === P:y ===
 Nr. of SFOs :    5
 Cartesian basis functions that participate in this irrep (total number =     8) :
      6     9    12    33    36    39    42    45

    SFO  (index         Fragment          Generating    Expansion in Fragment Orbitals
  indx  incl.CFs)   Occup   Orb.Energy   FragmentType  Coeff.   Orbital     on Fragment
 --------------------------------------------------------------------------------------
     1       4      2.000      -3.139 au  Pb            1.00      1 P:y             1
                        (     -85.422 eV)
     2       5      0.667      -0.133 au  Pb            1.00      2 P:y             1
                        (      -3.632 eV)
     3       6       --         0.045 au  Pb            1.00      3 P:y             1
                        (       1.212 eV)
     4       7       --         0.426 au  Pb            1.00      4 P:y             1
                        (      11.596 eV)
     5       8       --         3.056 au  Pb            1.00      5 P:y             1
                        (      83.146 eV)



                                       === P:z ===
 Nr. of SFOs :    5
 Cartesian basis functions that participate in this irrep (total number =     8) :
      7    10    13    34    37    40    43    46

    SFO  (index         Fragment          Generating    Expansion in Fragment Orbitals
  indx  incl.CFs)   Occup   Orb.Energy   FragmentType  Coeff.   Orbital     on Fragment
 --------------------------------------------------------------------------------------
     1       4      2.000      -3.139 au  Pb            1.00      1 P:z             1
                        (     -85.422 eV)
     2       5      0.667      -0.133 au  Pb            1.00      2 P:z             1
                        (      -3.632 eV)
     3       6       --         0.045 au  Pb            1.00      3 P:z             1
                        (       1.212 eV)
     4       7       --         0.426 au  Pb            1.00      4 P:z             1
                        (      11.596 eV)
     5       8       --         3.056 au  Pb            1.00      5 P:z             1
                        (      83.146 eV)



                                       === D:z2 ===
 Nr. of SFOs :    3
 Cartesian basis functions that participate in this irrep (total number =    15) :
     14    17    19    20    23    25    47    50    52    53
     56    58    59    62    64

    SFO  (index         Fragment          Generating    Expansion in Fragment Orbitals
  indx  incl.CFs)   Occup   Orb.Energy   FragmentType  Coeff.   Orbital     on Fragment
 --------------------------------------------------------------------------------------
     1       7      2.000      -0.786 au  Pb            1.00      1 D:z2            1
                        (     -21.381 eV)
     2       8       --         0.427 au  Pb            1.00      2 D:z2            1
                        (      11.626 eV)
     3       9       --         3.399 au  Pb            1.00      3 D:z2            1
                        (      92.482 eV)



                                       === D:x2-y2 ===
 Nr. of SFOs :    3
 Cartesian basis functions that participate in this irrep (total number =    10) :
     14    17    20    23    47    50    53    56    59    62

    SFO  (index         Fragment          Generating    Expansion in Fragment Orbitals
  indx  incl.CFs)   Occup   Orb.Energy   FragmentType  Coeff.   Orbital     on Fragment
 --------------------------------------------------------------------------------------
     1       5      2.000      -0.786 au  Pb            1.00      1 D:x2-y2         1
                        (     -21.381 eV)
     2       6       --         0.427 au  Pb            1.00      2 D:x2-y2         1
                        (      11.626 eV)
     3       7       --         3.399 au  Pb            1.00      3 D:x2-y2         1
                        (      92.482 eV)



                                       === D:xy ===
 Nr. of SFOs :    3
 Cartesian basis functions that participate in this irrep (total number =     5) :
     15    21    48    54    60

    SFO  (index         Fragment          Generating    Expansion in Fragment Orbitals
  indx  incl.CFs)   Occup   Orb.Energy   FragmentType  Coeff.   Orbital     on Fragment
 --------------------------------------------------------------------------------------
     1       3      2.000      -0.786 au  Pb            1.00      1 D:xy            1
                        (     -21.381 eV)
     2       4       --         0.427 au  Pb            1.00      2 D:xy            1
                        (      11.626 eV)
     3       5       --         3.399 au  Pb            1.00      3 D:xy            1
                        (      92.482 eV)



                                       === D:xz ===
 Nr. of SFOs :    3
 Cartesian basis functions that participate in this irrep (total number =     5) :
     16    22    49    55    61

    SFO  (index         Fragment          Generating    Expansion in Fragment Orbitals
  indx  incl.CFs)   Occup   Orb.Energy   FragmentType  Coeff.   Orbital     on Fragment
 --------------------------------------------------------------------------------------
     1       3      2.000      -0.786 au  Pb            1.00      1 D:xz            1
                        (     -21.381 eV)
     2       4       --         0.427 au  Pb            1.00      2 D:xz            1
                        (      11.626 eV)
     3       5       --         3.399 au  Pb            1.00      3 D:xz            1
                        (      92.482 eV)



                                       === D:yz ===
 Nr. of SFOs :    3
 Cartesian basis functions that participate in this irrep (total number =     5) :
     18    24    51    57    63

    SFO  (index         Fragment          Generating    Expansion in Fragment Orbitals
  indx  incl.CFs)   Occup   Orb.Energy   FragmentType  Coeff.   Orbital     on Fragment
 --------------------------------------------------------------------------------------
     1       3      2.000      -0.786 au  Pb            1.00      1 D:yz            1
                        (     -21.381 eV)
     2       4       --         0.427 au  Pb            1.00      2 D:yz            1
                        (      11.626 eV)
     3       5       --         3.399 au  Pb            1.00      3 D:yz            1
                        (      92.482 eV)



                                       === F:z3 ===
 Nr. of SFOs :    3
 Cartesian basis functions that participate in this irrep (total number =     9) :
     67    72    74    77    82    84    87    92    94

    SFO  (index         Fragment          Generating    Expansion in Fragment Orbitals
  indx  incl.CFs)   Occup   Orb.Energy   FragmentType  Coeff.   Orbital     on Fragment
 --------------------------------------------------------------------------------------
     1       1      2.000      -4.933 au  Pb            1.00      1 F:z3            1
                        (    -134.237 eV)
     2       2       --         4.295 au  Pb            1.00      2 F:z3            1
                        (     116.866 eV)
     3       3       --        36.958 au  Pb            1.00      3 F:z3            1
                        (    1005.677 eV)



                                       === F:z ===
 Nr. of SFOs :    3
 Cartesian basis functions that participate in this irrep (total number =     6) :
     67    72    77    82    87    92

    SFO  (index         Fragment          Generating    Expansion in Fragment Orbitals
  indx  incl.CFs)   Occup   Orb.Energy   FragmentType  Coeff.   Orbital     on Fragment
 --------------------------------------------------------------------------------------
     1       1      2.000      -4.933 au  Pb            1.00      1 F:z             1
                        (    -134.237 eV)
     2       2       --         4.295 au  Pb            1.00      2 F:z             1
                        (     116.866 eV)
     3       3       --        36.958 au  Pb            1.00      3 F:z             1
                        (    1005.677 eV)



                                       === F:xyz ===
 Nr. of SFOs :    3
 Cartesian basis functions that participate in this irrep (total number =     3) :
     69    79    89

    SFO  (index         Fragment          Generating    Expansion in Fragment Orbitals
  indx  incl.CFs)   Occup   Orb.Energy   FragmentType  Coeff.   Orbital     on Fragment
 --------------------------------------------------------------------------------------
     1       1      2.000      -4.933 au  Pb            1.00      1 F:xyz           1
                        (    -134.237 eV)
     2       2       --         4.295 au  Pb            1.00      2 F:xyz           1
                        (     116.866 eV)
     3       3       --        36.958 au  Pb            1.00      3 F:xyz           1
                        (    1005.677 eV)



                                       === F:z2x ===
 Nr. of SFOs :    3
 Cartesian basis functions that participate in this irrep (total number =     9) :
     65    68    70    75    78    80    85    88    90

    SFO  (index         Fragment          Generating    Expansion in Fragment Orbitals
  indx  incl.CFs)   Occup   Orb.Energy   FragmentType  Coeff.   Orbital     on Fragment
 --------------------------------------------------------------------------------------
     1       1      2.000      -4.933 au  Pb            1.00      1 F:z2x           1
                        (    -134.237 eV)
     2       2       --         4.295 au  Pb            1.00      2 F:z2x           1
                        (     116.866 eV)
     3       3       --        36.958 au  Pb            1.00      3 F:z2x           1
                        (    1005.677 eV)



                                       === F:z2y ===
 Nr. of SFOs :    3
 Cartesian basis functions that participate in this irrep (total number =     9) :
     66    71    73    76    81    83    86    91    93

    SFO  (index         Fragment          Generating    Expansion in Fragment Orbitals
  indx  incl.CFs)   Occup   Orb.Energy   FragmentType  Coeff.   Orbital     on Fragment
 --------------------------------------------------------------------------------------
     1       1      2.000      -4.933 au  Pb            1.00      1 F:z2y           1
                        (    -134.237 eV)
     2       2       --         4.295 au  Pb            1.00      2 F:z2y           1
                        (     116.866 eV)
     3       3       --        36.958 au  Pb            1.00      3 F:z2y           1
                        (    1005.677 eV)



                                       === F:x ===
 Nr. of SFOs :    3
 Cartesian basis functions that participate in this irrep (total number =     6) :
     65    68    75    78    85    88

    SFO  (index         Fragment          Generating    Expansion in Fragment Orbitals
  indx  incl.CFs)   Occup   Orb.Energy   FragmentType  Coeff.   Orbital     on Fragment
 --------------------------------------------------------------------------------------
     1       1      2.000      -4.933 au  Pb            1.00      1 F:x             1
                        (    -134.237 eV)
     2       2       --         4.295 au  Pb            1.00      2 F:x             1
                        (     116.866 eV)
     3       3       --        36.958 au  Pb            1.00      3 F:x             1
                        (    1005.677 eV)



                                       === F:y ===
 Nr. of SFOs :    3
 Cartesian basis functions that participate in this irrep (total number =     6) :
     66    71    76    81    86    91

    SFO  (index         Fragment          Generating    Expansion in Fragment Orbitals
  indx  incl.CFs)   Occup   Orb.Energy   FragmentType  Coeff.   Orbital     on Fragment
 --------------------------------------------------------------------------------------
     1       1      2.000      -4.933 au  Pb            1.00      1 F:y             1
                        (    -134.237 eV)
     2       2       --         4.295 au  Pb            1.00      2 F:y             1
                        (     116.866 eV)
     3       3       --        36.958 au  Pb            1.00      3 F:y             1
                        (    1005.677 eV)



 ================================
 (Slater-type)  F U N C T I O N S  ***  (Basis and Fit)  ***
 ================================
  

 Atom Type    1  (Pb)
 ==============

 Valence Basis Sets:  26
 -----------------------
   1 S   60.000000
   2 S   37.900000
   3 S   22.100000
   4 S   13.150000
   2 P   38.650000
   3 P   20.600000
   4 P   12.450000
   3 D   23.450000
   4 D   11.600000
   1 S  196.000000
   5 S    7.650000
   5 S    5.200000
   6 S    3.700000
   6 S    2.400000
   6 S    1.580000
   5 P    6.600000
   5 P    4.200000
   6 P    2.700000
   6 P    1.600000
   6 P    0.960000
   5 D    6.000000
   5 D    3.650000
   5 D    2.200000
   4 F   17.560000
   4 F    9.950000
   4 F    5.750000

 Frozen Core Shells
 ------------------
    S:  4
    P:  3
    D:  2


 BAS: List of all Elementary Cartesian Basis Functions
 =====================================================

 The numbering in the list below (to the right of the function characteristics) is referred
 to in print-outs of MO eigenvectors and Mulliken populations in the BAS representation
 (as contrasted to the SFO representation).

 Notes:
 1. The functions are characterized by a polynomial prefactor (powers of x,y,z and r) and
    an exponential decay factor alpha.
 2. Since the basis sets are specific for an atom TYPE, the individual functions occur on
    all atoms of that type.
 3. The word 'Core' in the left margin signals that it is a Core Function (CF) : not a
    degree of freedom in the valence set, but only used to ensure orthogonalization of
    the other valence basis functions on the frozen Core Orbitals.


 (power of) X  Y  Z  R     Alpha  on Atom
            ==========     =====     ==========

 Pb                                   1
                                  ---------------------------------------------------------------------------
    Core    0  0  0  0    60.000      1
    Core    0  0  0  1    37.900      2
    Core    0  0  0  2    22.100      3
    Core    0  0  0  3    13.150      4
    Core    1  0  0  0    38.650      5
    Core    0  1  0  0    38.650      6
    Core    0  0  1  0    38.650      7
    Core    1  0  0  1    20.600      8
    Core    0  1  0  1    20.600      9
    Core    0  0  1  1    20.600     10
    Core    1  0  0  2    12.450     11
    Core    0  1  0  2    12.450     12
    Core    0  0  1  2    12.450     13
    Core    2  0  0  0    23.450     14
    Core    1  1  0  0    23.450     15
    Core    1  0  1  0    23.450     16
    Core    0  2  0  0    23.450     17
    Core    0  1  1  0    23.450     18
    Core    0  0  2  0    23.450     19
    Core    2  0  0  1    11.600     20
    Core    1  1  0  1    11.600     21
    Core    1  0  1  1    11.600     22
    Core    0  2  0  1    11.600     23
    Core    0  1  1  1    11.600     24
    Core    0  0  2  1    11.600     25
            0  0  0  0   196.000     26
            0  0  0  4     7.650     27
            0  0  0  4     5.200     28
            0  0  0  5     3.700     29
            0  0  0  5     2.400     30
            0  0  0  5     1.580     31
            1  0  0  3     6.600     32
            0  1  0  3     6.600     33
            0  0  1  3     6.600     34
            1  0  0  3     4.200     35
            0  1  0  3     4.200     36
            0  0  1  3     4.200     37
            1  0  0  4     2.700     38
            0  1  0  4     2.700     39
            0  0  1  4     2.700     40
            1  0  0  4     1.600     41
            0  1  0  4     1.600     42
            0  0  1  4     1.600     43
            1  0  0  4     0.960     44
            0  1  0  4     0.960     45
            0  0  1  4     0.960     46
            2  0  0  2     6.000     47
            1  1  0  2     6.000     48
            1  0  1  2     6.000     49
            0  2  0  2     6.000     50
            0  1  1  2     6.000     51
            0  0  2  2     6.000     52
            2  0  0  2     3.650     53
            1  1  0  2     3.650     54
            1  0  1  2     3.650     55
            0  2  0  2     3.650     56
            0  1  1  2     3.650     57
            0  0  2  2     3.650     58
            2  0  0  2     2.200     59
            1  1  0  2     2.200     60
            1  0  1  2     2.200     61
            0  2  0  2     2.200     62
            0  1  1  2     2.200     63
            0  0  2  2     2.200     64
            3  0  0  0    17.560     65
            2  1  0  0    17.560     66
            2  0  1  0    17.560     67
            1  2  0  0    17.560     68
            1  1  1  0    17.560     69
            1  0  2  0    17.560     70
            0  3  0  0    17.560     71
            0  2  1  0    17.560     72
            0  1  2  0    17.560     73
            0  0  3  0    17.560     74
            3  0  0  0     9.950     75
            2  1  0  0     9.950     76
            2  0  1  0     9.950     77
            1  2  0  0     9.950     78
            1  1  1  0     9.950     79
            1  0  2  0     9.950     80
            0  3  0  0     9.950     81
            0  2  1  0     9.950     82
            0  1  2  0     9.950     83
            0  0  3  0     9.950     84
            3  0  0  0     5.750     85
            2  1  0  0     5.750     86
            2  0  1  0     5.750     87
            1  2  0  0     5.750     88
            1  1  1  0     5.750     89
            1  0  2  0     5.750     90
            0  3  0  0     5.750     91
            0  2  1  0     5.750     92
            0  1  2  0     5.750     93
            0  0  3  0     5.750     94

 Total number of charge fitting functions (nprimf)       342
 Total number of Cartesian basis functions (naos)         94
 Total number of Cartesian core functions  (ncos)         25

1
 ***************************************************************************************************



                                              ***********************
                                              *  T E C H N I C A L  *
                                              ***********************
  



 =============================================================
 P A R A L L E L I Z A T I O N  and  V E C T O R I Z A T I O N
 =============================================================
  
 Nr of parallel processes:                               12
 Maximum vector length in NumInt loops:                 128



 =====================
 S C F   U P D A T E S
 =====================
  
 Max. nr. of cycles:                               300
 Convergence criterion:                              0.0000010000
   secondary criterion:                              0.0010000000

 Mix parameter (when DIIS does not apply):           0.2000000000
 Mixed ADIIS+SDIIS will be used                  
    Max number of expansion vectors:                10
    Pure ADIIS when Max([F,P]) is above              0.1000000000
    Pure SDIIS when Max([F,P]) is below              0.0010000000
 Automatic ElectronSmearing (in case of problematic SCF convergence) disabled



 =================
 P R E C I S I O N  ***  (General: NumInt, NeglectFunctionTails, ...)  ***
 =================
  

 NumInt:           Target precision:                 4.0000000000
 -------           Initial precision:                4.0000000000
                   Min. precision (optimization):    4.0000000000

 Neglect Functions:          Basis functions:        0.1000000000E-05
 ------------------          Fit functions:          0.1000000000E-05



 ===========================
 L I N E A R   S C A L I N G
 ===========================
  

 Cut-off radii density fit:                        0.1000000000E-07
 Overlap cut-off criterion AO matrix elements:     0.1000000000E-05
 Cut-offs for Coulomb potential and fitted density:0.1000000000E-07
 Cut-off criterion for Coulomb multipole terms:    0.1000000000E-07
 Progressive Convergence parameter:                 0.000000000    

 Number of elements of the density matrix on this node (used, total):      4465      4465



 ===========================================
 Numerical Integration : Fuzzy Cells (Becke)
 ===========================================
  
 Becke grid quality: NORMAL         
  
 Lebedev angular grid order:             min:  11 max:  23
 Nr. of radial points:                   min: 123 max: 123

 Total nr. of points:        123
 Nr. of blocks:                1
 Block length:               123
 Nr. of dummy points:          0


 Test of Precision of the Numerical Integration Grid
 ===================================================

 Integral of the Total Core Density:                  46.00000002977841
 Relative Error:                                       6.474E-10



 ========================
 Density Fitting (zlmFit)
 ========================
  
 ZlmFit Fit Quality: NORMAL         
  
 Max L-expansion:                        min:   7 max:   7
 Nr. of radial interpolation points:     min: 114 max: 114



 =====
 S C F  ***  ScaSCF  ***
 =====
  
 Initial density matrix is taken from previous geometry

 CYCLE    1
 SCF Error: norm([F,P])=      1.824480083459, max([F,P])=      0.485517680545
 orbitals (Q,E):
 ---------------
 S1/2 :1...6         ( 2.00    -5.8732)  ( 2.00    -1.0104)  ( 0.00    -0.3119)  ( 0.00     0.4563)
                     ( 0.00     5.1234)  ( 0.00  3692.4164)
 P1/2 :1...5         ( 2.00    -4.1125)  ( 0.00    -0.6693)  ( 0.00    -0.2487)  ( 0.00    -0.0050)
                     ( 0.00     2.1273)
 P3/2 :1...5         ( 4.00    -3.5973)  ( 0.00    -0.6153)  ( 0.00    -0.2379)  ( 0.00     0.0306)
                     ( 0.00     2.6785)
 D3/2 :1...3         ( 4.00    -1.4474)  ( 0.00    -0.1013)  ( 0.00     2.6967)
 D5/2 :1...3         ( 6.00    -1.3680)  ( 0.00    -0.0840)  ( 0.00     2.8847)
 F5/2 :1...3         ( 6.00    -5.6553)  ( 0.00     3.6318)  ( 0.00    35.8522)
 F7/2 :1...3         ( 8.00    -5.4726)  ( 0.00     3.7134)  ( 0.00    36.7129)

 CYCLE    2
  SDIIS (wt  0.000):  0.0000  1.0000
 A-DIIS (wt  1.000):  0.0000  1.0000
  DIIS coefficients:  0.0000  1.0000
 SCF Error: norm([F,P])=      0.000000001062, max([F,P])=      0.000000000214
 orbitals (Q,E):
 ---------------
 S1/2 :1...6         ( 2.00    -5.8732)  ( 2.00    -1.0104)  ( 0.00    -0.3119)  ( 0.00     0.4563)
                     ( 0.00     5.1234)  ( 0.00  3692.4164)
 P1/2 :1...5         ( 2.00    -4.1125)  ( 0.00    -0.6693)  ( 0.00    -0.2487)  ( 0.00    -0.0050)
                     ( 0.00     2.1273)
 P3/2 :1...5         ( 4.00    -3.5973)  ( 0.00    -0.6153)  ( 0.00    -0.2379)  ( 0.00     0.0306)
                     ( 0.00     2.6785)
 D3/2 :1...3         ( 4.00    -1.4474)  ( 0.00    -0.1013)  ( 0.00     2.6967)
 D5/2 :1...3         ( 6.00    -1.3680)  ( 0.00    -0.0840)  ( 0.00     2.8847)
 F5/2 :1...3         ( 6.00    -5.6553)  ( 0.00     3.6318)  ( 0.00    35.8522)
 F7/2 :1...3         ( 8.00    -5.4726)  ( 0.00     3.7134)  ( 0.00    36.7129)

 SCF CONVERGED

 CYCLE    3
1
 ***************************************************************************************************



                                                *******************
                                                *  R E S U L T S  *
                                                *******************
  
 *** Using FIT density in Focky
  SDIIS (wt  0.000):  0.5788  0.4212
 A-DIIS (wt  1.000):  0.5000  0.5000
  DIIS coefficients:  0.5000  0.5000
 SCF Error: norm([F,P])=      0.000000001456, max([F,P])=      0.000000000320

 Scaled ZORA Orbital Energies, per Irrep and Spin:
 =================================================
                        Occup              E (au)              E (eV)       Diff (eV) with prev. cycle
                        -----      --------------------        ------       --------------------------
 S1/2
               1        2.000     -0.58731547026156E+01      -159.817               1.57E-09
               2        2.000     -0.10104132178982E+01       -27.495               3.62E-10
               3        0.000     -0.31192623849389E+00        -8.488
               4        0.000      0.45630322435111E+00        12.417
               5        0.000      0.51234322818631E+01       139.416
               6        0.000      0.36924163929680E+04    100475.762
 P1/2
               1        2.000     -0.41125323050156E+01      -111.908               1.44E-09
               2        0.000     -0.66934938554390E+00       -18.214
               3        0.000     -0.24872849983758E+00        -6.768
               4        0.000     -0.49953808383878E-02        -0.136
               5        0.000      0.21273167601958E+01        57.887
 P3/2
               1        4.000     -0.35973190633124E+01       -97.888               1.32E-09
               2        0.000     -0.61532291715565E+00       -16.744
               3        0.000     -0.23786810086334E+00        -6.473
               4        0.000      0.30624573261064E-01         0.833
               5        0.000      0.26784908493092E+01        72.885
 D3/2
               1        4.000     -0.14473971533109E+01       -39.386               9.93E-10
               2        0.000     -0.10130878763293E+00        -2.757
               3        0.000      0.26966900171561E+01        73.381
 D5/2
               1        6.000     -0.13679590531652E+01       -37.224               9.46E-10
               2        0.000     -0.83974547800049E-01        -2.285
               3        0.000      0.28846641022429E+01        78.496
 F5/2
               1        6.000     -0.56553482733767E+01      -153.890               2.60E-09
               2        0.000      0.36318268652256E+01        98.827
               3        0.000      0.35852171198529E+02       975.587
 F7/2
               1        8.000     -0.54725859982697E+01      -148.917               2.58E-09
               2        0.000      0.37133849528478E+01       101.046
               3        0.000      0.36712940304739E+02       999.010
  
 HOMO :        2 S1/2             -0.10104132178982E+01
 LUMO :        2 P1/2             -0.66934938554390E+00
  


 Orbital Energies, all Irreps
 ========================================

 Irrep        no.  (spin)   Occup              E (au)                E (eV)
 ---------------------------------------------------------------------------
 S1/2          1             2.00       -0.58731547026156E+01      -159.8167
 F5/2          1             6.00       -0.56553482733767E+01      -153.8899
 F7/2          1             8.00       -0.54725859982697E+01      -148.9166
 P1/2          1             2.00       -0.41125323050156E+01      -111.9077
 P3/2          1             4.00       -0.35973190633124E+01       -97.8880
 D3/2          1             4.00       -0.14473971533109E+01       -39.3857
 D5/2          1             6.00       -0.13679590531652E+01       -37.2241
 S1/2          2             2.00       -0.10104132178982E+01       -27.4947
 P1/2          2             0.00       -0.66934938554390E+00       -18.2139
[...]
    Gradient Corrections:              Becke88 Perdew86                        == Not Default ==

 SPIN  (restricted / unrestr.)
    Molecule:                          Restricted
    Fragments:                         Restricted                               

 OTHER ASPECTS
    Relativistic Corrections:          Spin-Orbit (ZORA,MAPA)                  == Not Default ==

    Nuclear Charge Density Model:      Point Charge Nuclei                      
    Core Treatment:                    Frozen Orbital(s)                        

    Hyperfine or Zeeman Interaction:   ---                                      



 ===============
 G E O M E T R Y  ***  Single Atom  ***
 ===============
  

 ATOMS
 =====                            X Y Z                    CHARGE
                                (Angstrom)             Nucl     +Core       At.Mass
                       --------------------------    ----------------       -------
    1  Pb              0.0000    0.0000    0.0000     82.00     36.00      207.9766


 FRAGMENTS
 =========                                     Atoms in this Fragment     Cart. coord.s (Angstrom)
                                               -------------------------------------------------------
    1  Pb                                                1  Pb           0.0000    0.0000    0.0000



 =====================================
 S Y M M E T R Y ,   E L E C T R O N S
 =====================================
  
 Symmetry: NOSYM

 Double Group Irreducible Representations (spinor symmetry)
 -----------------------------------------------------------
 A1/2


 Configuration of Valence Electrons
 ==================================
 ( determined in the SCF procedure )

 Total:   34

 Net Charge: 2 (Nuclei minus Electrons)

 Aufbau principle for MO occupations will be applied through SCF cycle no.     150
 Thereafter, the program will assign electrons to MOs that are spatially
 similar to the occupied MOs in a "reference" cycle ("KeepOrbitals").
 The reference cycle is always the PREVIOUS cycle: it will evolve with
 the SCF procedure.
1
 ***************************************************************************************************



                                      ****************************************
                                      *  B U I L D : (Fragments, Functions)  *
                                      ****************************************
  

 Total nr. of (C)SFOs (summation over all irreps) :    57

 Specify PRINT SFO in the input file to get a full list

 Nr. of SFOs for ir.rep.           A :    57



 ================================
 (Slater-type)  F U N C T I O N S  ***  (Basis and Fit)  ***
 ================================
  

 Atom Type    1  (Pb)
 ==============

 Valence Basis Sets:  26
 -----------------------
   1 S   60.000000
   2 S   37.900000
   3 S   22.100000
   4 S   13.150000
   2 P   38.650000
   3 P   20.600000
   4 P   12.450000
   3 D   23.450000
   4 D   11.600000
   1 S  196.000000
   5 S    7.650000
   5 S    5.200000
   6 S    3.700000
   6 S    2.400000
   6 S    1.580000
   5 P    6.600000
   5 P    4.200000
   6 P    2.700000
   6 P    1.600000
   6 P    0.960000
   5 D    6.000000
   5 D    3.650000
   5 D    2.200000
   4 F   17.560000
   4 F    9.950000
   4 F    5.750000

 Frozen Core Shells
 ------------------
    S:  4
    P:  3
    D:  2


 BAS: List of all Elementary Cartesian Basis Functions
 =====================================================

 The numbering in the list below (to the right of the function characteristics) is referred
 to in print-outs of MO eigenvectors and Mulliken populations in the BAS representation
 (as contrasted to the SFO representation).

 Notes:
 1. The functions are characterized by a polynomial prefactor (powers of x,y,z and r) and
    an exponential decay factor alpha.
 2. Since the basis sets are specific for an atom TYPE, the individual functions occur on
    all atoms of that type.
 3. The word 'Core' in the left margin signals that it is a Core Function (CF) : not a
    degree of freedom in the valence set, but only used to ensure orthogonalization of
    the other valence basis functions on the frozen Core Orbitals.


 (power of) X  Y  Z  R     Alpha  on Atom
            ==========     =====     ==========

 Pb                                   1
                                  ---------------------------------------------------------------------------
    Core    0  0  0  0    60.000      1
    Core    0  0  0  1    37.900      2
    Core    0  0  0  2    22.100      3
    Core    0  0  0  3    13.150      4
    Core    1  0  0  0    38.650      5
    Core    0  1  0  0    38.650      6
    Core    0  0  1  0    38.650      7
    Core    1  0  0  1    20.600      8
    Core    0  1  0  1    20.600      9
    Core    0  0  1  1    20.600     10
    Core    1  0  0  2    12.450     11
    Core    0  1  0  2    12.450     12
    Core    0  0  1  2    12.450     13
    Core    2  0  0  0    23.450     14
    Core    1  1  0  0    23.450     15
    Core    1  0  1  0    23.450     16
    Core    0  2  0  0    23.450     17
    Core    0  1  1  0    23.450     18
    Core    0  0  2  0    23.450     19
    Core    2  0  0  1    11.600     20
    Core    1  1  0  1    11.600     21
    Core    1  0  1  1    11.600     22
    Core    0  2  0  1    11.600     23
    Core    0  1  1  1    11.600     24
    Core    0  0  2  1    11.600     25
            0  0  0  0   196.000     26
            0  0  0  4     7.650     27
            0  0  0  4     5.200     28
            0  0  0  5     3.700     29
            0  0  0  5     2.400     30
            0  0  0  5     1.580     31
            1  0  0  3     6.600     32
            0  1  0  3     6.600     33
            0  0  1  3     6.600     34
            1  0  0  3     4.200     35
            0  1  0  3     4.200     36
            0  0  1  3     4.200     37
            1  0  0  4     2.700     38
            0  1  0  4     2.700     39
            0  0  1  4     2.700     40
            1  0  0  4     1.600     41
            0  1  0  4     1.600     42
            0  0  1  4     1.600     43
            1  0  0  4     0.960     44
            0  1  0  4     0.960     45
            0  0  1  4     0.960     46
            2  0  0  2     6.000     47
            1  1  0  2     6.000     48
            1  0  1  2     6.000     49
            0  2  0  2     6.000     50
            0  1  1  2     6.000     51
            0  0  2  2     6.000     52
            2  0  0  2     3.650     53
            1  1  0  2     3.650     54
            1  0  1  2     3.650     55
            0  2  0  2     3.650     56
            0  1  1  2     3.650     57
            0  0  2  2     3.650     58
            2  0  0  2     2.200     59
            1  1  0  2     2.200     60
            1  0  1  2     2.200     61
            0  2  0  2     2.200     62
            0  1  1  2     2.200     63
            0  0  2  2     2.200     64
            3  0  0  0    17.560     65
            2  1  0  0    17.560     66
            2  0  1  0    17.560     67
            1  2  0  0    17.560     68
            1  1  1  0    17.560     69
            1  0  2  0    17.560     70
            0  3  0  0    17.560     71
            0  2  1  0    17.560     72
            0  1  2  0    17.560     73
            0  0  3  0    17.560     74
            3  0  0  0     9.950     75
            2  1  0  0     9.950     76
            2  0  1  0     9.950     77
            1  2  0  0     9.950     78
            1  1  1  0     9.950     79
            1  0  2  0     9.950     80
            0  3  0  0     9.950     81
            0  2  1  0     9.950     82
            0  1  2  0     9.950     83
            0  0  3  0     9.950     84
            3  0  0  0     5.750     85
            2  1  0  0     5.750     86
            2  0  1  0     5.750     87
            1  2  0  0     5.750     88
            1  1  1  0     5.750     89
            1  0  2  0     5.750     90
            0  3  0  0     5.750     91
            0  2  1  0     5.750     92
            0  1  2  0     5.750     93
            0  0  3  0     5.750     94

 Total number of charge fitting functions (nprimf)       342
 Total number of Cartesian basis functions (naos)         94
 Total number of Cartesian core functions  (ncos)         25

1
 ***************************************************************************************************



                                              ***********************
                                              *  T E C H N I C A L  *
                                              ***********************
  



 =============================================================
 P A R A L L E L I Z A T I O N  and  V E C T O R I Z A T I O N
 =============================================================
  
 Nr of parallel processes:                               12
 Maximum vector length in NumInt loops:                 128



 =====================
 S C F   U P D A T E S
 =====================
  
 Max. nr. of cycles:                               300
 Convergence criterion:                              0.0000010000
   secondary criterion:                              0.0010000000

 Mix parameter (when DIIS does not apply):           0.2000000000
 Mixed ADIIS+SDIIS will be used                  
    Max number of expansion vectors:                10
    Pure ADIIS when Max([F,P]) is above              0.1000000000
    Pure SDIIS when Max([F,P]) is below              0.0010000000
 Automatic ElectronSmearing (in case of problematic SCF convergence) disabled



 =================
 P R E C I S I O N  ***  (General: NumInt, NeglectFunctionTails, ...)  ***
 =================
  

 NumInt:           Target precision:                 4.0000000000
 -------           Initial precision:                4.0000000000
                   Min. precision (optimization):    4.0000000000

 Neglect Functions:          Basis functions:        0.1000000000E-05
 ------------------          Fit functions:          0.1000000000E-05



 ===========================
 L I N E A R   S C A L I N G
 ===========================
  

 Cut-off radii density fit:                        0.1000000000E-07
 Overlap cut-off criterion AO matrix elements:     0.1000000000E-05
 Cut-offs for Coulomb potential and fitted density:0.1000000000E-07
 Cut-off criterion for Coulomb multipole terms:    0.1000000000E-07
 Progressive Convergence parameter:                 0.000000000    

          A * e 1/2 :      A1/2

  A1/2:1 = A.alpha
  A1/2:1 = A.beta

 Number of elements of the density matrix on this node (used, total):      4465      4465



 ===========================================
 Numerical Integration : Fuzzy Cells (Becke)
 ===========================================
  
 Becke grid quality: NORMAL         
  
 Lebedev angular grid order:             min:  11 max:  23
 Nr. of radial points:                   min: 123 max: 123

 Total nr. of points:      12054
 Nr. of blocks:              123
 Block length:                98
 Nr. of dummy points:          0


 Test of Precision of the Numerical Integration Grid
 ===================================================

 Integral of the Total Core Density:                  46.00000002977340
 Relative Error:                                       6.472E-10



 ========================
 Density Fitting (zlmFit)
 ========================
  
 ZlmFit Fit Quality: NORMAL         
  
 Max L-expansion:                        min:   7 max:   7
 Nr. of radial interpolation points:     min: 114 max: 114



 =====
 S C F  ***  ScaSCF  ***
 =====
  
 Initial density matrix is taken from previous geometry

 CYCLE    1
 SCF Error: norm([F,P])=      1.871213172612, max([F,P])=      0.356091493131
 orbitals (Q,E):
 ---------------
 A1/2 :25...44       ( 1.00    -1.4474)  ( 1.00    -1.4474)  ( 1.00    -1.3680)  ( 1.00    -1.3680)
                     ( 1.00    -1.3680)  ( 1.00    -1.3680)  ( 1.00    -1.3680)  ( 1.00    -1.3680)
                     ( 1.00    -1.0104)  ( 1.00    -1.0104)  ( 0.00    -0.6693)  ( 0.00    -0.6693)
                     ( 0.00    -0.6153)  ( 0.00    -0.6153)  ( 0.00    -0.6153)  ( 0.00    -0.6153)
                     ( 0.00    -0.3119)  ( 0.00    -0.3119)  ( 0.00    -0.2487)  ( 0.00    -0.2487)

 CYCLE    2
   MIX coefficients:  0.8000  0.2000
 SCF Error: norm([F,P])=      0.000000003034, max([F,P])=      0.000000000550
 orbitals (Q,E):
 ---------------
 A1/2 :25...44       ( 1.00    -1.4474)  ( 1.00    -1.4474)  ( 1.00    -1.3680)  ( 1.00    -1.3680)
                     ( 1.00    -1.3680)  ( 1.00    -1.3680)  ( 1.00    -1.3680)  ( 1.00    -1.3680)
                     ( 1.00    -1.0104)  ( 1.00    -1.0104)  ( 0.00    -0.6693)  ( 0.00    -0.6693)
                     ( 0.00    -0.6153)  ( 0.00    -0.6153)  ( 0.00    -0.6153)  ( 0.00    -0.6153)
                     ( 0.00    -0.3119)  ( 0.00    -0.3119)  ( 0.00    -0.2487)  ( 0.00    -0.2487)

 SCF CONVERGED

 CYCLE    3
 *** Using FIT density in Focky
  SDIIS (wt  0.000): -1.9420  2.9420
 A-DIIS (wt  1.000):  0.0000  1.0000
  DIIS coefficients:  0.0000  1.0000
 SCF Error: norm([F,P])=      0.000000002031, max([F,P])=      0.000000000368
 orbitals (Q,E):
 ---------------
 A1/2 :25...44       ( 1.00    -1.4474)  ( 1.00    -1.4474)  ( 1.00    -1.3680)  ( 1.00    -1.3680)
                     ( 1.00    -1.3680)  ( 1.00    -1.3680)  ( 1.00    -1.3680)  ( 1.00    -1.3680)
                     ( 1.00    -1.0104)  ( 1.00    -1.0104)  ( 0.00    -0.6693)  ( 0.00    -0.6693)
                     ( 0.00    -0.6153)  ( 0.00    -0.6153)  ( 0.00    -0.6153)  ( 0.00    -0.6153)
                     ( 0.00    -0.3119)  ( 0.00    -0.3119)  ( 0.00    -0.2487)  ( 0.00    -0.2487)


 Fit test: (difference of exact and fit density, squared integrated, result summed over spins)
         SCF:                                          0.00000037910232

 Gross Charges per Atom (Z minus electrons)
 ==========================================
             2.0000
 Net Total:  2.00000000



 =================================================================
 M U L T I P O L E   D E R I V E D   C H A R G E   A N A L Y S I S
 =================================================================

 See: M. Swart, P.Th. van Duijnen, J.G. Snijders, J.Comput.Chem., (2001), p. 79-88.

 --------------------------------------- 
 Multipole derived atomic charges (a.u.)
 --------------------------------------- 

        Atom    Level:     MDC-m        MDC-d        MDC-q
 ---------------------------------------------------------
     1     Pb           2.000000     2.000000     2.000000



 =======================================================================
 Electrostatic potential at the Nuclei due to electrons and other nuclei
 =======================================================================
  
         Atom                  Potential
         ----                  ---------
     1)   Pb                644.89953710
 Mulliken charges used for AMS results%charges...
 Continuous PES requested. Disabling symmetry...
 *** adf-NumNuclDerivs_displ1 ***

          A * e 1/2 :      A1/2

  A1/2:1 = A.alpha
  A1/2:1 = A.beta

 Energy gradients wrt nuclear displacements
 ==========================================

     Atom      Cartesian (a.u./angstrom)
                 X         Y         Z
 ----------------------------------------
     1 Pb    0.000000  0.000000  0.000000
 ----------------------------------------
 Mulliken charges used for AMS results%charges...
Scanning modes in range provided by user.


    =====================
     CALCULATION RESULTS
    =====================

Energy (hartree)             0.63925579

Gradients (hartree/bohr)
  Index   Atom            d/dx            d/dy            d/dz
      1     Pb    0.0000000000    0.0000000000    0.0000000000

 -----------------------
 Normal Mode Frequencies
 -----------------------

 Index   Frequency (cm-1)   Intensity (km/mol)

 Zero-point energy (Hartree):     0.0000

 ------------
 Normal Modes
 ------------

 Number of removed rigid normal modes: 3

PES point character: Geometry corresponds to a local minimum on the PES.




 ============================
 Statistical Thermal Analysis  ***  ideal gas assumed  ***
 ============================
  
 Pressure:                  1.000000 atm.
 Temperature:             298.150000 K



 Moments of Inertia [amu*bohr^2] and principal axis
 ==================================================

           0.0000          0.0000          0.0000
 ------------------------------------------------
           1.0000          0.0000          0.0000
           0.0000          1.0000          0.0000
           0.0000          0.0000          1.0000
 Contributions from frequencies below 20 1/cm are not included in vibrational sums.
 Their contributions, if any, are reported separately.


     Temp                                                        Transl      Rotat     Vibrat     Total
     ----                                                        ------      -----     ------     -----

     298.15   Entropy (cal/mol-K):                               41.901      0.000      0.000     41.901
              Nuclear Internal Energy (kcal/mol):                 0.889      0.000      0.000      0.889
              Constant Volume Heat Capacity (cal/mol-K):          2.981      0.000      0.000      2.981
          (c) Constant Volume Heat Capacity (cal/mol-K):          2.981      0.000      0.000      2.981

       Summary of energy terms
                                                   hartree              eV         kcal/mol           kJ/mol
                                      --------------------     -----------       ----------      -----------
      Energy from Engine:                0.639255787544247         17.3950           401.14          1678.37
      Nuclear Internal Energy:           0.001416279020229          0.0385             0.89             3.72
  (c) Nuclear Internal Energy:           0.001416279020229          0.0385             0.89             3.72
      Internal Energy U:                 0.640672066564475         17.4336           402.03          1682.08
      pV/n = RT:                         0.000944186013486          0.0257             0.59             2.48
      Enthalpy H:                        0.641616252577961         17.4593           402.62          1684.56
      -T*S:                             -0.019908411368732         -0.5417           -12.49           -52.27
  (c) -T*S:                             -0.019908411368732         -0.5417           -12.49           -52.27
      Gibbs free energy:                 0.621707841209230         16.9175           390.13          1632.29
 
 
 
  (c) The properties marked with this symbol have been corrected using 'low vibrational frequency free rotor
      interpolation corrections'. For those terms all positive frequencies are used (also ones below 20 1/cm),
      but the contribution to the partition function of small vibrational frequencies is modified as described
      in the following paper:
      S. Grimme, 'Supramolecular Binding Thermodynamics by Dispersion-Corrected Density Functional Theory'
      (Chem. Eur. J. 2012, 18, 9955-9964)
      Configuration: Dampener Frequency          :   100.000 1/cm
                     Dampener Alpha              :     4.000
                     Averaging Moment of Inertia : 1.000E-44 kg m2

--------------
Atomic charges
--------------
  Index   Atom    Charge
      1     Pb    2.0000


Dipole moment vector    (Debye):     0.00000000    0.00000000    0.00000000
              magnitude (Debye):     0.00000000


Final PES point is a local minimum. Geometry optimization successful!


AMS application finished. Exiting.
NORMAL TERMINATION
     Total cpu time:       8.86
  Total system time:       1.11
 Total elapsed time:      10.27
