 *******************************************************************************
 **                                                                           **
 **                              MOPAC v23.0.3                                **
 **                                                                           **
 *******************************************************************************
 **          Digital Object Identifier (DOI): 10.5281/zenodo.6511958          **
 **    Visit the DOI location for information on how to cite this program.    **
 *******************************************************************************

                              PM7 CALCULATION RESULTS

 *******************************************************************************
 *  CALCULATION DONE:                                Fri Jan 31 18:17:48 2025  *
 *  PM7        - The PM7 Hamiltonian to be used
 *  SINGLET    - SPIN STATE DEFINED AS A SINGLET
 *
 *
 *
 *                 CHARGE ON SYSTEM = 0
 *
 *
 *
 *  PRECISE    - TIGHTER CRITERIA TO BE USED
 *  T=         - A TIME OF 172800.0 SECONDS REQUESTED
 *  DUMP=N     - RESTART FILE WRITTEN EVERY 7200.0 SECONDS REQUESTED
 *  LARGE      - EXPANDED OUTPUT TO BE PRINTED
 *******************************************************************************
 LARGE CHARGE=0 SINGLET  PM7 PRECISE
 Mo(CO)6

   ATOM   CHEMICAL          X               Y               Z
  NUMBER   SYMBOL      (ANGSTROMS)     (ANGSTROMS)     (ANGSTROMS)
 
     1       C          0.00000000  *   2.07063000  *   0.00000000  *
     2      Mo          0.00000000  *   0.00000000  *   0.00000000  *
     3       C          0.00000000  *  -2.07063000  *   0.00000000  *
     4       C          0.00000000  *   0.00000000  *   2.07063000  *
     5       C          0.00000000  *   0.00000000  *  -2.07063000  *
     6       C          2.07063000  *   0.00000000  *   0.00000000  *
     7       C         -2.07063000  *   0.00000000  *   0.00000000  *
     8       O          0.00000000  *   3.22349000  *   0.00000000  *
     9       O          0.00000000  *  -3.22349000  *   0.00000000  *
    10       O          0.00000000  *   0.00000000  *   3.22349000  *
    11       O          0.00000000  *   0.00000000  *  -3.22349000  *
    12       O          3.22349000  *   0.00000000  *   0.00000000  *
    13       O         -3.22349000  *   0.00000000  *   0.00000000  *
 


          CARTESIAN COORDINATES 

    NO.       ATOM           X           Y           Z

     1         C          0.0000      2.0706      0.0000
     2        Mo          0.0000      0.0000      0.0000
     3         C          0.0000     -2.0706      0.0000
     4         C          0.0000      0.0000      2.0706
     5         C          0.0000      0.0000     -2.0706
     6         C          2.0706      0.0000      0.0000
     7         C         -2.0706      0.0000      0.0000
     8         O          0.0000      3.2235      0.0000
     9         O          0.0000     -3.2235      0.0000
    10         O          0.0000      0.0000      3.2235
    11         O          0.0000      0.0000     -3.2235
    12         O          3.2235      0.0000      0.0000
    13         O         -3.2235      0.0000      0.0000

 General Reference for PM7:
 "Optimization of Parameters for Semiempirical Methods VI: More Modifications to the 
 NDDO Approximations and Re-optimization of Parameters", J. J. P. Stewart, J. Mol. Mod., 1:32, 19 (2013)
 https://link.springer.com/article/10.1007/s00894-012-1667-x

           Empirical Formula: C6 O6 Mo  =    13 atoms



      MOLECULAR POINT GROUP   :   Oh  


 SINGLET STATE CALCULATION


      RHF CALCULATION, NO. OF DOUBLY OCCUPIED LEVELS = 33


          Geometry optimization using EF

          DIAGONAL MATRIX USED AS START HESSIAN

 CYCLE:     1 TIME:   0.055 TIME LEFT:  2.00D  GRAD.:    39.077 HEAT: -206.6383
 CYCLE:     2 TIME:   0.031 TIME LEFT:  2.00D  GRAD.:    37.017 HEAT: -206.6563
 CYCLE:     3 TIME:   0.016 TIME LEFT:  2.00D  GRAD.:    12.726 HEAT: -206.7842
 CYCLE:     4 TIME:   0.016 TIME LEFT:  2.00D  GRAD.:    12.420 HEAT: -206.7875
 CYCLE:     5 TIME:   0.008 TIME LEFT:  2.00D  GRAD.:     7.554 HEAT: -206.8032
 CYCLE:     6 TIME:   0.016 TIME LEFT:  2.00D  GRAD.:     2.509 HEAT: -206.8093
 CYCLE:     7 TIME:   0.008 TIME LEFT:  2.00D  GRAD.:     0.798 HEAT: -206.8114
 CYCLE:     8 TIME:   0.008 TIME LEFT:  2.00D  GRAD.:     0.495 HEAT: -206.8125
 CYCLE:     9 TIME:   0.008 TIME LEFT:  2.00D  GRAD.:     0.347 HEAT: -206.8127
 CYCLE:    10 TIME:   0.008 TIME LEFT:  2.00D  GRAD.:     0.235 HEAT: -206.8128
 CYCLE:    11 TIME:   0.008 TIME LEFT:  2.00D  GRAD.:     5.056 HEAT: -206.8097
 CYCLE:    12 TIME:   0.008 TIME LEFT:  2.00D  GRAD.:     0.078 HEAT: -206.8128
 CYCLE:    13 TIME:   0.008 TIME LEFT:  2.00D  GRAD.:     0.275 HEAT: -206.8128
 CYCLE:    14 TIME:   0.008 TIME LEFT:  2.00D  GRAD.:     0.077 HEAT: -206.8128
 CYCLE:    15 TIME:   0.008 TIME LEFT:  2.00D  GRAD.:     0.134 HEAT: -206.8128
 CYCLE:    16 TIME:   0.008 TIME LEFT:  2.00D  GRAD.:     0.028 HEAT: -206.8128

     GRADIENT =  0.02794 IS LESS THAN CUTOFF =  0.05000



 -------------------------------------------------------------------------------
 LARGE CHARGE=0 SINGLET  PM7 PRECISE
 Mo(CO)6



     GEOMETRY OPTIMISED USING EIGENVECTOR FOLLOWING (EF).     
     SCF FIELD WAS ACHIEVED                                   


                              PM7 CALCULATION
                                                       MOPAC v23.0.3 Linux
                                                       Fri Jan 31 18:17:48 2025




          FINAL HEAT OF FORMATION =       -206.81284 KCAL/MOL =    -865.30494 KJ/MOL


          COSMO AREA              =        209.86 SQUARE ANGSTROMS
          COSMO VOLUME            =        214.66 CUBIC ANGSTROMS

          GRADIENT NORM           =          0.02794          =       0.00775 PER ATOM
          IONIZATION POTENTIAL    =          9.689228 EV
          HOMO LUMO ENERGIES (EV) =         -9.689 -0.132
          NO. OF FILLED LEVELS    =         33
          MOLECULAR WEIGHT        =        264.0024         POINT GROUP:  Oh  

          MOLECULAR DIMENSIONS (Angstroms)

            Atom       Atom       Distance
            O     9    O     8     6.45938
            O    13    O    12     6.45938
            O    10    O    11     6.45932


          SCF CALCULATIONS        =         24
 
          WALL-CLOCK TIME         =      0.320 SECONDS
          COMPUTATION TIME        =      0.188 SECONDS




   ATOM   CHEMICAL          X               Y               Z
  NUMBER   SYMBOL      (ANGSTROMS)     (ANGSTROMS)     (ANGSTROMS)
 
     1       C          0.00000000  *   2.07201291  *   0.00000776  *
     2      Mo         -0.00000003  *  -0.00000095  *   0.00000036  *
     3       C          0.00000000  *  -2.07201136  *   0.00000776  *
     4       C          0.00000000  *   0.00000012  *   2.07197842  *
     5       C          0.00000000  *   0.00000012  *  -2.07197345  *
     6       C          2.07200481  *   0.00000012  *   0.00000776  *
     7       C         -2.07200524  *   0.00000012  *   0.00000776  *
     8       O          0.00000000  *   3.22969189  *  -0.00000963  *
     9       O          0.00000000  *  -3.22969161  *  -0.00000963  *
    10       O          0.00000000  *   0.00000007  *   3.22966552  *
    11       O          0.00000000  *   0.00000007  *  -3.22965908  *
    12       O          3.22968960  *   0.00000007  *  -0.00000963  *
    13       O         -3.22968918  *   0.00000007  *  -0.00000963  *

                             CARTESIAN COORDINATES

   1    C        0.000000001     2.072012909     0.000007756
   2   Mo       -0.000000026    -0.000000949     0.000000358
   3    C        0.000000001    -2.072011360     0.000007758
   4    C        0.000000001     0.000000122     2.071978420
   5    C        0.000000001     0.000000122    -2.071973446
   6    C        2.072004814     0.000000122     0.000007762
   7    C       -2.072005244     0.000000123     0.000007761
   8    O        0.000000003     3.229691890    -0.000009632
   9    O        0.000000004    -3.229691613    -0.000009633
  10    O        0.000000002     0.000000071     3.229665525
  11    O        0.000000002     0.000000071    -3.229659075
  12    O        3.229689597     0.000000070    -0.000009632
  13    O       -3.229689175     0.000000071    -0.000009631


           Empirical Formula: C6 O6 Mo  =    13 atoms



      MOLECULAR POINT GROUP   :   Oh  


                  EIGENVALUES  
 -33.17964 -33.17949 -33.06736 -32.98884 -32.98869 -32.98854 -23.13518 -23.13515
 -21.07936 -20.11428 -20.11425 -20.11415 -16.91441 -16.91439 -16.91439 -15.54440
 -15.54436 -15.54431 -15.43267 -15.43262 -15.43062 -15.43057 -15.43053 -15.32983
 -15.32978 -15.32973 -14.16919 -12.61061 -12.61059 -12.61053  -9.68923  -9.68923
  -9.68923  -0.13182  -0.13181  -0.13180   0.01813   0.01813   0.01813   0.46753
   0.46757   0.46757   2.28169   2.94168   2.94179   2.94181   3.20831   3.20843
   4.40634   4.59248   4.59249   4.59255   6.50041   6.50053  83.97645  83.97646
  83.97646


              NET ATOMIC CHARGES AND DIPOLE CONTRIBUTIONS

  ATOM NO.   TYPE          CHARGE      No. of ELECS.   s-Pop       p-Pop       d-Pop       
    1          C           0.307132        3.6929     1.57954     2.11333
    2         Mo           0.599613        5.4004     0.12484     0.01152     5.26403
    3          C           0.307131        3.6929     1.57953     2.11333
    4          C           0.307124        3.6929     1.57953     2.11334
    5          C           0.307122        3.6929     1.57953     2.11335
    6          C           0.307131        3.6929     1.57954     2.11333
    7          C           0.307131        3.6929     1.57954     2.11333
    8          O          -0.407057        6.4071     1.85053     4.55653
    9          O          -0.407058        6.4071     1.85053     4.55653
   10          O          -0.407072        6.4071     1.85053     4.55654
   11          O          -0.407072        6.4071     1.85053     4.55654
   12          O          -0.407063        6.4071     1.85053     4.55653
   13          O          -0.407062        6.4071     1.85053     4.55653
 DIPOLE           X         Y         Z       TOTAL
 POINT-CHG.    -0.000     0.000     0.000     0.000
 HYBRID        -0.000     0.000    -0.000     0.000
 SUM           -0.000     0.000     0.000     0.000


          ATOMIC ORBITAL ELECTRON POPULATIONS

     Atom    s        px        py        pz      x^2-y^2     xz        z^2       yz        xy
    1  C   1.57954   0.58731   0.93872   0.58730
    2 Mo   0.12484   0.00384   0.00384   0.00384   0.64385   1.32543   0.64386   1.32544   1.32545
    3  C   1.57953   0.58731   0.93872   0.58731
    4  C   1.57953   0.58731   0.58731   0.93872
    5  C   1.57953   0.58731   0.58731   0.93872
    6  C   1.57954   0.93872   0.58731   0.58731
    7  C   1.57954   0.93872   0.58731   0.58731
    8  O   1.85053   1.58427   1.38799   1.58427
    9  O   1.85053   1.58427   1.38799   1.58427
   10  O   1.85053   1.58428   1.58428   1.38798
   11  O   1.85053   1.58428   1.58428   1.38798
   12  O   1.85053   1.38798   1.58428   1.58427
   13  O   1.85053   1.38798   1.58428   1.58427
 *******************************************************************************
 **                                                                           **
 **                              MOPAC v23.0.3                                **
 **                                                                           **
 *******************************************************************************
 **          Digital Object Identifier (DOI): 10.5281/zenodo.6511958          **
 **    Visit the DOI location for information on how to cite this program.    **
 *******************************************************************************

                              PM7 CALCULATION RESULTS

 *******************************************************************************
 *  CALCULATION DONE:                                Fri Jan 31 18:17:48 2025  *
 *  PM7        - The PM7 Hamiltonian to be used
 *  OLDGEO     - PREVIOUS GEOMETRY TO BE USED
 *  PRECISE    - TIGHTER CRITERIA TO BE USED
 *  T=         - A TIME OF 172800.0 SECONDS REQUESTED
 *  DUMP=N     - RESTART FILE WRITTEN EVERY 7200.0 SECONDS REQUESTED
 *  THERMO     - THERMODYNAMIC QUANTITIES TO BE CALCULATED
 *******************************************************************************
OLDGEO PRECISE PM7 THERMO
 Mo(CO)6

   ATOM   CHEMICAL          X               Y               Z
  NUMBER   SYMBOL      (ANGSTROMS)     (ANGSTROMS)     (ANGSTROMS)
 
     1       C          0.00000000  *   2.07201291  *   0.00000776  *
     2      Mo         -0.00000003  *  -0.00000095  *   0.00000036  *
     3       C          0.00000000  *  -2.07201136  *   0.00000776  *
     4       C          0.00000000  *   0.00000012  *   2.07197842  *
     5       C          0.00000000  *   0.00000012  *  -2.07197345  *
     6       C          2.07200481  *   0.00000012  *   0.00000776  *
     7       C         -2.07200524  *   0.00000012  *   0.00000776  *
     8       O          0.00000000  *   3.22969189  *  -0.00000963  *
     9       O          0.00000000  *  -3.22969161  *  -0.00000963  *
    10       O          0.00000000  *   0.00000007  *   3.22966552  *
    11       O          0.00000000  *   0.00000007  *  -3.22965908  *
    12       O          3.22968960  *   0.00000007  *  -0.00000963  *
    13       O         -3.22968918  *   0.00000007  *  -0.00000963  *
 


          CARTESIAN COORDINATES 

    NO.       ATOM           X           Y           Z

     1         C          0.0000      2.0720      0.0000
     2        Mo         -0.0000     -0.0000      0.0000
     3         C          0.0000     -2.0720      0.0000
     4         C          0.0000      0.0000      2.0720
     5         C          0.0000      0.0000     -2.0720
     6         C          2.0720      0.0000      0.0000
     7         C         -2.0720      0.0000      0.0000
     8         O          0.0000      3.2297     -0.0000
     9         O          0.0000     -3.2297     -0.0000
    10         O          0.0000      0.0000      3.2297
    11         O          0.0000      0.0000     -3.2297
    12         O          3.2297      0.0000     -0.0000
    13         O         -3.2297      0.0000     -0.0000

 General Reference for PM7:
 "Optimization of Parameters for Semiempirical Methods VI: More Modifications to the 
 NDDO Approximations and Re-optimization of Parameters", J. J. P. Stewart, J. Mol. Mod., 1:32, 19 (2013)
 https://link.springer.com/article/10.1007/s00894-012-1667-x

           Empirical Formula: C6 O6 Mo  =    13 atoms



      MOLECULAR POINT GROUP   :   Oh  


      RHF CALCULATION, NO. OF DOUBLY OCCUPIED LEVELS = 33



          HEAT OF FORMATION =    -206.812842 KCALS/MOLE


          CARTESIAN COORDINATE DERIVATIVES

   NUMBER  ATOM         X            Y            Z

     1       C     -0.004077    -0.001947    -0.000007
     2      Mo      0.000948     0.005610    -0.000050
     3       C      0.001232    -0.000625    -0.000007
     4       C     -0.000728     0.021696     0.000080
     5       C      0.000594    -0.018549    -0.000065
     6       C     -0.000190    -0.002790    -0.010067
     7       C     -0.000186    -0.002856     0.008230
     8       O      0.003117     0.000814     0.000002
     9       O     -0.000816     0.000546     0.000003
    10       O      0.000136    -0.009786    -0.000036
    11       O     -0.000133     0.005681     0.000020
    12       O      0.000055     0.001078     0.008778
    13       O      0.000054     0.001135    -0.006873
 


          GRADIENT NORM =   0.03635


          TIME FOR SCF CALCULATION =    0.02

          TIME FOR DERIVATIVES     =    0.01

          MOLECULAR WEIGHT =  264.00



          ROTATIONAL CONSTANTS IN CM(-1)

          A =    0.01929220   B =    0.01929215   C =    0.01929194



           PRINCIPAL MOMENTS OF INERTIA IN UNITS OF 10**(-40)*GRAM-CM**2

          A =     1450.9881   B =     1450.9916   C =     1451.0073


          ORIENTATION OF MOLECULE IN FORCE CALCULATION

    NO.       ATOM         X         Y         Z

     1          C      -2.0720   -0.0000   -0.0000
     2         Mo       0.0000   -0.0000   -0.0000
     3          C       2.0720    0.0000   -0.0000
     4          C      -0.0000   -2.0720   -0.0075
     5          C       0.0000    2.0720    0.0075
     6          C      -0.0000   -0.0075    2.0720
     7          C      -0.0000    0.0075   -2.0720
     8          O      -3.2297    0.0000    0.0000
     9          O       3.2297    0.0000    0.0000
    10          O      -0.0000   -3.2296   -0.0117
    11          O       0.0000    3.2296    0.0117
    12          O      -0.0000   -0.0117    3.2297
    13          O      -0.0000    0.0117   -3.2297


    FIRST DERIVATIVES WILL BE USED IN THE CALCULATION OF SECOND DERIVATIVES

          ESTIMATED TIME TO COMPLETE CALCULATION =        3.66 SECONDS

    FOR POINT-GROUP Oh   THERE ARE  48 UNIQUE SYMMETRY FUNCTIONS.

 STEP:   1 TIME =     0.05 SECS, INTEGRAL =      0.05 TIME LEFT: 172799.93
 STEP:   2 TIME =     0.04 SECS, INTEGRAL =      0.09 TIME LEFT: 172799.89
 STEP:   3 TIME =     0.03 SECS, INTEGRAL =      0.12 TIME LEFT: 172799.86
 STEP:   4 TIME =     0.03 SECS, INTEGRAL =      0.15 TIME LEFT: 172799.83
 STEP:   5 TIME =     0.03 SECS, INTEGRAL =      0.18 TIME LEFT: 172799.80
 STEP:   6 TIME =     0.03 SECS, INTEGRAL =      0.21 TIME LEFT: 172799.77
 STEP:   7                       INTEGRAL =      0.21 TIME LEFT: 172799.77
 STEP:   8                       INTEGRAL =      0.21 TIME LEFT: 172799.77
 STEP:   9                       INTEGRAL =      0.21 TIME LEFT: 172799.77
 STEP:  10                       INTEGRAL =      0.21 TIME LEFT: 172799.77
 STEP:  11                       INTEGRAL =      0.21 TIME LEFT: 172799.77
 STEP:  12                       INTEGRAL =      0.21 TIME LEFT: 172799.77
 STEP:  13                       INTEGRAL =      0.21 TIME LEFT: 172799.77
 STEP:  14                       INTEGRAL =      0.21 TIME LEFT: 172799.77
 STEP:  15                       INTEGRAL =      0.21 TIME LEFT: 172799.77
 STEP:  16                       INTEGRAL =      0.21 TIME LEFT: 172799.77
 STEP:  17                       INTEGRAL =      0.21 TIME LEFT: 172799.77
 STEP:  18                       INTEGRAL =      0.21 TIME LEFT: 172799.77
 STEP:  19                       INTEGRAL =      0.21 TIME LEFT: 172799.77
 STEP:  20                       INTEGRAL =      0.21 TIME LEFT: 172799.77
 STEP:  21                       INTEGRAL =      0.21 TIME LEFT: 172799.77
 STEP:  22 TIME =     0.05 SECS, INTEGRAL =      0.26 TIME LEFT: 172799.72
 STEP:  23 TIME =     0.03 SECS, INTEGRAL =      0.29 TIME LEFT: 172799.69
 STEP:  24 TIME =     0.04 SECS, INTEGRAL =      0.33 TIME LEFT: 172799.65
 STEP:  25                       INTEGRAL =      0.33 TIME LEFT: 172799.65
 STEP:  26                       INTEGRAL =      0.33 TIME LEFT: 172799.65
 STEP:  27                       INTEGRAL =      0.33 TIME LEFT: 172799.65
 STEP:  28                       INTEGRAL =      0.33 TIME LEFT: 172799.65
 STEP:  29                       INTEGRAL =      0.33 TIME LEFT: 172799.65
 STEP:  30                       INTEGRAL =      0.33 TIME LEFT: 172799.65
 STEP:  31                       INTEGRAL =      0.33 TIME LEFT: 172799.65
 STEP:  32                       INTEGRAL =      0.33 TIME LEFT: 172799.65
 STEP:  33                       INTEGRAL =      0.33 TIME LEFT: 172799.65
 STEP:  34                       INTEGRAL =      0.33 TIME LEFT: 172799.65
 STEP:  35                       INTEGRAL =      0.33 TIME LEFT: 172799.65
 STEP:  36                       INTEGRAL =      0.33 TIME LEFT: 172799.65
 STEP:  37                       INTEGRAL =      0.33 TIME LEFT: 172799.65
 STEP:  38                       INTEGRAL =      0.33 TIME LEFT: 172799.65
 STEP:  39                       INTEGRAL =      0.33 TIME LEFT: 172799.65

(To convert to Hartree/Bohr^2, multiply by (10^(-21) x N x a0^2)/(4.184 x 627.51) =  0.0642)


           FORCE MATRIX IN MILLIDYNES/ANGSTROM


                  C  1      Mo  2       C  3       C  4       C  5       C  6
 ------------------------------------------------------------------------------
     C    1  16.209124
    Mo    2   1.690965  11.248402
     C    3   1.278905   1.692423  16.209124
     C    4   0.434640   1.691601   0.434590  16.209124
     C    5   0.434590   1.692667   0.434640   1.278905  16.209124
     C    6   0.434579   1.692549   0.434633   0.434633   0.434579  16.209124
     C    7   0.434633   1.691567   0.434579   0.434579   0.434633   1.278905
     O    8  15.024889   1.361353   0.324380   0.189228   0.189199   0.189253
     O    9   0.322582   1.359517  15.023099   0.187699   0.187721   0.187694
     O   10   0.187721   1.362261   0.187699  15.023099   0.322582   0.187721
     O   11   0.187699   1.359113   0.187721   0.322582  15.023099   0.187699
     O   12   0.187694   1.359097   0.187717   0.187717   0.187694  15.023099
     O   13   0.187717   1.362081   0.187694   0.187694   0.187717   0.322582


                  C  7       O  8       O  9       O 10       O 11       O 12
 ------------------------------------------------------------------------------
     C    7  16.209124
     O    8   0.189191  16.128934
     O    9   0.187699   0.125486  16.128934
     O   10   0.187717   0.097693   0.097721  16.128934
     O   11   0.187694   0.097721   0.097693   0.125486  16.128934
     O   12   0.322582   0.097686   0.097724   0.097724   0.097686  16.128934
     O   13  15.023099   0.097724   0.097686   0.097686   0.097724   0.125486


                  O 13
 ------------------
     O   13  16.128934


          HEAT OF FORMATION =    -206.812842 KCALS/MOLE

          ZERO POINT ENERGY      29.231 KCAL/MOL


           NORMAL COORDINATE ANALYSIS (Total motion = 1 Angstrom)


   Root No.       1         2         3         4         5         6         7         8

                 1 T2u     1 T2u     1 T2u     1 T2g     1 T2g     1 T2g     1 T1u     1 T1u 

                  64.7      64.7      64.7      77.3      77.3      77.3      81.9      81.9
  
           1   -0.0000    0.0000   -0.0000    0.0000    0.0000    0.0000    0.0033   -0.0000
           2    0.0002    0.0689    0.0000    0.0678    0.0000    0.0000   -0.0155    0.0002
           3   -0.0687    0.0002    0.0003   -0.0000    0.0678   -0.0000   -0.0002   -0.0156
           4    0.0000    0.0000   -0.0000   -0.0000    0.0000    0.0000    0.0027   -0.0000
           5   -0.0000   -0.0000    0.0000   -0.0000   -0.0000    0.0000    0.0604   -0.0006
           6    0.0000   -0.0000    0.0000   -0.0000   -0.0000   -0.0000    0.0006    0.0605
           7   -0.0000    0.0000   -0.0000   -0.0000    0.0000    0.0000    0.0033   -0.0000
           8    0.0002    0.0689    0.0000   -0.0678   -0.0000   -0.0000   -0.0155    0.0002
           9   -0.0687    0.0002    0.0003    0.0000   -0.0678    0.0000   -0.0002   -0.0156
          10    0.0003   -0.0000    0.0687    0.0678    0.0003   -0.0000   -0.0007    0.0000
          11   -0.0002   -0.0000    0.0000   -0.0000   -0.0000   -0.0002    0.0751   -0.0005
          12    0.0687   -0.0000   -0.0003   -0.0000    0.0000    0.0679    0.0002   -0.0156
          13    0.0003   -0.0000    0.0687   -0.0678   -0.0003    0.0000   -0.0007    0.0000
          14   -0.0002   -0.0000    0.0000    0.0000    0.0000    0.0002    0.0751   -0.0005
          15    0.0687   -0.0000   -0.0003    0.0000   -0.0000   -0.0679    0.0002   -0.0156
          16   -0.0003    0.0000   -0.0687    0.0003   -0.0678    0.0000   -0.0007    0.0000
          17   -0.0000   -0.0689   -0.0000    0.0000   -0.0000   -0.0679   -0.0155   -0.0002
          18    0.0000   -0.0002    0.0000   -0.0000   -0.0000   -0.0002    0.0005    0.0752
          19   -0.0003    0.0000   -0.0687   -0.0003    0.0678   -0.0000   -0.0007    0.0000
          20   -0.0000   -0.0689   -0.0000   -0.0000    0.0000    0.0679   -0.0155   -0.0002
          21    0.0000   -0.0002    0.0000   -0.0000   -0.0000    0.0002    0.0005    0.0752
          22   -0.0000    0.0000   -0.0000    0.0000    0.0000    0.0000    0.0033   -0.0000
          23    0.0007    0.1811    0.0000    0.1817    0.0000   -0.0000   -0.1442    0.0015
          24   -0.1808    0.0007    0.0007   -0.0000    0.1817   -0.0000   -0.0015   -0.1445
          25   -0.0000    0.0000   -0.0000   -0.0000   -0.0000    0.0000    0.0033   -0.0000
          26    0.0007    0.1811    0.0000   -0.1817   -0.0000   -0.0000   -0.1442    0.0015
          27   -0.1808    0.0007    0.0007    0.0000   -0.1817    0.0000   -0.0015   -0.1445
          28    0.0007   -0.0000    0.1808    0.1817    0.0007    0.0000   -0.0064    0.0000
          29   -0.0007   -0.0000    0.0000   -0.0000   -0.0000   -0.0007    0.0742    0.0000
          30    0.1808   -0.0000   -0.0007   -0.0000    0.0000    0.1821   -0.0007   -0.1445
          31    0.0007   -0.0000    0.1808   -0.1817   -0.0007   -0.0000   -0.0064    0.0000
          32   -0.0007   -0.0000    0.0000    0.0000    0.0000    0.0007    0.0742    0.0000
          33    0.1808   -0.0000   -0.0007    0.0000   -0.0000   -0.1821   -0.0007   -0.1445
          34   -0.0007    0.0000   -0.1808    0.0007   -0.1817    0.0000   -0.0064    0.0000
          35   -0.0000   -0.1811   -0.0000    0.0000   -0.0000   -0.1821   -0.1443    0.0007
          36   -0.0000   -0.0007    0.0000    0.0000   -0.0000   -0.0007   -0.0000    0.0744
          37   -0.0007    0.0000   -0.1808   -0.0007    0.1817   -0.0000   -0.0064    0.0000
          38   -0.0000   -0.1811   -0.0000    0.0000    0.0000    0.1821   -0.1443    0.0007
          39    0.0000   -0.0007    0.0000    0.0000    0.0000    0.0007   -0.0000    0.0744


   Root No.       9        10        11        12        13        14        15        16

                 1 T1u     1 T1g     1 T1g     1 T1g     2 T1u     2 T1u     2 T1u     1 Eg  

                  81.9     302.5     302.5     302.5     365.2     365.2     365.2     405.3
  
           1    0.0751   -0.0000    0.0000    0.0000   -0.1393    0.0001   -0.0000   -0.1232
           2    0.0007   -0.1687   -0.0005    0.0000    0.0000    0.0701   -0.0002    0.0000
           3    0.0000   -0.0005    0.1687   -0.0000   -0.0000    0.0002    0.0701    0.0000
           4    0.0604    0.0000    0.0000    0.0000    0.0628   -0.0000    0.0000   -0.0000
           5   -0.0027   -0.0000   -0.0000    0.0000    0.0000    0.0628   -0.0002    0.0000
           6   -0.0000   -0.0000    0.0000    0.0000   -0.0000    0.0002    0.0628   -0.0000
           7    0.0751    0.0000   -0.0000   -0.0000   -0.1393    0.0001   -0.0000    0.1232
           8    0.0007    0.1687    0.0005   -0.0000    0.0000    0.0701   -0.0002   -0.0000
           9    0.0000    0.0005   -0.1687    0.0000   -0.0000    0.0002    0.0701   -0.0000
          10   -0.0155    0.1687   -0.0001   -0.0000    0.0701   -0.0000    0.0000    0.0000
          11   -0.0033   -0.0000   -0.0000   -0.0006   -0.0001   -0.1393   -0.0003    0.0887
          12   -0.0000    0.0000    0.0000    0.1687   -0.0000   -0.0005    0.0701    0.0003
          13   -0.0155   -0.1687    0.0001    0.0000    0.0701   -0.0000    0.0000   -0.0000
          14   -0.0033    0.0000    0.0000    0.0006   -0.0001   -0.1393   -0.0003   -0.0887
          15   -0.0000   -0.0000   -0.0000   -0.1687   -0.0000   -0.0005    0.0701   -0.0003
          16   -0.0155    0.0001    0.1687   -0.0000    0.0701   -0.0000    0.0000   -0.0000
          17    0.0007    0.0000    0.0000    0.1687    0.0000    0.0701    0.0005    0.0001
          18   -0.0000    0.0000    0.0000    0.0006    0.0000    0.0003   -0.1393   -0.0345
          19   -0.0155   -0.0001   -0.1687    0.0000    0.0701   -0.0000    0.0000    0.0000
          20    0.0007   -0.0000   -0.0000   -0.1687    0.0000    0.0701    0.0005   -0.0001
          21   -0.0000   -0.0000   -0.0000   -0.0006    0.0000    0.0003   -0.1393    0.0345
          22    0.0742    0.0000   -0.0000    0.0000   -0.1336    0.0001   -0.0000   -0.1268
          23    0.0064    0.0812    0.0003   -0.0000   -0.0000   -0.0278    0.0001    0.0000
          24    0.0001    0.0003   -0.0812    0.0000    0.0000   -0.0001   -0.0278    0.0000
          25    0.0742   -0.0000    0.0000   -0.0000   -0.1336    0.0001   -0.0000    0.1268
          26    0.0064   -0.0812   -0.0003    0.0000   -0.0000   -0.0278    0.0001   -0.0000
          27    0.0001   -0.0003    0.0812   -0.0000    0.0000   -0.0001   -0.0278   -0.0000
          28   -0.1443   -0.0812    0.0000    0.0000   -0.0278    0.0000   -0.0000    0.0000
          29   -0.0033    0.0000    0.0000    0.0003   -0.0001   -0.1336    0.0000    0.0913
          30    0.0000   -0.0000   -0.0000   -0.0813    0.0000   -0.0005   -0.0278    0.0003
          31   -0.1443    0.0812   -0.0000   -0.0000   -0.0278    0.0000   -0.0000   -0.0000
          32   -0.0033   -0.0000   -0.0000   -0.0003   -0.0001   -0.1336    0.0000   -0.0913
          33    0.0000    0.0000    0.0000    0.0813    0.0000   -0.0005   -0.0278   -0.0003
          34   -0.1443   -0.0000   -0.0812    0.0000   -0.0278    0.0000   -0.0000   -0.0000
          35    0.0064   -0.0000   -0.0000   -0.0813   -0.0000   -0.0278    0.0005    0.0001
          36    0.0000    0.0000   -0.0000   -0.0003    0.0000   -0.0000   -0.1336   -0.0355
          37   -0.1443    0.0000    0.0812   -0.0000   -0.0278    0.0000   -0.0000    0.0000
          38    0.0064    0.0000    0.0000    0.0813   -0.0000   -0.0278    0.0005   -0.0001
          39    0.0000    0.0000    0.0000    0.0003    0.0000   -0.0000   -0.1336    0.0355


   Root No.      17        18        19        20        21        22        23        24

                 1 Eg      1 A1g     2 T2g     2 T2g     2 T2g     2 T2u     2 T2u     2 T2u 

                 405.3     442.1     470.4     470.4     470.4     519.9     519.9     519.9
  
           1   -0.0315   -0.0800    0.0000   -0.0000   -0.0000   -0.0000    0.0000    0.0000
           2   -0.0000    0.0000    0.1952    0.0008    0.0000    0.0007    0.1945    0.0000
           3    0.0000    0.0000    0.0008   -0.1952   -0.0000   -0.1945    0.0007    0.0000
           4   -0.0000   -0.0000   -0.0000   -0.0000   -0.0000    0.0000    0.0000   -0.0000
           5   -0.0000   -0.0000   -0.0000   -0.0000    0.0000   -0.0000   -0.0000    0.0000
           6   -0.0000    0.0000   -0.0000    0.0000   -0.0000    0.0000   -0.0000    0.0000
           7    0.0315    0.0800   -0.0000    0.0000    0.0000   -0.0000    0.0000    0.0000
           8    0.0000   -0.0000   -0.1952   -0.0008   -0.0000    0.0007    0.1945    0.0000
           9   -0.0000   -0.0000   -0.0008    0.1952    0.0000   -0.1945    0.0007    0.0000
          10   -0.0000   -0.0000    0.1952    0.0001    0.0000    0.0000   -0.0000    0.1945
          11   -0.0917   -0.0800   -0.0000    0.0000   -0.0007   -0.0007    0.0000   -0.0000
          12   -0.0003   -0.0003   -0.0000   -0.0000    0.1953    0.1945   -0.0000   -0.0000
          13    0.0000    0.0000   -0.1952   -0.0001   -0.0000    0.0000   -0.0000    0.1945
          14    0.0917    0.0800    0.0000   -0.0000    0.0007   -0.0007    0.0000   -0.0000
          15    0.0003    0.0003    0.0000    0.0000   -0.1953    0.1945   -0.0000   -0.0000
          16   -0.0000    0.0000   -0.0001    0.1952    0.0000   -0.0000    0.0000   -0.1945
          17    0.0004   -0.0003   -0.0000    0.0000   -0.1953   -0.0000   -0.1945   -0.0000
          18   -0.1232    0.0800   -0.0000    0.0000   -0.0007   -0.0000   -0.0007    0.0000
          19    0.0000   -0.0000    0.0001   -0.1952   -0.0000   -0.0000    0.0000   -0.1945
          20   -0.0004    0.0003    0.0000   -0.0000    0.1953   -0.0000   -0.1945   -0.0000
          21    0.1232   -0.0800    0.0000   -0.0000    0.0007   -0.0000   -0.0007    0.0000
          22   -0.0324   -0.0866   -0.0000    0.0000   -0.0000    0.0000   -0.0000    0.0000
          23   -0.0000   -0.0000   -0.0547   -0.0002   -0.0000   -0.0002   -0.0555   -0.0000
          24    0.0000   -0.0000   -0.0002    0.0547    0.0000    0.0555   -0.0002   -0.0000
          25    0.0324    0.0866    0.0000   -0.0000    0.0000    0.0000   -0.0000    0.0000
          26    0.0000    0.0000    0.0547    0.0002    0.0000   -0.0002   -0.0555   -0.0000
          27   -0.0000    0.0000    0.0002   -0.0547   -0.0000    0.0555   -0.0002   -0.0000
          28   -0.0000    0.0000   -0.0547   -0.0000   -0.0000   -0.0000    0.0000   -0.0555
          29   -0.0943   -0.0866    0.0000   -0.0000    0.0002    0.0002    0.0000    0.0000
          30   -0.0003   -0.0003    0.0000    0.0000   -0.0547   -0.0555    0.0000    0.0000
          31    0.0000   -0.0000    0.0547    0.0000    0.0000   -0.0000    0.0000   -0.0555
          32    0.0943    0.0866   -0.0000    0.0000   -0.0002    0.0002    0.0000    0.0000
          33    0.0003    0.0003   -0.0000   -0.0000    0.0547   -0.0555    0.0000    0.0000
          34   -0.0000   -0.0000    0.0000   -0.0547   -0.0000    0.0000   -0.0000    0.0555
          35    0.0005   -0.0003    0.0000   -0.0000    0.0547    0.0000    0.0555    0.0000
          36   -0.1268    0.0866    0.0000   -0.0000    0.0002    0.0000    0.0002   -0.0000
          37    0.0000    0.0000   -0.0000    0.0547    0.0000    0.0000   -0.0000    0.0555
          38   -0.0005    0.0003   -0.0000    0.0000   -0.0547    0.0000    0.0555    0.0000
          39    0.1268   -0.0866    0.0000    0.0000   -0.0002    0.0000    0.0002   -0.0000


   Root No.      25        26        27        28        29        30        31        32

                 3 T1u     3 T1u     3 T1u     4 T1u     4 T1u     4 T1u     2 Eg      2 Eg  

                 591.7     591.7     591.7    1929.0    1929.0    1929.0    1967.6    1967.6
  
           1   -0.0000   -0.0048   -0.0278    0.2806   -0.0005   -0.0000   -0.1445   -0.0363
           2    0.0565   -0.1399    0.0260   -0.0000    0.0005   -0.0000    0.0000    0.0000
           3   -0.1430   -0.0553    0.0103   -0.0000    0.0000    0.0005    0.0000    0.0000
           4    0.0000    0.0113    0.0659    0.0017   -0.0000    0.0000    0.0000    0.0000
           5   -0.0238    0.0590   -0.0109    0.0000    0.0017   -0.0000   -0.0000    0.0000
           6    0.0603    0.0233   -0.0043    0.0000    0.0000    0.0017    0.0000    0.0000
           7   -0.0000   -0.0048   -0.0278    0.2806   -0.0005   -0.0000    0.1445    0.0363
           8    0.0565   -0.1399    0.0260   -0.0000    0.0005   -0.0000   -0.0000   -0.0000
           9   -0.1430   -0.0553    0.0103   -0.0000    0.0000    0.0005   -0.0000   -0.0000
          10   -0.0000   -0.0268   -0.1564    0.0005    0.0000    0.0000    0.0000   -0.0000
          11    0.0104   -0.0247    0.0046    0.0005    0.2806   -0.0000    0.1034   -0.1083
          12   -0.1431   -0.0549    0.0102    0.0000    0.0010    0.0005    0.0004   -0.0004
          13   -0.0000   -0.0268   -0.1564    0.0005    0.0000    0.0000   -0.0000    0.0000
          14    0.0104   -0.0247    0.0046    0.0005    0.2806   -0.0000   -0.1034    0.1083
          15   -0.1431   -0.0549    0.0102    0.0000    0.0010    0.0005   -0.0004    0.0004
          16   -0.0000   -0.0268   -0.1564    0.0005   -0.0000    0.0000   -0.0000   -0.0000
          17    0.0561   -0.1401    0.0260    0.0000    0.0005   -0.0010    0.0001    0.0005
          18   -0.0252   -0.0102    0.0019    0.0000    0.0000    0.2809   -0.0412   -0.1445
          19   -0.0000   -0.0268   -0.1564    0.0005   -0.0000    0.0000    0.0000    0.0000
          20    0.0561   -0.1401    0.0260    0.0000    0.0005   -0.0010   -0.0001   -0.0005
          21   -0.0252   -0.0102    0.0019    0.0000    0.0000    0.2809    0.0412    0.1445
          22   -0.0000   -0.0045   -0.0259   -0.2168    0.0004    0.0000    0.1055    0.0265
          23   -0.0152    0.0375   -0.0070    0.0000    0.0001   -0.0000   -0.0000   -0.0000
          24    0.0384    0.0148   -0.0028    0.0000    0.0000    0.0001   -0.0000   -0.0000
          25   -0.0000   -0.0045   -0.0259   -0.2168    0.0004    0.0000   -0.1055   -0.0265
          26   -0.0152    0.0375   -0.0070    0.0000    0.0001   -0.0000    0.0000    0.0000
          27    0.0384    0.0148   -0.0028    0.0000    0.0000    0.0001    0.0000    0.0000
          28    0.0000    0.0072    0.0420    0.0001   -0.0000    0.0000   -0.0000    0.0000
          29    0.0091   -0.0233    0.0043   -0.0004   -0.2168    0.0000   -0.0754    0.0790
          30    0.0385    0.0146   -0.0027   -0.0000   -0.0008    0.0001   -0.0003    0.0003
          31    0.0000    0.0072    0.0420    0.0001   -0.0000    0.0000    0.0000   -0.0000
          32    0.0091   -0.0233    0.0043   -0.0004   -0.2168   -0.0000    0.0754   -0.0790
          33    0.0384    0.0146   -0.0027   -0.0000   -0.0008    0.0001    0.0003   -0.0003
          34    0.0000    0.0072    0.0420    0.0001   -0.0000   -0.0000    0.0000    0.0000
          35   -0.0149    0.0376   -0.0070    0.0000    0.0001    0.0008   -0.0001   -0.0004
          36   -0.0238   -0.0089    0.0017   -0.0000   -0.0000   -0.2170    0.0300    0.1055
          37    0.0000    0.0072    0.0420    0.0001   -0.0000   -0.0000   -0.0000   -0.0000
          38   -0.0149    0.0376   -0.0070    0.0000    0.0001    0.0008    0.0001    0.0004
          39   -0.0238   -0.0089    0.0017    0.0000   -0.0000   -0.2170   -0.0300   -0.1055


   Root No.      33

                 2 A1g 

                2052.3
  
           1   -0.0984
           2    0.0000
           3    0.0000
           4   -0.0000
           5    0.0000
           6   -0.0000
           7    0.0984
           8   -0.0000
           9   -0.0000
          10   -0.0000
          11   -0.0984
          12   -0.0004
          13    0.0000
          14    0.0984
          15    0.0004
          16    0.0000
          17   -0.0004
          18    0.0984
          19   -0.0000
          20    0.0004
          21   -0.0984
          22    0.0683
          23   -0.0000
          24   -0.0000
          25   -0.0683
          26    0.0000
          27    0.0000
          28    0.0000
          29    0.0683
          30    0.0002
          31   -0.0000
          32   -0.0683
          33   -0.0002
          34   -0.0000
          35    0.0002
          36   -0.0683
          37    0.0000
          38   -0.0002
          39    0.0683


           MASS-WEIGHTED COORDINATE ANALYSIS (NORMAL COORDINATES)


   Root No.       1         2         3         4         5         6         7         8

                 1 T2u     1 T2u     1 T2u     1 T2g     1 T2g     1 T2g     1 T1u     1 T1u 

                  64.7      64.7      64.7      77.3      77.3      77.3      81.9      81.9
  
           1   -0.0000    0.0000   -0.0000    0.0000   -0.0000    0.0000   -0.0000    0.1177
           2    0.0006    0.1564    0.0000    0.1538    0.0004    0.0000    0.0004   -0.0292
           3   -0.1564    0.0006    0.0002    0.0004   -0.1538   -0.0000   -0.0380   -0.0003
           4   -0.0000    0.0000   -0.0000   -0.0000   -0.0000    0.0000   -0.0000    0.2678
           5   -0.0000   -0.0000   -0.0000   -0.0000    0.0000    0.0000   -0.0044    0.3210
           6    0.0000   -0.0000    0.0000    0.0000    0.0000   -0.0000    0.4180    0.0034
           7   -0.0000    0.0000   -0.0000   -0.0000   -0.0000    0.0000   -0.0000    0.1177
           8    0.0006    0.1564    0.0000   -0.1538   -0.0004   -0.0000    0.0004   -0.0292
           9   -0.1564    0.0006    0.0002   -0.0004    0.1538    0.0000   -0.0380   -0.0003
          10    0.0002   -0.0000    0.1564    0.1538   -0.0001    0.0000    0.0000   -0.0244
          11   -0.0006   -0.0000   -0.0000   -0.0000    0.0000   -0.0006   -0.0011    0.1411
          12    0.1564   -0.0000   -0.0002   -0.0000   -0.0000    0.1538   -0.0380    0.0003
          13    0.0002   -0.0000    0.1564   -0.1538    0.0001   -0.0000    0.0000   -0.0244
          14   -0.0006   -0.0000   -0.0000    0.0000   -0.0000    0.0006   -0.0011    0.1411
          15    0.1564   -0.0000   -0.0002    0.0000    0.0000   -0.1538   -0.0380    0.0003
          16   -0.0002    0.0000   -0.1564    0.0001    0.1538    0.0000    0.0000   -0.0244
          17   -0.0000   -0.1564   -0.0000    0.0000    0.0000   -0.1538   -0.0004   -0.0292
          18    0.0000   -0.0006    0.0000    0.0000    0.0000   -0.0006    0.1837    0.0009
          19   -0.0002    0.0000   -0.1564   -0.0001   -0.1538   -0.0000    0.0000   -0.0244
          20   -0.0000   -0.1564   -0.0000   -0.0000   -0.0000    0.1538   -0.0004   -0.0292
          21    0.0000   -0.0006    0.0000    0.0000    0.0000    0.0006    0.1837    0.0009
          22   -0.0000    0.0000   -0.0000    0.0000   -0.0000    0.0000   -0.0000    0.1343
          23    0.0017    0.4749    0.0000    0.4757    0.0013    0.0000    0.0043   -0.3128
          24   -0.4749    0.0017    0.0007    0.0013   -0.4757   -0.0000   -0.4074   -0.0033
          25   -0.0000    0.0000   -0.0000   -0.0000    0.0000    0.0000   -0.0000    0.1343
          26    0.0017    0.4749    0.0000   -0.4757   -0.0013   -0.0000    0.0043   -0.3128
          27   -0.4749    0.0017    0.0007   -0.0013    0.4757    0.0000   -0.4074   -0.0033
          28    0.0007   -0.0000    0.4749    0.4758   -0.0004    0.0000    0.0000   -0.2610
          29   -0.0017   -0.0000   -0.0000   -0.0000    0.0000   -0.0017    0.0000    0.1610
          30    0.4749   -0.0000   -0.0007   -0.0000   -0.0000    0.4757   -0.4074   -0.0016
          31    0.0007   -0.0000    0.4749   -0.4758    0.0004   -0.0000    0.0000   -0.2610
          32   -0.0017   -0.0000   -0.0000    0.0000   -0.0000    0.0017    0.0000    0.1610
          33    0.4749   -0.0000   -0.0007    0.0000    0.0000   -0.4757   -0.4074   -0.0016
          34   -0.0007    0.0000   -0.4749    0.0004    0.4757    0.0000    0.0000   -0.2610
          35   -0.0000   -0.4749   -0.0000    0.0000    0.0000   -0.4757    0.0021   -0.3128
          36   -0.0000   -0.0017    0.0000    0.0000    0.0000   -0.0017    0.2097   -0.0000
          37   -0.0007    0.0000   -0.4749   -0.0004   -0.4757   -0.0000    0.0000   -0.2610
          38   -0.0000   -0.4749   -0.0000   -0.0000   -0.0000    0.4757    0.0021   -0.3128
          39    0.0000   -0.0017    0.0000    0.0000    0.0000    0.0017    0.2097   -0.0000


   Root No.       9        10        11        12        13        14        15        16

                 1 T1u     1 T1g     1 T1g     1 T1g     2 T1u     2 T1u     2 T1u     1 Eg  

                  81.9     302.5     302.5     302.5     365.2     365.2     365.2     405.3
  
           1    0.1411   -0.0000    0.0000    0.0000   -0.3701    0.0003   -0.0002   -0.3607
           2    0.0244   -0.4370   -0.0014    0.0000    0.0002    0.1862   -0.0006    0.0000
           3    0.0003   -0.0014    0.4370   -0.0000   -0.0001    0.0006    0.1862    0.0000
           4    0.3210    0.0000    0.0000    0.0000    0.4720   -0.0004    0.0003   -0.0000
           5   -0.2678   -0.0000   -0.0000    0.0000    0.0004    0.4720   -0.0016    0.0000
           6   -0.0028   -0.0000    0.0000    0.0000   -0.0003    0.0016    0.4720   -0.0000
           7    0.1411    0.0000   -0.0000   -0.0000   -0.3701    0.0003   -0.0002    0.3607
           8    0.0244    0.4370    0.0014   -0.0000    0.0002    0.1862   -0.0006   -0.0000
           9    0.0003    0.0014   -0.4370    0.0000   -0.0001    0.0006    0.1862   -0.0000
          10   -0.0292    0.4370   -0.0002   -0.0000    0.1862   -0.0002    0.0001    0.0000
          11   -0.1177   -0.0000   -0.0000   -0.0016   -0.0003   -0.3701   -0.0007    0.2587
          12   -0.0003    0.0000    0.0000    0.4370   -0.0001   -0.0014    0.1862    0.0009
          13   -0.0292   -0.4370    0.0002    0.0000    0.1862   -0.0002    0.0001   -0.0000
          14   -0.1177    0.0000    0.0000    0.0016   -0.0003   -0.3701   -0.0007   -0.2587
          15   -0.0003   -0.0000   -0.0000   -0.4370   -0.0001   -0.0014    0.1862   -0.0009
          16   -0.0292    0.0002    0.4370   -0.0000    0.1862   -0.0001    0.0001   -0.0000
          17    0.0244    0.0000    0.0000    0.4370    0.0001    0.1862    0.0014    0.0004
          18   -0.0007    0.0000    0.0000    0.0016    0.0002    0.0007   -0.3701   -0.1019
          19   -0.0292   -0.0002   -0.4370    0.0000    0.1862   -0.0001    0.0001    0.0000
          20    0.0244   -0.0000   -0.0000   -0.4370    0.0001    0.1862    0.0014   -0.0004
          21   -0.0007   -0.0000   -0.0000   -0.0016    0.0002    0.0007   -0.3701    0.1019
          22    0.1610    0.0000   -0.0000    0.0000   -0.4096    0.0003   -0.0003   -0.4283
          23    0.2610    0.2429    0.0008   -0.0000   -0.0001   -0.0852    0.0003    0.0000
          24    0.0028    0.0008   -0.2429    0.0000    0.0001   -0.0003   -0.0852    0.0000
          25    0.1610   -0.0000    0.0000   -0.0000   -0.4096    0.0003   -0.0003    0.4283
          26    0.2610   -0.2429   -0.0008    0.0000   -0.0001   -0.0852    0.0003   -0.0000
          27    0.0028   -0.0008    0.2429   -0.0000    0.0001   -0.0003   -0.0852   -0.0000
          28   -0.3128   -0.2429    0.0001    0.0000   -0.0852    0.0001   -0.0001    0.0000
          29   -0.1343    0.0000    0.0000    0.0009   -0.0003   -0.4096    0.0003    0.3073
          30    0.0013   -0.0000   -0.0000   -0.2429    0.0001   -0.0015   -0.0852    0.0011
          31   -0.3128    0.2429   -0.0001   -0.0000   -0.0852    0.0001   -0.0001   -0.0000
          32   -0.1343   -0.0000   -0.0000   -0.0009   -0.0003   -0.4096    0.0003   -0.3073
          33    0.0013    0.0000    0.0000    0.2429    0.0001   -0.0015   -0.0852   -0.0011
          34   -0.3128   -0.0001   -0.2429    0.0000   -0.0852    0.0001   -0.0001   -0.0000
          35    0.2610   -0.0000   -0.0000   -0.2429   -0.0001   -0.0852    0.0015    0.0004
          36    0.0000   -0.0000   -0.0000   -0.0009    0.0003   -0.0003   -0.4096   -0.1211
          37   -0.3128    0.0001    0.2429   -0.0000   -0.0852    0.0001   -0.0001    0.0000
          38    0.2610    0.0000    0.0000    0.2429   -0.0001   -0.0852    0.0015   -0.0004
          39    0.0000    0.0000    0.0000    0.0009    0.0003   -0.0003   -0.4096    0.1211


   Root No.      17        18        19        20        21        22        23        24

                 1 Eg      1 A1g     2 T2g     2 T2g     2 T2g     2 T2u     2 T2u     2 T2u 

                 405.3     442.1     470.4     470.4     470.4     519.9     519.9     519.9
  
           1   -0.0905   -0.2551    0.0000   -0.0000   -0.0000   -0.0000    0.0000    0.0000
           2   -0.0000    0.0000    0.4757    0.0014    0.0000    0.0017    0.4749    0.0000
           3    0.0000    0.0000    0.0014   -0.4757   -0.0000   -0.4749    0.0017   -0.0005
           4   -0.0000   -0.0000   -0.0000   -0.0000    0.0000   -0.0000    0.0000   -0.0000
           5   -0.0000   -0.0000   -0.0000    0.0000    0.0000   -0.0000   -0.0000    0.0000
           6   -0.0000    0.0000   -0.0000    0.0000   -0.0000    0.0000   -0.0000   -0.0000
           7    0.0905    0.2551   -0.0000    0.0000    0.0000   -0.0000    0.0000    0.0000
           8    0.0000   -0.0000   -0.4757   -0.0014   -0.0000    0.0017    0.4749    0.0000
           9   -0.0000   -0.0000   -0.0014    0.4757    0.0000   -0.4749    0.0017   -0.0005
          10   -0.0000   -0.0000    0.4757   -0.0003    0.0000   -0.0005   -0.0000    0.4749
          11   -0.2671   -0.2551   -0.0000    0.0000   -0.0017   -0.0017    0.0000   -0.0000
          12   -0.0010   -0.0009   -0.0000   -0.0000    0.4757    0.4749   -0.0000    0.0005
          13    0.0000    0.0000   -0.4757    0.0003   -0.0000   -0.0005   -0.0000    0.4749
          14    0.2671    0.2551    0.0000   -0.0000    0.0017   -0.0017    0.0000   -0.0000
          15    0.0010    0.0009    0.0000    0.0000   -0.4757    0.4749   -0.0000    0.0005
          16   -0.0000    0.0000    0.0003    0.4757    0.0000    0.0005    0.0000   -0.4749
          17    0.0013   -0.0009   -0.0000    0.0000   -0.4757   -0.0000   -0.4749   -0.0000
          18   -0.3576    0.2551   -0.0000    0.0000   -0.0017   -0.0000   -0.0017    0.0000
          19    0.0000   -0.0000   -0.0003   -0.4757   -0.0000    0.0005    0.0000   -0.4749
          20   -0.0013    0.0009    0.0000   -0.0000    0.4757   -0.0000   -0.4749   -0.0000
          21    0.3576   -0.2551    0.0000   -0.0000    0.0017   -0.0000   -0.0017    0.0000
          22   -0.1075   -0.3187   -0.0000    0.0000   -0.0000    0.0000   -0.0000    0.0000
          23   -0.0000   -0.0000   -0.1538   -0.0005   -0.0000   -0.0006   -0.1564   -0.0000
          24    0.0000   -0.0000   -0.0005    0.1538    0.0000    0.1564   -0.0006    0.0002
          25    0.1075    0.3187    0.0000   -0.0000    0.0000    0.0000   -0.0000    0.0000
          26    0.0000    0.0000    0.1538    0.0005    0.0000   -0.0006   -0.1564   -0.0000
          27   -0.0000    0.0000    0.0005   -0.1538   -0.0000    0.1564   -0.0006    0.0002
          28   -0.0000    0.0000   -0.1538    0.0001   -0.0000    0.0002    0.0000   -0.1564
          29   -0.3172   -0.3187    0.0000   -0.0000    0.0006    0.0006    0.0000    0.0000
          30   -0.0011   -0.0012    0.0000    0.0000   -0.1538   -0.1564    0.0000   -0.0002
          31    0.0000   -0.0000    0.1538   -0.0001    0.0000    0.0002    0.0000   -0.1564
          32    0.3172    0.3187   -0.0000    0.0000   -0.0006    0.0006   -0.0000    0.0000
          33    0.0011    0.0012   -0.0000   -0.0000    0.1538   -0.1564    0.0000   -0.0002
          34   -0.0000   -0.0000   -0.0001   -0.1538   -0.0000   -0.0002   -0.0000    0.1564
          35    0.0015   -0.0012    0.0000   -0.0000    0.1538    0.0000    0.1564    0.0000
          36   -0.4247    0.3187    0.0000   -0.0000    0.0006    0.0000    0.0006   -0.0000
          37    0.0000    0.0000    0.0001    0.1538    0.0000   -0.0002   -0.0000    0.1564
          38   -0.0015    0.0012   -0.0000    0.0000   -0.1538    0.0000    0.1564    0.0000
          39    0.4247   -0.3187    0.0000    0.0000   -0.0006    0.0000    0.0006   -0.0000


   Root No.      25        26        27        28        29        30        31        32

                 3 T1u     3 T1u     3 T1u     4 T1u     4 T1u     4 T1u     2 Eg      2 Eg  

                 591.7     591.7     591.7    1929.0    1929.0    1929.0    1967.6    1967.6
  
           1    0.0000    0.0074   -0.0725    0.5277   -0.0008   -0.0000   -0.4287   -0.1063
           2   -0.1095   -0.3934   -0.0400   -0.0000    0.0010   -0.0000    0.0000    0.0000
           3   -0.3955    0.1089    0.0109   -0.0000    0.0000    0.0010    0.0000    0.0000
           4   -0.0002   -0.0494    0.4864    0.0093   -0.0000    0.0000    0.0000    0.0000
           5    0.1304    0.4687    0.0477    0.0000    0.0093   -0.0000   -0.0000    0.0000
           6    0.4711   -0.1298   -0.0130    0.0000    0.0000    0.0093    0.0000    0.0000
           7    0.0000    0.0074   -0.0725    0.5277   -0.0008   -0.0000    0.4287    0.1063
           8   -0.1095   -0.3934   -0.0400   -0.0000    0.0010   -0.0000   -0.0000   -0.0000
           9   -0.3955    0.1089    0.0109   -0.0000    0.0000    0.0010   -0.0000   -0.0000
          10    0.0002    0.0415   -0.4082    0.0010    0.0000    0.0000    0.0000   -0.0000
          11   -0.0183   -0.0702   -0.0071    0.0008    0.5277   -0.0000    0.3064   -0.3181
          12   -0.3951    0.1101    0.0110    0.0000    0.0019    0.0010    0.0011   -0.0011
          13    0.0002    0.0415   -0.4082    0.0010    0.0000    0.0000   -0.0000    0.0000
          14   -0.0183   -0.0702   -0.0071    0.0008    0.5277   -0.0000   -0.3064    0.3181
          15   -0.3951    0.1101    0.0110    0.0000    0.0019    0.0010   -0.0011    0.0011
          16    0.0002    0.0415   -0.4082    0.0010   -0.0000    0.0000   -0.0000   -0.0000
          17   -0.1106   -0.3931   -0.0400    0.0000    0.0010   -0.0019    0.0004    0.0015
          18   -0.0705    0.0182    0.0018    0.0000    0.0000    0.5277   -0.1223   -0.4244
          19    0.0002    0.0415   -0.4082    0.0010   -0.0000    0.0000    0.0000    0.0000
          20   -0.1106   -0.3931   -0.0400    0.0000    0.0010   -0.0019   -0.0004   -0.0015
          21   -0.0705    0.0182    0.0018    0.0000    0.0000    0.5277    0.1223    0.4244
          22    0.0000    0.0079   -0.0781   -0.4706    0.0008    0.0000    0.3609    0.0895
          23    0.0339    0.1218    0.0124    0.0000    0.0001   -0.0000   -0.0000   -0.0000
          24    0.1225   -0.0337   -0.0034    0.0000    0.0000    0.0001   -0.0000   -0.0000
          25    0.0000    0.0079   -0.0781   -0.4706    0.0008    0.0000   -0.3609   -0.0895
          26    0.0339    0.1218    0.0124    0.0000    0.0001   -0.0000    0.0000    0.0000
          27    0.1225   -0.0337   -0.0034    0.0000    0.0000    0.0001    0.0000    0.0000
          28   -0.0000   -0.0129    0.1264    0.0001   -0.0000    0.0000   -0.0000    0.0000
          29   -0.0217   -0.0751   -0.0076   -0.0008   -0.4706    0.0000   -0.2580    0.2678
          30    0.1223   -0.0344   -0.0035   -0.0000   -0.0017    0.0001   -0.0009    0.0010
          31   -0.0000   -0.0129    0.1264    0.0001   -0.0000    0.0000    0.0000   -0.0000
          32   -0.0217   -0.0751   -0.0076   -0.0008   -0.4706   -0.0000    0.2580   -0.2678
          33    0.1223   -0.0344   -0.0035   -0.0000   -0.0017    0.0001    0.0009   -0.0010
          34   -0.0000   -0.0128    0.1264    0.0001   -0.0000   -0.0000    0.0000    0.0000
          35    0.0346    0.1216    0.0124    0.0000    0.0001    0.0017   -0.0004   -0.0013
          36   -0.0755    0.0216    0.0022   -0.0000   -0.0000   -0.4706    0.1030    0.3573
          37   -0.0000   -0.0128    0.1264    0.0001   -0.0000   -0.0000   -0.0000   -0.0000
          38    0.0346    0.1216    0.0124    0.0000    0.0001    0.0017    0.0004    0.0013
          39   -0.0755    0.0216    0.0022   -0.0000   -0.0000   -0.4706   -0.1030   -0.3573


   Root No.      33

                 2 A1g 

                2052.3
  
           1   -0.3187
           2    0.0000
           3    0.0000
           4   -0.0000
           5    0.0000
           6   -0.0000
           7    0.3187
           8   -0.0000
           9   -0.0000
          10   -0.0000
          11   -0.3187
          12   -0.0011
          13    0.0000
          14    0.3187
          15    0.0011
          16    0.0000
          17   -0.0011
          18    0.3187
          19   -0.0000
          20    0.0011
          21   -0.3187
          22    0.2551
          23   -0.0000
          24   -0.0000
          25   -0.2551
          26    0.0000
          27    0.0000
          28    0.0000
          29    0.2551
          30    0.0009
          31   -0.0000
          32   -0.2551
          33   -0.0009
          34   -0.0000
          35    0.0009
          36   -0.2551
          37    0.0000
          38   -0.0009
          39    0.2551


          DESCRIPTION OF VIBRATIONS


 VIBRATION          3    1T2u         ATOM PAIR      ENERGY CONTRIBUTION    RADIAL
 FREQUENCY            64.67         Mo 2 -- C  5         +20.2% (106.1%)      0.0%
 TRANSITION DIPOLE   0.0000         Mo 2 -- C  6         +20.2% (106.1%)      0.0%
 TRAVEL (Ang.)       0.5635         Mo 2 -- C  7         +20.2% (106.1%)      0.0%
 REDUCED MASS        3.2839         Mo 2 -- C  4         +20.2% (106.1%)      0.0%
 EFFECTIVE MASS     17.2129
 FORCE CONSTANT      0.0081

 VIBRATION          6    1T2g         ATOM PAIR      ENERGY CONTRIBUTION    RADIAL
 FREQUENCY            77.26         Mo 2 -- C  4         +20.1% ( 87.3%)      0.0%
 TRANSITION DIPOLE   0.0000         Mo 2 -- C  5         +20.1% ( 87.3%)      0.0%
 TRAVEL (Ang.)       0.5139         Mo 2 -- C  6         +20.1% ( 87.3%)      0.0%
 REDUCED MASS        3.3054         Mo 2 -- C  7         +20.1% ( 87.3%)      0.0%
 EFFECTIVE MASS     16.5039
 FORCE CONSTANT      0.0116

 VIBRATION          9    1T1u         ATOM PAIR      ENERGY CONTRIBUTION    RADIAL
 FREQUENCY            81.85         Mo 2 -- C  3         +20.9% (310.7%)     27.5%
 TRANSITION DIPOLE   1.0848         C  1 -- Mo 2         +20.9% (310.7%)     27.5%
 TRAVEL (Ang.)       0.4151         Mo 2 -- C  5         +16.7% (278.0%)     15.5%
 REDUCED MASS        4.5408         Mo 2 -- C  4         +16.7% (278.0%)     15.5%
 EFFECTIVE MASS    129.5252
 FORCE CONSTANT      0.0179

 VIBRATION         12    1T1g         ATOM PAIR      ENERGY CONTRIBUTION    RADIAL
 FREQUENCY           302.47         C  4 -- O 10         +14.7% ( 75.6%)      0.0%
 TRANSITION DIPOLE   0.0000         C  5 -- O 11         +14.7% ( 75.6%)      0.0%
 TRAVEL (Ang.)       0.3359         C  6 -- O 12         +14.7% ( 75.6%)      0.0%
 REDUCED MASS        1.9753         C  7 -- O 13         +14.7% ( 75.6%)      0.0%
 EFFECTIVE MASS     12.9004         Mo 2 -- C  4         +10.3% ( 63.4%)      0.0%
 FORCE CONSTANT      0.1065         Mo 2 -- C  5         +10.3% ( 63.4%)      0.0%
                            Mo 2 -- C  6         +10.3% ( 63.4%)      0.0%
                            Mo 2 -- C  7         +10.3% ( 63.4%)      0.0%

 VIBRATION         15    2T1u         ATOM PAIR      ENERGY CONTRIBUTION    RADIAL
 FREQUENCY           365.18         Mo 2 -- C  6         +38.4% (160.4%)    100.0%
 TRANSITION DIPOLE   3.5059         Mo 2 -- C  7         +38.4% (160.4%)    100.0%
 TRAVEL (Ang.)       0.1730         C  6 -- O 12          +4.7% ( 55.8%)    100.0%
 REDUCED MASS        6.1730         C  7 -- O 13          +4.7% ( 55.8%)    100.0%
 EFFECTIVE MASS     32.9926
 FORCE CONSTANT      0.4850

 VIBRATION         17    1Eg          ATOM PAIR      ENERGY CONTRIBUTION    RADIAL
 FREQUENCY           405.32         Mo 2 -- C  7         +27.0% (133.1%)    100.0%
 TRANSITION DIPOLE   0.0000         Mo 2 -- C  6         +27.0% (133.1%)    100.0%
 TRAVEL (Ang.)       0.2970         Mo 2 -- C  5         +15.1% ( 99.4%)    100.0%
 REDUCED MASS        1.8863         Mo 2 -- C  4         +15.1% ( 99.4%)    100.0%
 EFFECTIVE MASS     15.9081
 FORCE CONSTANT      0.1826

 VIBRATION         18    1A1g         ATOM PAIR      ENERGY CONTRIBUTION    RADIAL
 FREQUENCY           442.05         Mo 2 -- C  7         +14.4% ( 87.0%)    100.0%
 TRANSITION DIPOLE   0.0000         Mo 2 -- C  6         +14.4% ( 87.0%)    100.0%
 TRAVEL (Ang.)       0.3431         Mo 2 -- C  5         +14.4% ( 87.0%)    100.0%
 REDUCED MASS        1.2959         Mo 2 -- C  4         +14.4% ( 87.0%)    100.0%
 EFFECTIVE MASS     15.8382         Mo 2 -- C  3         +14.4% ( 87.0%)    100.0%
 FORCE CONSTANT      0.1492         C  1 -- Mo 2         +14.4% ( 87.0%)    100.0%

 VIBRATION         21    2T2g         ATOM PAIR      ENERGY CONTRIBUTION    RADIAL
 FREQUENCY           470.35         C  4 -- O 10         +13.8% ( 49.3%)      0.0%
 TRANSITION DIPOLE   0.0000         C  5 -- O 11         +13.8% ( 49.3%)      0.0%
 TRAVEL (Ang.)       0.2396         C  6 -- O 12         +13.8% ( 49.3%)      0.0%
 REDUCED MASS        2.4971         C  7 -- O 13         +13.8% ( 49.3%)      0.0%
 EFFECTIVE MASS     12.3647         Mo 2 -- C  4         +11.2% ( 44.4%)      0.0%
 FORCE CONSTANT      0.3255         Mo 2 -- C  5         +11.2% ( 44.4%)      0.0%
                            Mo 2 -- C  6         +11.2% ( 44.4%)      0.0%
                            Mo 2 -- C  7         +11.2% ( 44.4%)      0.0%

 VIBRATION         24    2T2u         ATOM PAIR      ENERGY CONTRIBUTION    RADIAL
 FREQUENCY           519.92         C  4 -- O 10         +13.8% ( 44.6%)      0.0%
 TRANSITION DIPOLE   0.0000         C  5 -- O 11         +13.8% ( 44.6%)      0.0%
 TRAVEL (Ang.)       0.2286         C  6 -- O 12         +13.8% ( 44.6%)      0.0%
 REDUCED MASS        2.4820         C  7 -- O 13         +13.8% ( 44.6%)      0.0%
 EFFECTIVE MASS     12.3766         Mo 2 -- C  4         +11.2% ( 40.1%)      0.0%
 FORCE CONSTANT      0.3953         Mo 2 -- C  6         +11.2% ( 40.1%)      0.0%
                            Mo 2 -- C  7         +11.2% ( 40.1%)      0.0%
                            Mo 2 -- C  5         +11.2% ( 40.1%)      0.0%

 VIBRATION         27    3T1u         ATOM PAIR      ENERGY CONTRIBUTION    RADIAL
 FREQUENCY           591.74         Mo 2 -- C  6         +14.4% ( 48.8%)      0.0%
 TRANSITION DIPOLE   4.1597         Mo 2 -- C  7         +14.4% ( 48.8%)      0.0%
 TRAVEL (Ang.)       0.1292         Mo 2 -- C  5         +14.4% ( 48.7%)      0.4%
 REDUCED MASS        6.8469         Mo 2 -- C  4         +14.4% ( 48.7%)      0.4%
 EFFECTIVE MASS     26.0938
 FORCE CONSTANT      1.4125

 VIBRATION         30    4T1u         ATOM PAIR      ENERGY CONTRIBUTION    RADIAL
 FREQUENCY          1929.02         C  6 -- O 12         +37.6% ( 71.9%)    100.0%
 TRANSITION DIPOLE  14.1104         C  7 -- O 13         +37.6% ( 71.9%)    100.0%
 TRAVEL (Ang.)       0.1009         Mo 2 -- C  6         +12.4% ( 41.3%)    100.0%
 REDUCED MASS        3.4325         Mo 2 -- C  7         +12.4% ( 41.3%)    100.0%
 EFFECTIVE MASS     13.7136
 FORCE CONSTANT      7.5255

 VIBRATION         32    2Eg          ATOM PAIR      ENERGY CONTRIBUTION    RADIAL
 FREQUENCY          1967.57         C  7 -- O 13         +22.9% ( 55.3%)    100.0%
 TRANSITION DIPOLE   0.0000         C  6 -- O 12         +22.9% ( 55.3%)    100.0%
 TRAVEL (Ang.)       0.1413         C  5 -- O 11         +12.8% ( 41.5%)    100.0%
 REDUCED MASS        1.7165         C  4 -- O 10         +12.8% ( 41.5%)    100.0%
 EFFECTIVE MASS     13.5993
 FORCE CONSTANT      3.9152

 VIBRATION         33    2A1g         ATOM PAIR      ENERGY CONTRIBUTION    RADIAL
 FREQUENCY          2052.32         C  7 -- O 13         +12.3% ( 39.0%)    100.0%
 TRANSITION DIPOLE   0.0000         C  6 -- O 12         +12.3% ( 39.0%)    100.0%
 TRAVEL (Ang.)       0.1690         C  5 -- O 11         +12.3% ( 39.0%)    100.0%
 REDUCED MASS        1.1503         C  4 -- O 10         +12.3% ( 39.0%)    100.0%
 EFFECTIVE MASS     13.5037         C  3 -- O  9         +12.3% ( 39.0%)    100.0%
 FORCE CONSTANT      2.8546         C  1 -- O  8         +12.3% ( 39.0%)    100.0%

      SYMMETRY NUMBER FOR POINT-GROUP Oh  = 24


          SYSTEM IS A GROUND STATE



 Mo(CO)6


          MOLECULE IS NOT LINEAR

          THERE ARE 33 GENUINE VIBRATIONS IN THIS SYSTEM
          THIS THERMODYNAMICS CALCULATION IS LIMITED TO
          MOLECULES WHICH HAVE NO INTERNAL ROTATIONS




                    CALCULATED THERMODYNAMIC PROPERTIES
                                          *
   TEMP. (K)   PARTITION FUNCTION   H.O.F.    ENTHALPY  HEAT CAPACITY ENTROPY
                                   KCAL/MOL   CAL/MOLE    CAL/K/MOL  CAL/K/MOL


 298.00  VIB.     0.6302D+06                  7582.4734    42.4134    51.9811
         ROT.     0.8215D+05                   888.2803     2.9808    25.4687
         INT.     0.5177D+11                  8470.7537    45.3942    77.4499
         TRA.     0.4147D+28                  1480.4672     4.9680    42.6095
         TOT.                     -206.813    9951.2209    50.3622   120.0594

 200.00  VIB.     0.7417D+04                  3790.3720    34.0815    36.6608
         ROT.     0.4517D+05                   596.1613     2.9808    24.2800
         INT.     0.3350D+09                  4386.5333    37.0624    60.9408
         TRA.     0.2280D+28                   993.6021     4.9680    40.6284
         TOT.                     -211.384    5380.1354    42.0304   101.5692

 210.00  VIB.     0.1192D+05                  4136.8372    35.1996    38.3510
         ROT.     0.4860D+05                   625.9693     2.9808    24.4255
         INT.     0.5793D+09                  4762.8065    38.1804    62.7765
         TRA.     0.2453D+28                  1043.2822     4.9680    40.8708
         TOT.                     -210.958    5806.0887    43.1484   103.6472

 220.00  VIB.     0.1906D+05                  4494.1296    36.2474    40.0129
         ROT.     0.5211D+05                   655.7774     2.9808    24.5641
         INT.     0.9935D+09                  5149.9070    39.2282    64.5771
         TRA.     0.2631D+28                  1092.9623     4.9680    41.1019
         TOT.                     -210.521    6242.8694    44.1962   105.6789

 230.00  VIB.     0.3035D+05                  4861.5616    37.2280    41.6461
         ROT.     0.5571D+05                   685.5855     2.9808    24.6966
         INT.     0.1690D+10                  5547.1471    40.2088    66.3427
         TRA.     0.2812D+28                  1142.6424     4.9680    41.3227
         TOT.                     -210.074    6689.7895    45.1769   107.6654

 240.00  VIB.     0.4807D+05                  5238.4782    38.1450    43.2501
         ROT.     0.5938D+05                   715.3935     2.9808    24.8235
         INT.     0.2855D+10                  5953.8717    41.1258    68.0736
         TRA.     0.2997D+28                  1192.3226     4.9680    41.5342
         TOT.                     -209.618    7146.1943    46.0938   109.6077

 250.00  VIB.     0.7579D+05                  5624.2620    39.0022    44.8248
         ROT.     0.6313D+05                   745.2016     2.9808    24.9452
         INT.     0.4785D+10                  6369.4636    41.9830    69.7700
         TRA.     0.3187D+28                  1242.0027     4.9680    41.7370
         TOT.                     -209.153    7611.4662    46.9510   111.5069

 260.00  VIB.     0.1189D+06                  6018.3359    39.8037    46.3703
         ROT.     0.6695D+05                   775.0097     2.9808    25.0621
         INT.     0.7962D+10                  6793.3456    42.7845    71.4324
         TRA.     0.3380D+28                  1291.6828     4.9680    41.9318
         TOT.                     -208.679    8085.0284    47.7525   113.3642

 270.00  VIB.     0.1857D+06                  6420.1641    40.5537    47.8867
         ROT.     0.7085D+05                   804.8177     2.9808    25.1746
         INT.     0.1316D+11                  7224.9818    43.5345    73.0613
         TRA.     0.3576D+28                  1341.3629     4.9680    42.1193
         TOT.                     -208.198    8566.3447    48.5025   115.1806

 280.00  VIB.     0.2885D+06                  6829.2515    41.2562    49.3744
         ROT.     0.7482D+05                   834.6258     2.9808    25.2830
         INT.     0.2159D+11                  7663.8773    44.2370    74.6574
         TRA.     0.3777D+28                  1391.0430     4.9680    42.3000
         TOT.                     -207.709    9054.9203    49.2050   116.9574

 290.00  VIB.     0.4462D+06                  7245.1429    41.9151    50.8337
         ROT.     0.7887D+05                   864.4339     2.9808    25.3876
         INT.     0.3519D+11                  8109.5768    44.8959    76.2213
         TRA.     0.3981D+28                  1440.7231     4.9680    42.4743
         TOT.                     -207.214    9550.2998    49.8639   118.6956

 300.00  VIB.     0.6866D+06                  7667.4213    42.5342    52.2653
         ROT.     0.8298D+05                   894.2419     2.9808    25.4886
         INT.     0.5698D+11                  8561.6632    45.5150    77.7539
         TRA.     0.4189D+28                  1490.4032     4.9680    42.6427
         TOT.                     -206.712   10052.0664    50.4830   120.3966

 310.00  VIB.     0.1052D+07                  8095.7056    43.1169    53.6695
         ROT.     0.8717D+05                   924.0500     2.9808    25.5864
         INT.     0.9167D+11                  9019.7555    46.0977    79.2559
         TRA.     0.4400D+28                  1540.0833     4.9680    42.8057
         TOT.                     -206.204   10559.8388    51.0657   122.0616

 320.00  VIB.     0.1603D+07                  8529.6485    43.6664    55.0472
         ROT.     0.9142D+05                   953.8580     2.9808    25.6810
         INT.     0.1465D+12                  9483.5065    46.6472    80.7282
         TRA.     0.4615D+28                  1589.7634     4.9680    42.9634
         TOT.                     -205.691   11073.2699    51.6153   123.6916

 330.00  VIB.     0.2432D+07                  8968.9340    44.1859    56.3989
         ROT.     0.9574D+05                   983.6661     2.9808    25.7727
         INT.     0.2328D+12                  9952.6001    47.1667    82.1717
         TRA.     0.4833D+28                  1639.4435     4.9680    43.1163
         TOT.                     -205.172   11592.0436    52.1347   125.2879

 340.00  VIB.     0.3672D+07                  9413.2751    44.6780    57.7254
         ROT.     0.1001D+06                  1013.4742     2.9808    25.8617
         INT.     0.3677D+12                 10426.7492    47.6588    83.5871
         TRA.     0.5054D+28                  1689.1236     4.9680    43.2646
         TOT.                     -204.648   12115.8729    52.6268   126.8517

 350.00  VIB.     0.5519D+07                  9862.4110    45.1453    59.0273
         ROT.     0.1046D+06                  1043.2822     2.9808    25.9481
         INT.     0.5772D+12                 10905.6932    48.1261    84.9754
         TRA.     0.5279D+28                  1738.8037     4.9680    43.4086
         TOT.                     -204.120   12644.4969    53.0941   128.3840

 360.00  VIB.     0.8258D+07                 10316.1051    45.5900    60.3053
         ROT.     0.1091D+06                  1073.0903     2.9808    26.0321
         INT.     0.9008D+12                 11389.1954    48.5708    86.3375
         TRA.     0.5506D+28                  1788.4838     4.9680    43.5485
         TOT.                     -203.586   13177.6792    53.5388   129.8860

 370.00  VIB.     0.1230D+08                 10774.1428    46.0143    61.5603
         ROT.     0.1137D+06                  1102.8984     2.9808    26.1138
         INT.     0.1398D+13                 11877.0411    48.9951    87.6741
         TRA.     0.5737D+28                  1838.1639     4.9680    43.6846
         TOT.                     -203.049   13715.2051    53.9631   131.3587

 380.00  VIB.     0.1823D+08                 11236.3290    46.4200    62.7928
         ROT.     0.1183D+06                  1132.7064     2.9808    26.1933
         INT.     0.2157D+13                 12369.0354    49.4008    88.9861
         TRA.     0.5972D+28                  1887.8440     4.9680    43.8171
         TOT.                     -202.507   14256.8795    54.3688   132.8032

 390.00  VIB.     0.2691D+08                 11702.4866    46.8088    64.0037
         ROT.     0.1230D+06                  1162.5145     2.9808    26.2707
         INT.     0.3310D+13                 12865.0011    49.7896    90.2744
         TRA.     0.6209D+28                  1937.5242     4.9680    43.9462
         TOT.                     -201.962   14802.5252    54.7577   134.2206

 400.00  VIB.     0.3955D+08                 12172.4544    47.1823    65.1935
         ROT.     0.1278D+06                  1192.3226     2.9808    26.3462
         INT.     0.5053D+13                 13364.7770    50.1631    91.5397
         TRA.     0.6449D+28                  1987.2043     4.9680    44.0720
         TOT.                     -201.412   15351.9812    55.1311   135.6117

   *: NOTE: HEATS OF FORMATION ARE RELATIVE TO THE
            ELEMENTS IN THEIR STANDARD STATE AT 298K
              (=  Standard Enthalpy of Formation).

            Hvib:  Zero-point energy is not included.
                   frequencies of less than zero cm-1 are not included.
            Hrot = (3/2)RT
            Htra = (3/2)RT + pV = (5/2)RT

            Heat capacity is Cp, not Cv

          For more information, see: HTTP://OpenMOPAC.net/Manual/thermochemistry.html


           FORCE CONSTANT IN CARTESIAN COORDINATES (Millidynes/A)

    ATOM   CHEMICAL       X               Y               Z
   NUMBER   SYMBOL  FORCE CONSTANT  FORCE CONSTANT  FORCE CONSTANT

      1       C       16.099474        1.361132        1.361132
      2      Mo        6.493478        6.493478        6.493478
      3       C       16.099474        1.361132        1.361132
      4       C        1.361132       16.099282        1.361324
      5       C        1.361132       16.099282        1.361324
      6       C        1.361132        1.361324       16.099282
      7       C        1.361132        1.361324       16.099282
      8       O       16.122684        0.256621        0.256621
      9       O       16.122684        0.256621        0.256621
     10       O        0.256621       16.122478        0.256827
     11       O        0.256621       16.122478        0.256827
     12       O        0.256621        0.256827       16.122478
     13       O        0.256621        0.256827       16.122478

 **********************
 *                    *
 * JOB ENDED NORMALLY *
 *                    *
 **********************



 TOTAL JOB TIME:             1.02 SECONDS

 == MOPAC DONE ==
