

 Parallel Execution: Process Information
 ==============================================================================
 Rank   Node Name                              NodeID   MyNodeRank  NodeMaster
    0   ubuntu-kch                                0          0          0
    1   ubuntu-kch                                0          1         -1
    2   ubuntu-kch                                0          2         -1
    3   ubuntu-kch                                0          3         -1
 ==============================================================================


May use up to 7570MB of RAM as shared memory on node 0

 *******************************************************************************
 *                                                                             *
 *  --------------------------------                                           *
 *   Amsterdam Modeling Suite (AMS)              2020.202                      *
 *  --------------------------------                                           *
 *                                               r90167 2020-12-05             *
 *                                                                             *
 *                                                                             *
 *                              =================                              *
 *                              |               |                              *
 *                              |     A M S     |                              *
 *                              |               |                              *
 *                              =================                              *
 *                                                                             *
 *                                                                             *
 *   Online information and documentation:  https://www.scm.com/support/       *
 *   E-mail:  support@scm.com   info@scm.com                                   *
 *                                                                             *
 *   Scientific publications using AMS results must be properly referenced     *
 *   See the User Manuals (or the web site) for recommended citations          *
 *   The terms and conditions of the End User License Agreement apply to       *
 *   the use of AMS, https://www.scm.com/license-terms/                        *
 *                                                                             *
 **********************  x86_64_linux_intel / intelmpi  ************************
 
 Licensed to: Dr. Miroslav Ilias / Matej Bel University, Department Chemistry, Fac. Natural Sciences / Banska Bystrica / SLOVAKIA
 SCM User ID: u17848
  
 AMS 2020.202  RunTime: Jan30-2021 14:35:01  Nodes: 1  Procs: 4

 AMS jobname: ams
 AMS jobid  : 1105517037

 Start   directory: /home/milias/work/projects/open-collection/theoretical_chemistry/projects/nmr_diplomovky/reference_compounds/durene/ams/pbe0_tz2p_good/tmp.milias.422898.0.noindex/
 Results directory: /home/milias/work/projects/open-collection/theoretical_chemistry/projects/nmr_diplomovky/reference_compounds/durene/ams/pbe0_tz2p_good/Durene.geopt_freq_nmr_shield_pbe0_tz2p_good_cosmo-chcl3.results/
 Scratch directory: /tmp/amstmp_ams_kid0.1105517037/


 Communication costs MPI_COMM_WORLD:      0.252 usec per message,   0.0033 usec per 8-byte item
 Communication costs for intra-node:      0.264 usec per message,   0.0033 usec per 8-byte item

 RNG seed: 1951606095 1585656231 -1750253419 719826172 1063417085 -369661731 1869582210 -1573584018



                        ********************************************************************
                        *  ADF 2020.202  RunTime: Jan30-2021 14:35:02  Nodes: 1  Procs: 4  *
                        ********************************************************************
  
       ***************************
       *  GEOMETRY OPTIMIZATION  *
       ***************************

Optimization Method                    Quasi Newton
Optimization Coordinates               Delocalized Coordinates
Optimize lattice                       F
 
 ------------------------------------------------------
 Convergence criteria (Hartree,Angstrom)
 ------------------------------------------------------
 Maximum gradient               0.001000000000
 Maximum rms gradient           0.000666666667
 Maximum step allowed           0.001000000000
 Maximum rms step allowed       0.000666666667
 Maximum energy change allowe   0.000240000000
 Maximum stress energy allowe   0.000500000000
 
Initial model Hessian                  Automatic Hessian
 
------------------------------------
Quasi-Newton Optimizer Parameters
------------------------------------
Hessian Update Method                  BFGS
Maximum number of steps                  250
First GDIIS cycle                          0
Maximum GDIIS vectors                      0
Trust radius (bohr)                        0.200000
Trust radius varies                        T
Constraints converged at all steps         T
Use projector                              T
 
 Rigid motions settings for: old optimizer
 Atomic rotations (x,y,z):     T T T
 Atomic translations (x,y,z):  T T T
 Tolerance:                   1.000000000000000E-006
 
--------
Geometry
--------
Atoms
  Index Symbol   x (angstrom)   y (angstrom)   z (angstrom)
      1      C     0.00000000    -0.69957400    -1.22019000       adf.R=1.700
      2      C     0.00000000     0.69957400    -1.22019000       adf.R=1.700
      3      C     0.00000000    -0.69957400     1.22019000       adf.R=1.700
      4      C     0.00000000     0.69957400     1.22019000       adf.R=1.700
      5      C     0.00000000    -1.36881000     0.00000000       adf.R=1.700
      6      C     0.00000000     1.36881000     0.00000000       adf.R=1.700
      7      C     0.00000000    -1.46276100    -2.51676500       adf.R=1.700
      8      C     0.00000000     1.46276100    -2.51676500       adf.R=1.700
      9      C     0.00000000    -1.46276100     2.51676500       adf.R=1.700
     10      C     0.00000000     1.46276100     2.51676500       adf.R=1.700
     11      H     0.00000000    -2.45340700     0.00000000       adf.R=1.350
     12      H     0.00000000     2.45340700     0.00000000       adf.R=1.350
     13      H     0.00000000    -2.53597800    -2.33773500       adf.R=1.350
     14      H    -0.87664300    -1.21638300    -3.11862300       adf.R=1.350
     15      H     0.87664300    -1.21638300    -3.11862300       adf.R=1.350
     16      H     0.00000000     2.53597800    -2.33773500       adf.R=1.350
     17      H     0.87664300     1.21638300    -3.11862300       adf.R=1.350
     18      H    -0.87664300     1.21638300    -3.11862300       adf.R=1.350
     19      H    -0.87664300    -1.21638300     3.11862300       adf.R=1.350
     20      H     0.00000000    -2.53597800     2.33773500       adf.R=1.350
     21      H     0.87664300    -1.21638300     3.11862300       adf.R=1.350
     22      H     0.87664300     1.21638300     3.11862300       adf.R=1.350
     23      H     0.00000000     2.53597800     2.33773500       adf.R=1.350
     24      H    -0.87664300     1.21638300     3.11862300       adf.R=1.350
 
Total System Charge             0.00000
Bonding info available!
 
 
----------------
ADF Engine Input
----------------
 
 Basis
 Type TZ2P
 Core None
 End
 Save TAPE10
 XC
 Hybrid PBE0
 End
 Relativity
 Level None
 End
 Solvation
 Surf Delley
 Solv name=Chloroform cav0=0.0 cav1=0.0067639
 Charged method=CONJ
 C-Mat POT
 SCF VAR ALL
 CSMRSP
 End
 NumericalQuality Good
 

 Title: *** (NO TITLE) ***

Number of symmetry operators: 8
Schoenflies symbol:           D(2H)
 Using automatic Hessian for delocalized coordinates.
 *** GOStep1 ***

 SOLVATION
-------------------------------------------

  The Delley construction of COSMO surface surface is calculated

       Division Level for Surface Triangles (NDIV)                  3
       Final Division Level for Triangles (NFDIV)                   1
       Radius of the Solvent (RSOL)                           3.17000 angstr
  Dielectric Constant (EPSL)                                  4.80000

       COSMO equation is solved iteratively-               conjugate-gradient

       Maximun of Iterations for Charges (NCIX)                  1000
       Criterion for Charge convergence (CCNV)                1.0E-08

  COSMO charges included variationally in SCF

       COSMO included at every SCF cycle

  Geometry-dependent empirical factor                         0.00000

  C-Matrix calculated in cspmtx

  In cspmtx, C-Matrix calculated using fitted potential

-------------------------------------------



 -------------------------------------------
  COSMO surface
  Area             =          698.301
  Volume           =         1289.526
  Number of Points =         1822
 -------------------------------------------



 ======================
 RI Hartree-Fock Scheme
 ======================
  
 Fit Set Quality     : GOOD
 Integration Quality : GOOD
 Threshold Quality   : GOOD
 Response Quality    : DEFAULT
 Is Range Separated  :  F
 
 RIHartreeFock Dependency: number of modified vectors:          26
 cosmo_calcen: 0.5 (esolb+esolc) (Hartrees) =   -0.003778

 Solvation energy (screening term,uncorrected) =     -2.370714 kcal/mol

 Solvation energy (dispersion and cavitation terms) =      1.047091 kcal/mol
 Solvation Energy Contributions (Hartrees)
          esola   esolb+esolc
     0.00377797   -0.00755594
 esol last cycle   -0.00377797
  
 Hartree-Fock exchange energy:   -56.8528427670789     
 cosmo_calcen: 0.5 (esolb+esolc) (Hartrees) =   -0.003778

 Solvation energy (screening term,uncorrected) =     -2.370717 kcal/mol

 Solvation energy (dispersion and cavitation terms) =      1.047091 kcal/mol
 Solvation Energy Contributions (Hartrees)
          esola   esolb+esolc
     0.00377798   -0.00755595
 esol last cycle   -0.00377798
  pauli hf:                             -2.919601637062783        -79.4464         -1832.08         -7665.41
  elstat hf:                            -2.568702508476292        -69.8980         -1611.89         -6744.13

 Energy gradients wrt nuclear displacements
 ==========================================

     Atom      Cartesian (a.u./angstrom)
                 X         Y         Z
 ----------------------------------------
     1 C     0.000000  0.003048  0.003612
     2 C    -0.000000 -0.003048  0.003612
     3 C    -0.000000  0.003048 -0.003612
     4 C     0.000000 -0.003048 -0.003612
     5 C     0.000000 -0.005186  0.000000
     6 C    -0.000000  0.005186  0.000000
     7 C     0.000000 -0.003704 -0.009097
     8 C    -0.000000  0.003704 -0.009097
     9 C    -0.000000 -0.003704  0.009097
    10 C     0.000000  0.003704  0.009097
    11 H    -0.000000  0.001848  0.000000
    12 H     0.000000 -0.001848  0.000000
    13 H     0.000000  0.002216 -0.000108
    14 H     0.001590  0.000128  0.001655
    15 H    -0.001590  0.000128  0.001655
    16 H     0.000000 -0.002216 -0.000108
    17 H    -0.001590 -0.000128  0.001655
    18 H     0.001590 -0.000128  0.001655
    19 H     0.001590  0.000128 -0.001655
    20 H     0.000000  0.002216  0.000108
    21 H    -0.001590  0.000128 -0.001655
    22 H    -0.001590 -0.000128 -0.001655
    23 H     0.000000 -0.002216  0.000108
    24 H     0.001590 -0.000128 -0.001655
 ----------------------------------------
 Mulliken charges used for AMS results%charges...
 
----------------------------------------------------------------------
Geometry Convergence after Step   1       (Hartree/Angstrom,Angstrom)
----------------------------------------------------------------------
current energy                               -6.26847052 Hartree
energy change                      -6.26847052     0.00024000    F
constrained gradient max            0.00909687     0.00100000    F
constrained gradient rms            0.00288149     0.00066667    F
gradient max                        0.00909687
gradient rms                        0.00288149
cart. step max                      0.02008146     0.00100000    F
cart. step rms                      0.00881350     0.00066667    F
 
 
--------
Geometry
--------
Atoms
  Index Symbol   x (angstrom)   y (angstrom)   z (angstrom)
      1      C    -0.00000000    -0.69961147    -1.22039274       adf.R=1.700
      2      C     0.00000000     0.69961147    -1.22039274       adf.R=1.700
      3      C    -0.00000000    -0.69961147     1.22039274       adf.R=1.700
      4      C     0.00000000     0.69961147     1.22039274       adf.R=1.700
      5      C    -0.00000000    -1.36550577     0.00000000       adf.R=1.700
      6      C     0.00000000     1.36550577     0.00000000       adf.R=1.700
      7      C    -0.00000000    -1.47292445    -2.50731306       adf.R=1.700
      8      C     0.00000000     1.47292445    -2.50731306       adf.R=1.700
      9      C    -0.00000000    -1.47292445     2.50731306       adf.R=1.700
     10      C     0.00000000     1.47292445     2.50731306       adf.R=1.700
     11      H    -0.00000000    -2.45113274     0.00000000       adf.R=1.350
     12      H     0.00000000     2.45113274     0.00000000       adf.R=1.350
     13      H    -0.00000000    -2.54556514    -2.31765354       adf.R=1.350
     14      H    -0.87731345    -1.23440805    -3.11354393       adf.R=1.350
     15      H     0.87731345    -1.23440805    -3.11354393       adf.R=1.350
     16      H     0.00000000     2.54556514    -2.31765354       adf.R=1.350
     17      H     0.87731345     1.23440805    -3.11354393       adf.R=1.350
     18      H    -0.87731345     1.23440805    -3.11354393       adf.R=1.350
     19      H    -0.87731345    -1.23440805     3.11354393       adf.R=1.350
     20      H    -0.00000000    -2.54556514     2.31765354       adf.R=1.350
     21      H     0.87731345    -1.23440805     3.11354393       adf.R=1.350
     22      H     0.87731345     1.23440805     3.11354393       adf.R=1.350
     23      H     0.00000000     2.54556514     2.31765354       adf.R=1.350
     24      H    -0.87731345     1.23440805     3.11354393       adf.R=1.350
 
Total System Charge             0.00000
Bonding info available!
 
 *** GOStep2 ***

 SOLVATION
-------------------------------------------

  The Delley construction of COSMO surface surface is calculated

       Division Level for Surface Triangles (NDIV)                  3
       Final Division Level for Triangles (NFDIV)                   1
       Radius of the Solvent (RSOL)                           3.17000 angstr
  Dielectric Constant (EPSL)                                  4.80000

       COSMO equation is solved iteratively-               conjugate-gradient

       Maximun of Iterations for Charges (NCIX)                  1000
       Criterion for Charge convergence (CCNV)                1.0E-08

  COSMO charges included variationally in SCF

       COSMO included at every SCF cycle

  Geometry-dependent empirical factor                         0.00000

  C-Matrix calculated in cspmtx

  In cspmtx, C-Matrix calculated using fitted potential

-------------------------------------------



 -------------------------------------------
  COSMO surface
  Area             =          698.380
  Volume           =         1289.207
  Number of Points =         1814
 -------------------------------------------



 ======================
 RI Hartree-Fock Scheme
 ======================
  
 Fit Set Quality     : GOOD
 Integration Quality : GOOD
 Threshold Quality   : GOOD
 Response Quality    : DEFAULT
 Is Range Separated  :  F
 
 RIHartreeFock Dependency: number of modified vectors:          26
 cosmo_calcen: 0.5 (esolb+esolc) (Hartrees) =   -0.003749

 Solvation energy (screening term,uncorrected) =     -2.352521 kcal/mol

 Solvation energy (dispersion and cavitation terms) =      1.047209 kcal/mol
 Solvation Energy Contributions (Hartrees)
          esola   esolb+esolc
     0.00374898   -0.00749796
 esol last cycle   -0.00374898
  
 Hartree-Fock exchange energy:   -56.8549466595755     
 cosmo_calcen: 0.5 (esolb+esolc) (Hartrees) =   -0.003749

 Solvation energy (screening term,uncorrected) =     -2.352521 kcal/mol

 Solvation energy (dispersion and cavitation terms) =      1.047209 kcal/mol
 Solvation Energy Contributions (Hartrees)
          esola   esolb+esolc
     0.00374898   -0.00749796
 esol last cycle   -0.00374898
  pauli hf:                             -2.928866179850997        -79.6985         -1837.89         -7689.74
  elstat hf:                            -2.570858728415628        -69.9566         -1613.24         -6749.79

 Energy gradients wrt nuclear displacements
 ==========================================

     Atom      Cartesian (a.u./angstrom)
                 X         Y         Z
 ----------------------------------------
     1 C    -0.000000  0.001640  0.002648
     2 C     0.000000 -0.001640  0.002648
     3 C     0.000000  0.001640 -0.002648
     4 C    -0.000000 -0.001640 -0.002648
     5 C     0.000000 -0.001835  0.000000
     6 C    -0.000000  0.001835  0.000000
     7 C     0.000000 -0.002695 -0.003916
     8 C    -0.000000  0.002695 -0.003916
     9 C    -0.000000 -0.002695  0.003916
    10 C     0.000000  0.002695  0.003916
    11 H    -0.000000  0.000582 -0.000000
    12 H     0.000000 -0.000582 -0.000000
    13 H    -0.000000  0.000682  0.000114
    14 H     0.000533  0.000104  0.000899
    15 H    -0.000533  0.000104  0.000899
    16 H     0.000000 -0.000682  0.000114
    17 H    -0.000533 -0.000104  0.000899
    18 H     0.000533 -0.000104  0.000899
    19 H     0.000533  0.000104 -0.000899
    20 H     0.000000  0.000682 -0.000114
    21 H    -0.000533  0.000104 -0.000899
    22 H    -0.000533 -0.000104 -0.000899
    23 H    -0.000000 -0.000682 -0.000114
    24 H     0.000533 -0.000104 -0.000899
 ----------------------------------------
 Mulliken charges used for AMS results%charges...

 dE(predicted):    -0.13792E-03, dE(actual):    -0.16287E-03, Trust radius:    0.200000, all in a.u.
 
----------------------------------------------------------------------
Geometry Convergence after Step   2       (Hartree/Angstrom,Angstrom)
----------------------------------------------------------------------
current energy                               -6.26863339 Hartree
energy change                      -0.00016287     0.00024000    T
constrained gradient max            0.00391564     0.00100000    F
constrained gradient rms            0.00143057     0.00066667    F
gradient max                        0.00391564
gradient rms                        0.00143057
cart. step max                      0.00195814     0.00100000    F
cart. step rms                      0.00089842     0.00066667    F
 
 
--------
Geometry
--------
Atoms
  Index Symbol   x (angstrom)   y (angstrom)   z (angstrom)
      1      C    -0.00000000    -0.69937079    -1.22129554       adf.R=1.700
      2      C     0.00000000     0.69937079    -1.22129554       adf.R=1.700
      3      C    -0.00000000    -0.69937079     1.22129554       adf.R=1.700
      4      C     0.00000000     0.69937079     1.22129554       adf.R=1.700
      5      C    -0.00000000    -1.36354762    -0.00000000       adf.R=1.700
      6      C     0.00000000     1.36354762    -0.00000000       adf.R=1.700
      7      C    -0.00000000    -1.47222031    -2.50594598       adf.R=1.700
      8      C     0.00000000     1.47222031    -2.50594598       adf.R=1.700
      9      C    -0.00000000    -1.47222031     2.50594598       adf.R=1.700
     10      C     0.00000000     1.47222031     2.50594598       adf.R=1.700
     11      H    -0.00000000    -2.44970820    -0.00000000       adf.R=1.350
     12      H     0.00000000     2.44970820    -0.00000000       adf.R=1.350
     13      H    -0.00000000    -2.54537905    -2.31571182       adf.R=1.350
     14      H    -0.87734155    -1.23570052    -3.11432234       adf.R=1.350
     15      H     0.87734155    -1.23570052    -3.11432234       adf.R=1.350
     16      H     0.00000000     2.54537905    -2.31571182       adf.R=1.350
     17      H     0.87734155     1.23570052    -3.11432234       adf.R=1.350
     18      H    -0.87734155     1.23570052    -3.11432234       adf.R=1.350
     19      H    -0.87734155    -1.23570052     3.11432234       adf.R=1.350
     20      H    -0.00000000    -2.54537905     2.31571182       adf.R=1.350
     21      H     0.87734155    -1.23570052     3.11432234       adf.R=1.350
     22      H     0.87734155     1.23570052     3.11432234       adf.R=1.350
     23      H     0.00000000     2.54537905     2.31571182       adf.R=1.350
     24      H    -0.87734155     1.23570052     3.11432234       adf.R=1.350
 
Total System Charge             0.00000
Bonding info available!
 
 *** GOStep3 ***

 SOLVATION
-------------------------------------------

  The Delley construction of COSMO surface surface is calculated

       Division Level for Surface Triangles (NDIV)                  3
       Final Division Level for Triangles (NFDIV)                   1
       Radius of the Solvent (RSOL)                           3.17000 angstr
  Dielectric Constant (EPSL)                                  4.80000

       COSMO equation is solved iteratively-               conjugate-gradient

       Maximun of Iterations for Charges (NCIX)                  1000
       Criterion for Charge convergence (CCNV)                1.0E-08

  COSMO charges included variationally in SCF

       COSMO included at every SCF cycle

  Geometry-dependent empirical factor                         0.00000

  C-Matrix calculated in cspmtx

  In cspmtx, C-Matrix calculated using fitted potential

-------------------------------------------



 -------------------------------------------
  COSMO surface
  Area             =          699.169
  Volume           =         1290.643
  Number of Points =         1822
 -------------------------------------------



 ======================
 RI Hartree-Fock Scheme
 ======================
  
 Fit Set Quality     : GOOD
 Integration Quality : GOOD
 Threshold Quality   : GOOD
 Response Quality    : DEFAULT
 Is Range Separated  :  F
 
 RIHartreeFock Dependency: number of modified vectors:          26
 cosmo_calcen: 0.5 (esolb+esolc) (Hartrees) =   -0.003740

 Solvation energy (screening term,uncorrected) =     -2.347070 kcal/mol

 Solvation energy (dispersion and cavitation terms) =      1.048393 kcal/mol
 Solvation Energy Contributions (Hartrees)
          esola   esolb+esolc
     0.00374029   -0.00748059
 esol last cycle   -0.00374029
  
 Hartree-Fock exchange energy:   -56.8554524370448     
 cosmo_calcen: 0.5 (esolb+esolc) (Hartrees) =   -0.003740

 Solvation energy (screening term,uncorrected) =     -2.347072 kcal/mol

 Solvation energy (dispersion and cavitation terms) =      1.048393 kcal/mol
 Solvation Energy Contributions (Hartrees)
          esola   esolb+esolc
     0.00374030   -0.00748059
 esol last cycle   -0.00374030
  pauli hf:                             -2.913992887421609        -79.2938         -1828.56         -7650.69
  elstat hf:                            -2.572372456273660        -69.9978         -1614.19         -6753.76

 Energy gradients wrt nuclear displacements
 ==========================================

     Atom      Cartesian (a.u./angstrom)
                 X         Y         Z
 ----------------------------------------
     1 C     0.000000  0.000888  0.000752
     2 C    -0.000000 -0.000888  0.000752
     3 C    -0.000000  0.000888 -0.000752
     4 C     0.000000 -0.000888 -0.000752
     5 C    -0.000000  0.000312  0.000000
     6 C     0.000000 -0.000312  0.000000
     7 C     0.000000 -0.000633 -0.001109
     8 C    -0.000000  0.000633 -0.001109
     9 C    -0.000000 -0.000633  0.001109
    10 C     0.000000  0.000633  0.001109
    11 H    -0.000000  0.000032 -0.000000
    12 H     0.000000 -0.000032 -0.000000
    13 H     0.000000  0.000051  0.000219
    14 H    -0.000033  0.000052  0.000172
    15 H     0.000033  0.000052  0.000172
    16 H    -0.000000 -0.000051  0.000219
    17 H     0.000033 -0.000052  0.000172
    18 H    -0.000033 -0.000052  0.000172
    19 H    -0.000033  0.000052 -0.000172
    20 H    -0.000000  0.000051 -0.000219
    21 H     0.000033  0.000052 -0.000172
    22 H     0.000033 -0.000052 -0.000172
    23 H     0.000000 -0.000051 -0.000219
    24 H    -0.000033 -0.000052 -0.000172
 ----------------------------------------
 Mulliken charges used for AMS results%charges...

 dE(predicted):    -0.23975E-04, dE(actual):    -0.27130E-04, Trust radius:    0.200000, all in a.u.
 
----------------------------------------------------------------------
Geometry Convergence after Step   3       (Hartree/Angstrom,Angstrom)
----------------------------------------------------------------------
current energy                               -6.26866052 Hartree
energy change                      -0.00002713     0.00024000    T
constrained gradient max            0.00110893     0.00100000    F
constrained gradient rms            0.00041840     0.00066667    T
gradient max                        0.00110893
gradient rms                        0.00041840
cart. step max                      0.00138047     0.00100000    F
cart. step rms                      0.00055589     0.00066667    T
 
 
--------
Geometry
--------
Atoms
  Index Symbol   x (angstrom)   y (angstrom)   z (angstrom)
      1      C    -0.00000000    -0.69953456    -1.22134399       adf.R=1.700
      2      C     0.00000000     0.69953456    -1.22134399       adf.R=1.700
      3      C    -0.00000000    -0.69953456     1.22134399       adf.R=1.700
      4      C     0.00000000     0.69953456     1.22134399       adf.R=1.700
      5      C    -0.00000000    -1.36384715     0.00000000       adf.R=1.700
      6      C     0.00000000     1.36384715     0.00000000       adf.R=1.700
      7      C    -0.00000000    -1.47130889    -2.50577254       adf.R=1.700
      8      C     0.00000000     1.47130889    -2.50577254       adf.R=1.700
      9      C    -0.00000000    -1.47130889     2.50577254       adf.R=1.700
     10      C     0.00000000     1.47130889     2.50577254       adf.R=1.700
     11      H    -0.00000000    -2.45010542     0.00000000       adf.R=1.350
     12      H     0.00000000     2.45010542     0.00000000       adf.R=1.350
     13      H    -0.00000000    -2.54484090    -2.31709230       adf.R=1.350
     14      H    -0.87711936    -1.23470378    -3.11468808       adf.R=1.350
     15      H     0.87711936    -1.23470378    -3.11468808       adf.R=1.350
     16      H     0.00000000     2.54484090    -2.31709230       adf.R=1.350
     17      H     0.87711936     1.23470378    -3.11468808       adf.R=1.350
     18      H    -0.87711936     1.23470378    -3.11468808       adf.R=1.350
     19      H    -0.87711936    -1.23470378     3.11468808       adf.R=1.350
     20      H    -0.00000000    -2.54484090     2.31709230       adf.R=1.350
     21      H     0.87711936    -1.23470378     3.11468808       adf.R=1.350
     22      H     0.87711936     1.23470378     3.11468808       adf.R=1.350
     23      H     0.00000000     2.54484090     2.31709230       adf.R=1.350
     24      H    -0.87711936     1.23470378     3.11468808       adf.R=1.350
 
Total System Charge             0.00000
Bonding info available!
 
 *** GOStep4 ***

 SOLVATION
-------------------------------------------

  The Delley construction of COSMO surface surface is calculated

       Division Level for Surface Triangles (NDIV)                  3
       Final Division Level for Triangles (NFDIV)                   1
       Radius of the Solvent (RSOL)                           3.17000 angstr
  Dielectric Constant (EPSL)                                  4.80000

       COSMO equation is solved iteratively-               conjugate-gradient

       Maximun of Iterations for Charges (NCIX)                  1000
       Criterion for Charge convergence (CCNV)                1.0E-08

  COSMO charges included variationally in SCF

       COSMO included at every SCF cycle

  Geometry-dependent empirical factor                         0.00000

  C-Matrix calculated in cspmtx

  In cspmtx, C-Matrix calculated using fitted potential

-------------------------------------------



 -------------------------------------------
  COSMO surface
  Area             =          698.469
  Volume           =         1289.413
  Number of Points =         1814
 -------------------------------------------



 ======================
 RI Hartree-Fock Scheme
 ======================
  
 Fit Set Quality     : GOOD
 Integration Quality : GOOD
 Threshold Quality   : GOOD
 Response Quality    : DEFAULT
 Is Range Separated  :  F
 
 RIHartreeFock Dependency: number of modified vectors:          26
 cosmo_calcen: 0.5 (esolb+esolc) (Hartrees) =   -0.003741

 Solvation energy (screening term,uncorrected) =     -2.347363 kcal/mol

 Solvation energy (dispersion and cavitation terms) =      1.047342 kcal/mol
 Solvation Energy Contributions (Hartrees)
          esola   esolb+esolc
     0.00374076   -0.00748152
 esol last cycle   -0.00374076
  
 Hartree-Fock exchange energy:   -56.8553478173568     
 cosmo_calcen: 0.5 (esolb+esolc) (Hartrees) =   -0.003741

 Solvation energy (screening term,uncorrected) =     -2.347364 kcal/mol

 Solvation energy (dispersion and cavitation terms) =      1.047342 kcal/mol
 Solvation Energy Contributions (Hartrees)
          esola   esolb+esolc
     0.00374076   -0.00748153
 esol last cycle   -0.00374076
  pauli hf:                             -2.893602244029351        -78.7389         -1815.76         -7597.15
  elstat hf:                            -2.572659398763102        -70.0056         -1614.37         -6754.52

 Energy gradients wrt nuclear displacements
 ==========================================

     Atom      Cartesian (a.u./angstrom)
                 X         Y         Z
 ----------------------------------------
     1 C    -0.000000  0.000198  0.000078
     2 C     0.000000 -0.000198  0.000078
     3 C     0.000000  0.000198 -0.000078
     4 C    -0.000000 -0.000198 -0.000078
     5 C     0.000000  0.000204 -0.000000
     6 C    -0.000000 -0.000204 -0.000000
     7 C    -0.000000 -0.000026 -0.000149
     8 C     0.000000  0.000026 -0.000149
     9 C     0.000000 -0.000026  0.000149
    10 C    -0.000000  0.000026  0.000149
    11 H     0.000000 -0.000095 -0.000000
    12 H    -0.000000  0.000095 -0.000000
    13 H    -0.000000 -0.000061  0.000090
    14 H    -0.000069  0.000016 -0.000000
    15 H     0.000069  0.000016 -0.000000
    16 H     0.000000  0.000061  0.000090
    17 H     0.000069 -0.000016 -0.000000
    18 H    -0.000069 -0.000016 -0.000000
    19 H    -0.000069  0.000016  0.000000
    20 H     0.000000 -0.000061 -0.000090
    21 H     0.000069  0.000016  0.000000
    22 H     0.000069 -0.000016  0.000000
    23 H    -0.000000  0.000061 -0.000090
    24 H    -0.000069 -0.000016  0.000000
 ----------------------------------------
 Mulliken charges used for AMS results%charges...

 dE(predicted):    -0.26314E-05, dE(actual):    -0.43254E-05, Trust radius:    0.200000, all in a.u.
 
---------------------------------------------------------
Geometry Convergence after Step   4       ** CONVERGED **
---------------------------------------------------------
current energy                               -6.26866485 Hartree
energy change                      -0.00000433     0.00024000    T
constrained gradient max            0.00020352     0.00100000    T
constrained gradient rms            0.00007995     0.00066667    T
gradient max                        0.00020352
gradient rms                        0.00007995
cart. step max                      0.00081749     0.00100000    T
cart. step rms                      0.00029274     0.00066667    T
 
Geometry optimization converged

Optimized geometry:
 
--------
Geometry
--------
Atoms
  Index Symbol   x (angstrom)   y (angstrom)   z (angstrom)
      1      C    -0.00000000    -0.69953456    -1.22134399       adf.R=1.700
      2      C     0.00000000     0.69953456    -1.22134399       adf.R=1.700
      3      C    -0.00000000    -0.69953456     1.22134399       adf.R=1.700
      4      C     0.00000000     0.69953456     1.22134399       adf.R=1.700
      5      C    -0.00000000    -1.36384715     0.00000000       adf.R=1.700
      6      C     0.00000000     1.36384715     0.00000000       adf.R=1.700
      7      C    -0.00000000    -1.47130889    -2.50577254       adf.R=1.700
      8      C     0.00000000     1.47130889    -2.50577254       adf.R=1.700
      9      C    -0.00000000    -1.47130889     2.50577254       adf.R=1.700
     10      C     0.00000000     1.47130889     2.50577254       adf.R=1.700
     11      H    -0.00000000    -2.45010542     0.00000000       adf.R=1.350
     12      H     0.00000000     2.45010542     0.00000000       adf.R=1.350
     13      H    -0.00000000    -2.54484090    -2.31709230       adf.R=1.350
     14      H    -0.87711936    -1.23470378    -3.11468808       adf.R=1.350
     15      H     0.87711936    -1.23470378    -3.11468808       adf.R=1.350
     16      H     0.00000000     2.54484090    -2.31709230       adf.R=1.350
     17      H     0.87711936     1.23470378    -3.11468808       adf.R=1.350
     18      H    -0.87711936     1.23470378    -3.11468808       adf.R=1.350
     19      H    -0.87711936    -1.23470378     3.11468808       adf.R=1.350
     20      H    -0.00000000    -2.54484090     2.31709230       adf.R=1.350
     21      H     0.87711936    -1.23470378     3.11468808       adf.R=1.350
     22      H     0.87711936     1.23470378     3.11468808       adf.R=1.350
     23      H     0.00000000     2.54484090     2.31709230       adf.R=1.350
     24      H    -0.87711936     1.23470378     3.11468808       adf.R=1.350
 
Total System Charge             0.00000
Bonding info available!
 
Performing a single point calculation on the final geometry ...

 *** adf ***



 ===========================
 A T T A C H E D   F I L E S
 ===========================
  
 Restart/tmp/amstmp_ams_kid0.1105517037/GOStep4.rkf*** GOStep4 ***



 ===============================
 M O D E L   P A R A M E T E R S
 ===============================
  
 DENSITY FUNCTIONAL POTENTIAL (scf)
    Hybrid:                            PBE0                                    == Not Default ==

 SPIN  (restricted / unrestr.)
    Molecule:                          Restricted                               
    Fragments:                         Restricted                               

 OTHER ASPECTS
    Relativistic Corrections:          ---                                     == Not Default ==

    Nuclear Charge Density Model:      Point Charge Nuclei                      
    Core Treatment:                    Frozen Orbital(s)                        

    Hyperfine or Zeeman Interaction:   ---                                      

 SOLVATION
-------------------------------------------

  The Delley construction of COSMO surface surface is calculated

       Division Level for Surface Triangles (NDIV)                  3
       Final Division Level for Triangles (NFDIV)                   1
       Radius of the Solvent (RSOL)                           3.17000 angstr
  Dielectric Constant (EPSL)                                  4.80000

       COSMO equation is solved iteratively-               conjugate-gradient

       Maximun of Iterations for Charges (NCIX)                  1000
       Criterion for Charge convergence (CCNV)                1.0E-08

  COSMO charges included variationally in SCF

       COSMO included at every SCF cycle

  Geometry-dependent empirical factor                         0.00000

  C-Matrix calculated in cspmtx

  In cspmtx, C-Matrix calculated using fitted potential

-------------------------------------------




 ===============
 G E O M E T R Y  ***  3D  Molecule  ***
 ===============
  

 ATOMS
 =====                            X Y Z                    CHARGE                     RADIUS
                                (Angstrom)             Nucl     +Core       At.Mass (Angstrom)
                       --------------------------    ----------------       ------- ----------
    1  C              -0.0000   -0.6995   -1.2213      6.00      6.00       12.0000    1.7000
    2  C               0.0000    0.6995   -1.2213      6.00      6.00       12.0000    1.7000
    3  C              -0.0000   -0.6995    1.2213      6.00      6.00       12.0000    1.7000
    4  C               0.0000    0.6995    1.2213      6.00      6.00       12.0000    1.7000
    5  C              -0.0000   -1.3638    0.0000      6.00      6.00       12.0000    1.7000
    6  C               0.0000    1.3638    0.0000      6.00      6.00       12.0000    1.7000
    7  C              -0.0000   -1.4713   -2.5058      6.00      6.00       12.0000    1.7000
    8  C               0.0000    1.4713   -2.5058      6.00      6.00       12.0000    1.7000
    9  C              -0.0000   -1.4713    2.5058      6.00      6.00       12.0000    1.7000
   10  C               0.0000    1.4713    2.5058      6.00      6.00       12.0000    1.7000
   11  H              -0.0000   -2.4501    0.0000      1.00      1.00        1.0078    1.3500
   12  H               0.0000    2.4501    0.0000      1.00      1.00        1.0078    1.3500
   13  H              -0.0000   -2.5448   -2.3171      1.00      1.00        1.0078    1.3500
   14  H              -0.8771   -1.2347   -3.1147      1.00      1.00        1.0078    1.3500
   15  H               0.8771   -1.2347   -3.1147      1.00      1.00        1.0078    1.3500
   16  H               0.0000    2.5448   -2.3171      1.00      1.00        1.0078    1.3500
   17  H               0.8771    1.2347   -3.1147      1.00      1.00        1.0078    1.3500
   18  H              -0.8771    1.2347   -3.1147      1.00      1.00        1.0078    1.3500
   19  H              -0.8771   -1.2347    3.1147      1.00      1.00        1.0078    1.3500
   20  H              -0.0000   -2.5448    2.3171      1.00      1.00        1.0078    1.3500
   21  H               0.8771   -1.2347    3.1147      1.00      1.00        1.0078    1.3500
   22  H               0.8771    1.2347    3.1147      1.00      1.00        1.0078    1.3500
   23  H               0.0000    2.5448    2.3171      1.00      1.00        1.0078    1.3500
   24  H              -0.8771    1.2347    3.1147      1.00      1.00        1.0078    1.3500


 FRAGMENTS
 =========                                     Atoms in this Fragment     Cart. coord.s (Angstrom)
                                               -------------------------------------------------------
    1  C                                                 1  C           -0.0000   -0.6995   -1.2213
    2  C                                                 2  C            0.0000    0.6995   -1.2213
    3  C                                                 3  C           -0.0000   -0.6995    1.2213
    4  C                                                 4  C            0.0000    0.6995    1.2213
    5  C                                                 5  C           -0.0000   -1.3638    0.0000
    6  C                                                 6  C            0.0000    1.3638    0.0000
    7  C                                                 7  C           -0.0000   -1.4713   -2.5058
    8  C                                                 8  C            0.0000    1.4713   -2.5058
    9  C                                                 9  C           -0.0000   -1.4713    2.5058
   10  C                                                10  C            0.0000    1.4713    2.5058
   11  H                                                11  H           -0.0000   -2.4501    0.0000
   12  H                                                12  H            0.0000    2.4501    0.0000
   13  H                                                13  H           -0.0000   -2.5448   -2.3171
   14  H                                                14  H           -0.8771   -1.2347   -3.1147
   15  H                                                15  H            0.8771   -1.2347   -3.1147
   16  H                                                16  H            0.0000    2.5448   -2.3171
   17  H                                                17  H            0.8771    1.2347   -3.1147
   18  H                                                18  H           -0.8771    1.2347   -3.1147
   19  H                                                19  H           -0.8771   -1.2347    3.1147
   20  H                                                20  H           -0.0000   -2.5448    2.3171
   21  H                                                21  H            0.8771   -1.2347    3.1147
   22  H                                                22  H            0.8771    1.2347    3.1147
   23  H                                                23  H            0.0000    2.5448    2.3171
   24  H                                                24  H           -0.8771    1.2347    3.1147



 =====================================
 S Y M M E T R Y ,   E L E C T R O N S
 =====================================
  
 Symmetry: D(2H)

 Irreducible Representations, including subspecies
 -------------------------------------------------
 A.g
 B1.g
 B2.g
 B3.g
 A.u
 B1.u
 B2.u
 B3.u

 Symmetry is NOT used when fitting density


 Configuration of Valence Electrons
 ==================================
 ( determined in the SCF procedure )

 Total:   74

 Net Charge: 0 (Nuclei minus Electrons)

 Aufbau principle for MO occupations will be applied through SCF cycle no.     150
 Thereafter, the program will assign electrons to MOs that are spatially
 similar to the occupied MOs in a "reference" cycle ("KeepOrbitals").
 The reference cycle is always the PREVIOUS cycle: it will evolve with
 the SCF procedure.
1
 ***************************************************************************************************



                                      ****************************************
                                      *  B U I L D : (Fragments, Functions)  *
                                      ****************************************
  



 =======
 S F O s  ***  (Symmetrized Fragment Orbitals)  ***
 =======
  
 SFOs are linear combinations of (valence) Fragment Orbitals (FOs), such that the SFOs transform as the
 irreducible representations of the (molecular) symmetry group. Each SFO is therefore characterized by
 an irrep of the molecule and by a few (or only one) generating FOs.
 The SFOs constitute a symmetry-adapted basis for the Fock matrix. The MO eigenvector coefficients in
 this basis provide a direct interpretation of the MOs in terms of Frontier Orbital Theory.

 The SFOs are combined with auxiliary Core Functions (CFs) to ensure orthogonalization on the (frozen)
 Core Orbitals (COs). The Core-orthogonalized SFOs (CSFOs) constitute the true Fock basis.

 The FOs, and hence also the (C)SFOs are combinations of the elementary basis functions (BAS). The basis
 functions that participate in the description of the SFOs depend on the irrep. The indices of the
 involved functions are printed below for each irrep.
 (The complete list of primitive basis functions is printed in another section)

 Total nr. of (C)SFOs (summation over all irreps) :   414

 NOTE: a (C)SFO that is defined as a combination of more than one FO is usually NOT normalized.



                                       === A.g ===
 Nr. of SFOs :   73
 Cartesian basis functions that participate in this irrep (total number =   342) :
      1    31    61    91     2    32    62    92     3    33
     63    93     4    34    64    94     5    35    65    95
      8    38    68    98    11    41    71   101    14    44
     74   104     7    37    67    97    10    40    70   100
     13    43    73   103    20    50    80   110    19    49
     79   109    15    18    45    48    75    78   105   108
     30    60    90   120    29    59    89   119    23    28
     53    58    83    88   113   118    22    27    52    57
     82    87   112   117   121   151   122   152   123   153
    124   154   125   155   127   157   130   160   133   163
    140   170   135   138   165   168   149   179   142   147
    172   177   181   211   241   271   182   212   242   272
    183   213   243   273   184   214   244   274   185   215
    245   275   188   218   248   278   191   221   251   281
    194   224   254   284   187   217   247   277   190   220
    250   280   193   223   253   283   200   230   260   290
    199   229   259   289   195   198   225   228   255   258
    285   288   210   240   270   300   209   239   269   299
    203   208   233   238   263   268   293   298   202   207
    232   237   262   267   292   297   301   313   302   314
    303   315   305   317   312   324   307   310   319   322
    325   361   409   445   326   362   410   446   327   363
    411   447   330   366   414   450   329   365   413   449
    336   372   420   456   335   371   419   455   331   334
    367   370   415   418   451   454   337   349   373   385
    397   421   433   457   338   350   374   386   398   422
    434   458   339   351   375   387   399   423   435   459
    342   354   378   390   402   426   438   462   340   341
    352   353   376   377   388   389   400   401   424   425
    436   437   460   461   348   360   384   396   408   432
    444   468   345   347   357   359   381   383   393   395
    405   407   429   431   441   443   465   467   343   344
    346   355   356   358   379   380   382   391   392   394
    403   404   406   427   428   430   439   440   442   463
    464   466

    SFO  (index         Fragment          Generating    Expansion in Fragment Orbitals
  indx  incl.CFs)   Occup   Orb.Energy   FragmentType  Coeff.   Orbital     on Fragment
 --------------------------------------------------------------------------------------
     1       1      2.000     -10.406 au  C             0.50      1 S               1
                        (    -283.169 eV)               0.50      1 S               2
                                                        0.50      1 S               3
                                                        0.50      1 S               4
     2       2      2.000      -0.583 au  C             0.50      2 S               1
                        (     -15.858 eV)               0.50      2 S               2
                                                        0.50      2 S               3
                                                        0.50      2 S               4
     3       3       --         0.415 au  C             0.50      3 S               1
                        (      11.281 eV)               0.50      3 S               2
                                                        0.50      3 S               3
                                                        0.50      3 S               4
     4       4       --         5.555 au  C             0.50      4 S               1
                        (     151.157 eV)               0.50      4 S               2
                                                        0.50      4 S               3
                                                        0.50      4 S               4
     5       5       --        50.670 au  C             0.50      5 S               1
                        (    1378.798 eV)               0.50      5 S               2
                                                        0.50      5 S               3
                                                        0.50      5 S               4
     6       6      0.667      -0.186 au  C             0.50      1 P:y             1
                        (      -5.051 eV)              -0.50      1 P:y             2
                                                        0.50      1 P:y             3
                                                       -0.50      1 P:y             4
     7       7       --         0.203 au  C             0.50      2 P:y             1
                        (       5.518 eV)              -0.50      2 P:y             2
                                                        0.50      2 P:y             3
                                                       -0.50      2 P:y             4
     8       8       --         2.125 au  C             0.50      3 P:y             1
                        (      57.838 eV)              -0.50      3 P:y             2
                                                        0.50      3 P:y             3
                                                       -0.50      3 P:y             4
     9       9      0.667      -0.186 au  C             0.50      1 P:z             1
                        (      -5.051 eV)               0.50      1 P:z             2
                                                       -0.50      1 P:z             3
                                                       -0.50      1 P:z             4
    10      10       --         0.203 au  C             0.50      2 P:z             1
                        (       5.518 eV)               0.50      2 P:z             2
                                                       -0.50      2 P:z             3
                                                       -0.50      2 P:z             4
    11      11       --         2.125 au  C             0.50      3 P:z             1
                        (      57.838 eV)               0.50      3 P:z             2
                                                       -0.50      3 P:z             3
                                                       -0.50      3 P:z             4
    12      12       --         1.300 au  C             0.50      1 D:z2            1
                        (      35.363 eV)               0.50      1 D:z2            2
                                                        0.50      1 D:z2            3
                                                        0.50      1 D:z2            4
    13      13       --         1.300 au  C             0.50      1 D:x2-y2         1
                        (      35.363 eV)               0.50      1 D:x2-y2         2
                                                        0.50      1 D:x2-y2         3
                                                        0.50      1 D:x2-y2         4
    14      14       --         1.300 au  C             0.50      1 D:yz            1
                        (      35.363 eV)              -0.50      1 D:yz            2
                                                       -0.50      1 D:yz            3
                                                        0.50      1 D:yz            4
    15      15       --         4.097 au  C             0.50      1 F:z3            1
                        (     111.488 eV)               0.50      1 F:z3            2
                                                       -0.50      1 F:z3            3
                                                       -0.50      1 F:z3            4
    16      16       --         4.097 au  C             0.50      1 F:z             1
                        (     111.488 eV)               0.50      1 F:z             2
                                                       -0.50      1 F:z             3
                                                       -0.50      1 F:z             4
    17      17       --         4.097 au  C             0.50      1 F:z2y           1
                        (     111.488 eV)              -0.50      1 F:z2y           2
                                                        0.50      1 F:z2y           3
                                                       -0.50      1 F:z2y           4
    18      18       --         4.097 au  C             0.50      1 F:y             1
                        (     111.488 eV)              -0.50      1 F:y             2
                                                        0.50      1 F:y             3
                                                       -0.50      1 F:y             4
    19      19      2.000     -10.406 au  C             0.71      1 S               5
                        (    -283.169 eV)               0.71      1 S               6
    20      20      2.000      -0.583 au  C             0.71      2 S               5
                        (     -15.858 eV)               0.71      2 S               6
    21      21       --         0.415 au  C             0.71      3 S               5
                        (      11.281 eV)               0.71      3 S               6
    22      22       --         5.555 au  C             0.71      4 S               5
                        (     151.157 eV)               0.71      4 S               6
    23      23       --        50.670 au  C             0.71      5 S               5
                        (    1378.798 eV)               0.71      5 S               6
    24      24      0.667      -0.186 au  C             0.71      1 P:y             5
                        (      -5.051 eV)              -0.71      1 P:y             6
    25      25       --         0.203 au  C             0.71      2 P:y             5
                        (       5.518 eV)              -0.71      2 P:y             6
    26      26       --         2.125 au  C             0.71      3 P:y             5
                        (      57.838 eV)              -0.71      3 P:y             6
    27      27       --         1.300 au  C             0.71      1 D:z2            5
                        (      35.363 eV)               0.71      1 D:z2            6
    28      28       --         1.300 au  C             0.71      1 D:x2-y2         5
                        (      35.363 eV)               0.71      1 D:x2-y2         6
    29      29       --         4.097 au  C             0.71      1 F:z2y           5
                        (     111.488 eV)              -0.71      1 F:z2y           6
    30      30       --         4.097 au  C             0.71      1 F:y             5
                        (     111.488 eV)              -0.71      1 F:y             6
    31      31      2.000     -10.406 au  C             0.50      1 S               7
                        (    -283.169 eV)               0.50      1 S               8
                                                        0.50      1 S               9
                                                        0.50      1 S              10
    32      32      2.000      -0.583 au  C             0.50      2 S               7
                        (     -15.858 eV)               0.50      2 S               8
                                                        0.50      2 S               9
                                                        0.50      2 S              10
    33      33       --         0.415 au  C             0.50      3 S               7
                        (      11.281 eV)               0.50      3 S               8
                                                        0.50      3 S               9
                                                        0.50      3 S              10
    34      34       --         5.555 au  C             0.50      4 S               7
                        (     151.157 eV)               0.50      4 S               8
                                                        0.50      4 S               9
                                                        0.50      4 S              10
    35      35       --        50.670 au  C             0.50      5 S               7
                        (    1378.798 eV)               0.50      5 S               8
                                                        0.50      5 S               9
                                                        0.50      5 S              10
    36      36      0.667      -0.186 au  C             0.50      1 P:y             7
                        (      -5.051 eV)              -0.50      1 P:y             8
                                                        0.50      1 P:y             9
                                                       -0.50      1 P:y            10
    37      37       --         0.203 au  C             0.50      2 P:y             7
                        (       5.518 eV)              -0.50      2 P:y             8
                                                        0.50      2 P:y             9
                                                       -0.50      2 P:y            10
    38      38       --         2.125 au  C             0.50      3 P:y             7
                        (      57.838 eV)              -0.50      3 P:y             8
                                                        0.50      3 P:y             9
                                                       -0.50      3 P:y            10
    39      39      0.667      -0.186 au  C             0.50      1 P:z             7
                        (      -5.051 eV)               0.50      1 P:z             8
                                                       -0.50      1 P:z             9
                                                       -0.50      1 P:z            10
    40      40       --         0.203 au  C             0.50      2 P:z             7
                        (       5.518 eV)               0.50      2 P:z             8
                                                       -0.50      2 P:z             9
                                                       -0.50      2 P:z            10
    41      41       --         2.125 au  C             0.50      3 P:z             7
                        (      57.838 eV)               0.50      3 P:z             8
                                                       -0.50      3 P:z             9
                                                       -0.50      3 P:z            10
    42      42       --         1.300 au  C             0.50      1 D:z2            7
                        (      35.363 eV)               0.50      1 D:z2            8
                                                        0.50      1 D:z2            9
                                                        0.50      1 D:z2           10
    43      43       --         1.300 au  C             0.50      1 D:x2-y2         7
                        (      35.363 eV)               0.50      1 D:x2-y2         8
                                                        0.50      1 D:x2-y2         9
                                                        0.50      1 D:x2-y2        10
    44      44       --         1.300 au  C             0.50      1 D:yz            7
                        (      35.363 eV)              -0.50      1 D:yz            8
                                                       -0.50      1 D:yz            9
                                                        0.50      1 D:yz           10
    45      45       --         4.097 au  C             0.50      1 F:z3            7
                        (     111.488 eV)               0.50      1 F:z3            8
                                                       -0.50      1 F:z3            9
                                                       -0.50      1 F:z3           10
    46      46       --         4.097 au  C             0.50      1 F:z             7
                        (     111.488 eV)               0.50      1 F:z             8
                                                       -0.50      1 F:z             9
                                                       -0.50      1 F:z            10
    47      47       --         4.097 au  C             0.50      1 F:z2y           7
                        (     111.488 eV)              -0.50      1 F:z2y           8
                                                        0.50      1 F:z2y           9
                                                       -0.50      1 F:z2y          10
    48      48       --         4.097 au  C             0.50      1 F:y             7
                        (     111.488 eV)              -0.50      1 F:y             8
                                                        0.50      1 F:y             9
                                                       -0.50      1 F:y            10
    49      49      1.000      -0.242 au  H             0.71      1 S              11
                        (      -6.582 eV)               0.71      1 S              12
    50      50       --         0.113 au  H             0.71      2 S              11
                        (       3.073 eV)               0.71      2 S              12
    51      51       --         1.599 au  H             0.71      3 S              11
                        (      43.507 eV)               0.71      3 S              12
    52      52       --         0.445 au  H             0.71      1 P:y            11
                        (      12.103 eV)              -0.71      1 P:y            12
    53      53       --         2.628 au  H             0.71      1 D:z2           11
                        (      71.513 eV)               0.71      1 D:z2           12
    54      54       --         2.628 au  H             0.71      1 D:x2-y2        11
                        (      71.513 eV)               0.71      1 D:x2-y2        12
    55      55      1.000      -0.242 au  H             0.50      1 S              13
                        (      -6.582 eV)               0.50      1 S              16
                                                        0.50      1 S              20
                                                        0.50      1 S              23
    56      56       --         0.113 au  H             0.50      2 S              13
                        (       3.073 eV)               0.50      2 S              16
                                                        0.50      2 S              20
                                                        0.50      2 S              23
    57      57       --         1.599 au  H             0.50      3 S              13
                        (      43.507 eV)               0.50      3 S              16
                                                        0.50      3 S              20
                                                        0.50      3 S              23
    58      58       --         0.445 au  H             0.50      1 P:y            13
                        (      12.103 eV)              -0.50      1 P:y            16
                                                        0.50      1 P:y            20
                                                       -0.50      1 P:y            23
    59      59       --         0.445 au  H             0.50      1 P:z            13
                        (      12.103 eV)               0.50      1 P:z            16
                                                       -0.50      1 P:z            20
                                                       -0.50      1 P:z            23
    60      60       --         2.628 au  H             0.50      1 D:z2           13
                        (      71.513 eV)               0.50      1 D:z2           16
                                                        0.50      1 D:z2           20
                                                        0.50      1 D:z2           23
    61      61       --         2.628 au  H             0.50      1 D:x2-y2        13
                        (      71.513 eV)               0.50      1 D:x2-y2        16
                                                        0.50      1 D:x2-y2        20
                                                        0.50      1 D:x2-y2        23
    62      62       --         2.628 au  H             0.50      1 D:yz           13
                        (      71.513 eV)              -0.50      1 D:yz           16
                                                       -0.50      1 D:yz           20
                                                        0.50      1 D:yz           23
    63      63      1.000      -0.242 au  H             0.35      1 S              14
                        (      -6.582 eV)               0.35      1 S              15
                                                        0.35      1 S              17
                                                        0.35      1 S              18
                                                        0.35      1 S              19
                                                        0.35      1 S              21
                                                        0.35      1 S              22
                                                        0.35      1 S              24
    64      64       --         0.113 au  H             0.35      2 S              14
                        (       3.073 eV)               0.35      2 S              15
                                                        0.35      2 S              17
                                                        0.35      2 S              18
                                                        0.35      2 S              19
                                                        0.35      2 S              21
                                                        0.35      2 S              22
                                                        0.35      2 S              24
    65      65       --         1.599 au  H             0.35      3 S              14
                        (      43.507 eV)               0.35      3 S              15
                                                        0.35      3 S              17
                                                        0.35      3 S              18
                                                        0.35      3 S              19
                                                        0.35      3 S              21
                                                        0.35      3 S              22
                                                        0.35      3 S              24
    66      66       --         0.445 au  H             0.35      1 P:x            14
                        (      12.103 eV)              -0.35      1 P:x            15
                                                       -0.35      1 P:x            17
                                                        0.35      1 P:x            18
                                                        0.35      1 P:x            19
                                                       -0.35      1 P:x            21
                                                       -0.35      1 P:x            22
                                                        0.35      1 P:x            24
    67      67       --         0.445 au  H             0.35      1 P:y            14
                        (      12.103 eV)               0.35      1 P:y            15
                                                       -0.35      1 P:y            17
                                                       -0.35      1 P:y            18
                                                        0.35      1 P:y            19
                                                        0.35      1 P:y            21
                                                       -0.35      1 P:y            22
                                                       -0.35      1 P:y            24
    68      68       --         0.445 au  H             0.35      1 P:z            14
                        (      12.103 eV)               0.35      1 P:z            15
                                                        0.35      1 P:z            17
                                                        0.35      1 P:z            18
                                                       -0.35      1 P:z            19
                                                       -0.35      1 P:z            21
                                                       -0.35      1 P:z            22
                                                       -0.35      1 P:z            24
    69      69       --         2.628 au  H             0.35      1 D:z2           14
                        (      71.513 eV)               0.35      1 D:z2           15
                                                        0.35      1 D:z2           17
                                                        0.35      1 D:z2           18
                                                        0.35      1 D:z2           19
                                                        0.35      1 D:z2           21
                                                        0.35      1 D:z2           22
                                                        0.35      1 D:z2           24
    70      70       --         2.628 au  H             0.35      1 D:x2-y2        14
                        (      71.513 eV)               0.35      1 D:x2-y2        15
                                                        0.35      1 D:x2-y2        17
                                                        0.35      1 D:x2-y2        18
                                                        0.35      1 D:x2-y2        19
                                                        0.35      1 D:x2-y2        21
                                                        0.35      1 D:x2-y2        22
                                                        0.35      1 D:x2-y2        24
    71      71       --         2.628 au  H             0.35      1 D:xy           14
                        (      71.513 eV)              -0.35      1 D:xy           15
                                                        0.35      1 D:xy           17
                                                       -0.35      1 D:xy           18
                                                        0.35      1 D:xy           19
                                                       -0.35      1 D:xy           21
                                                        0.35      1 D:xy           22
                                                       -0.35      1 D:xy           24
    72      72       --         2.628 au  H             0.35      1 D:xz           14
                        (      71.513 eV)              -0.35      1 D:xz           15
                                                       -0.35      1 D:xz           17
                                                        0.35      1 D:xz           18
                                                       -0.35      1 D:xz           19
                                                        0.35      1 D:xz           21
                                                        0.35      1 D:xz           22
                                                       -0.35      1 D:xz           24
    73      73       --         2.628 au  H             0.35      1 D:yz           14
                        (      71.513 eV)               0.35      1 D:yz           15
                                                       -0.35      1 D:yz           17
                                                       -0.35      1 D:yz           18
                                                       -0.35      1 D:yz           19
                                                       -0.35      1 D:yz           21
                                                        0.35      1 D:yz           22
                                                        0.35      1 D:yz           24



                                       === B1.g ===
 Nr. of SFOs :   38
 Cartesian basis functions that participate in this irrep (total number =   198) :
      6    36    66    96     9    39    69    99    12    42
     72   102    17    47    77   107    16    46    76   106
     26    56    86   116    25    55    85   115    21    24
     51    54    81    84   111   114   126   156   129   159
    132   162   136   166   146   176   141   144   171   174
    186   216   246   276   189   219   249   279   192   222
    252   282   197   227   257   287   196   226   256   286
    206   236   266   296   205   235   265   295   201   204
    231   234   261   264   291   294   304   316   308   320
    328   364   412   448   333   369   417   453   332   368
    416   452   337   349   373   385   397   421   433   457
    338   350   374   386   398   422   434   458   339   351
    375   387   399   423   435   459   342   354   378   390
    402   426   438   462   340   341   352   353   376   377
    388   389   400   401   424   425   436   437   460   461
    348   360   384   396   408   432   444   468   345   347
    357   359   381   383   393   395   405   407   429   431
    441   443   465   467   343   344   346   355   356   358
    379   380   382   391   392   394   403   404   406   427
    428   430   439   440   442   463   464   466

    SFO  (index         Fragment          Generating    Expansion in Fragment Orbitals
  indx  incl.CFs)   Occup   Orb.Energy   FragmentType  Coeff.   Orbital     on Fragment
 --------------------------------------------------------------------------------------
     1       1      0.667      -0.186 au  C             0.50      1 P:x             1
                        (      -5.051 eV)              -0.50      1 P:x             2
                                                        0.50      1 P:x             3
                                                       -0.50      1 P:x             4
     2       2       --         0.203 au  C             0.50      2 P:x             1
                        (       5.518 eV)              -0.50      2 P:x             2
                                                        0.50      2 P:x             3
                                                       -0.50      2 P:x             4
     3       3       --         2.125 au  C             0.50      3 P:x             1
                        (      57.838 eV)              -0.50      3 P:x             2
                                                        0.50      3 P:x             3
                                                       -0.50      3 P:x             4
     4       4       --         1.300 au  C             0.50      1 D:xy            1
                        (      35.363 eV)               0.50      1 D:xy            2
                                                        0.50      1 D:xy            3
                                                        0.50      1 D:xy            4
     5       5       --         1.300 au  C             0.50      1 D:xz            1
                        (      35.363 eV)              -0.50      1 D:xz            2
                                                       -0.50      1 D:xz            3
                                                        0.50      1 D:xz            4
     6       6       --         4.097 au  C             0.50      1 F:xyz           1
                        (     111.488 eV)               0.50      1 F:xyz           2
                                                       -0.50      1 F:xyz           3
                                                       -0.50      1 F:xyz           4
     7       7       --         4.097 au  C             0.50      1 F:z2x           1
                        (     111.488 eV)              -0.50      1 F:z2x           2
                                                        0.50      1 F:z2x           3
                                                       -0.50      1 F:z2x           4
     8       8       --         4.097 au  C             0.50      1 F:x             1
                        (     111.488 eV)              -0.50      1 F:x             2
                                                        0.50      1 F:x             3
                                                       -0.50      1 F:x             4
     9       9      0.667      -0.186 au  C             0.71      1 P:x             5
                        (      -5.051 eV)              -0.71      1 P:x             6
    10      10       --         0.203 au  C             0.71      2 P:x             5
                        (       5.518 eV)              -0.71      2 P:x             6
    11      11       --         2.125 au  C             0.71      3 P:x             5
                        (      57.838 eV)              -0.71      3 P:x             6
    12      12       --         1.300 au  C             0.71      1 D:xy            5
                        (      35.363 eV)               0.71      1 D:xy            6
    13      13       --         4.097 au  C             0.71      1 F:z2x           5
                        (     111.488 eV)              -0.71      1 F:z2x           6
    14      14       --         4.097 au  C             0.71      1 F:x             5
                        (     111.488 eV)              -0.71      1 F:x             6
    15      15      0.667      -0.186 au  C             0.50      1 P:x             7
                        (      -5.051 eV)              -0.50      1 P:x             8
                                                        0.50      1 P:x             9
                                                       -0.50      1 P:x            10
    16      16       --         0.203 au  C             0.50      2 P:x             7
                        (       5.518 eV)              -0.50      2 P:x             8
                                                        0.50      2 P:x             9
                                                       -0.50      2 P:x            10
    17      17       --         2.125 au  C             0.50      3 P:x             7
                        (      57.838 eV)              -0.50      3 P:x             8
                                                        0.50      3 P:x             9
                                                       -0.50      3 P:x            10
    18      18       --         1.300 au  C             0.50      1 D:xy            7
                        (      35.363 eV)               0.50      1 D:xy            8
                                                        0.50      1 D:xy            9
                                                        0.50      1 D:xy           10
    19      19       --         1.300 au  C             0.50      1 D:xz            7
                        (      35.363 eV)              -0.50      1 D:xz            8
                                                       -0.50      1 D:xz            9
                                                        0.50      1 D:xz           10
    20      20       --         4.097 au  C             0.50      1 F:xyz           7
                        (     111.488 eV)               0.50      1 F:xyz           8
                                                       -0.50      1 F:xyz           9
                                                       -0.50      1 F:xyz          10
    21      21       --         4.097 au  C             0.50      1 F:z2x           7
                        (     111.488 eV)              -0.50      1 F:z2x           8
                                                        0.50      1 F:z2x           9
                                                       -0.50      1 F:z2x          10
    22      22       --         4.097 au  C             0.50      1 F:x             7
                        (     111.488 eV)              -0.50      1 F:x             8
[...]
                              -0.236     0.968     0.088
                              -0.666    -0.227     0.711
                        -----------------------------------
 
================================================================================
 
 
===  TOTAL NMR SHIELDING TENSOR (ppm)
 
                        ***********************************
                        CARTESIAN AXIS REPRESENTATION

                        ==== total shielding tensor
                        -----------------------------------
                              28.674    -0.118     4.915
                              -0.118    28.685    -0.700
                               4.915    -0.700    30.497
                        -----------------------------------
                                  isotropic =     29.286

                        ***********************************
                        -----------------------------------
                        PRINCIPAL AXIS REPRESENTATION

                        ==== Principal components:

                              24.556    28.653    34.648
 
                        ==== Principal Axis System:

                               0.763     0.132     0.633
                              -0.087     0.991    -0.103
                              -0.641     0.023     0.767
                        -----------------------------------
################################################################################
********************************************************************************
****  N U C L E U S : H(22)
 
 ADF-GUI atom: H(22)
 Internal NMR numbering of atoms: H(22)
 
 
================================================================================
 
 
===  PARAMAGNETIC NMR SHIELDING TENSORS (ppm)
 
    ===     paramagnetic b^(1) tensor       ===     paramagnetic u^(1) tensor
    -----------------------------------     -----------------------------------
           0.000     0.000     0.000               2.149    -3.063   -17.654
           0.000     0.000     0.000              -3.063    13.865    -3.669
           0.000     0.000     0.000             -17.654    -3.669    -9.854
    -----------------------------------     -----------------------------------
              isotropic =      0.000                  isotropic =      2.053

    ===     paramagnetic s^(1) tensor       ===     paramagnetic gauge tensor
    -----------------------------------     -----------------------------------
          -2.339     4.603    20.008               0.569    -0.437    -2.198
           4.603   -12.365     2.887              -0.437     0.215     1.298
          20.008     2.887    10.730              -2.198     1.298     0.999
    -----------------------------------     -----------------------------------
              isotropic =     -1.325                  isotropic =      0.594

                        ***********************************
                        CARTESIAN AXIS REPRESENTATION

                        ==== total paramagnetic tensor
                        -----------------------------------
                               0.380     1.103     0.157
                               1.103     1.714     0.515
                               0.157     0.515     1.875
                        -----------------------------------
                                  isotropic =      1.323

                        ***********************************
                        -----------------------------------
                        PRINCIPAL AXIS REPRESENTATION

                        ==== Principal components:

                              -0.249     1.537     2.681
 
                        ==== Principal Axis System:

                               0.864    -0.317    -0.392
                              -0.501    -0.451    -0.739
                               0.058     0.834    -0.548
                        -----------------------------------
 
================================================================================
 
 
===  DIAMAGNETIC NMR SHIELDING TENSORS (ppm)
 
    ===       diamagnetic core tensor       ===    diamagnetic valence tensor
    -----------------------------------     -----------------------------------
           0.000     0.000     0.000              28.294    -0.983     4.758
           0.000     0.000     0.000              -0.983    26.971     0.184
           0.000     0.000     0.000               4.758     0.184    28.623
    -----------------------------------     -----------------------------------
              isotropic =      0.000                  isotropic =     27.963

                        ***********************************
                        CARTESIAN AXIS REPRESENTATION

                        ==== total diamagnetic tensor
                        -----------------------------------
                              28.294    -0.983     4.758
                              -0.983    26.971     0.184
                               4.758     0.184    28.623
                        -----------------------------------
                                  isotropic =     27.963

                        ***********************************
                        -----------------------------------
                        PRINCIPAL AXIS REPRESENTATION

                        ==== Principal components:

                              23.495    27.125    33.268
 
                        ==== Principal Axis System:

                              -0.708     0.109     0.698
                              -0.236    -0.968    -0.088
                               0.666    -0.227     0.711
                        -----------------------------------
 
================================================================================
 
 
===  TOTAL NMR SHIELDING TENSOR (ppm)
 
                        ***********************************
                        CARTESIAN AXIS REPRESENTATION

                        ==== total shielding tensor
                        -----------------------------------
                              28.674     0.120     4.915
                               0.120    28.685     0.699
                               4.915     0.699    30.498
                        -----------------------------------
                                  isotropic =     29.286

                        ***********************************
                        -----------------------------------
                        PRINCIPAL AXIS REPRESENTATION

                        ==== Principal components:

                              24.556    28.653    34.648
 
                        ==== Principal Axis System:

                              -0.763     0.132     0.633
                              -0.086    -0.991     0.103
                               0.641     0.024     0.767
                        -----------------------------------
################################################################################
********************************************************************************
****  N U C L E U S : H(23)
 
 ADF-GUI atom: H(23)
 Internal NMR numbering of atoms: H(23)
 
 
================================================================================
 
 
===  PARAMAGNETIC NMR SHIELDING TENSORS (ppm)
 
    ===     paramagnetic b^(1) tensor       ===     paramagnetic u^(1) tensor
    -----------------------------------     -----------------------------------
           0.000     0.000     0.000              10.225     0.001    -0.001
           0.000     0.000     0.000               0.001   -18.572   -10.931
           0.000     0.000     0.000              -0.001   -10.931    11.679
    -----------------------------------     -----------------------------------
              isotropic =      0.000                  isotropic =      1.111

    ===     paramagnetic s^(1) tensor       ===     paramagnetic gauge tensor
    -----------------------------------     -----------------------------------
         -11.542    -0.000     0.000               1.546     0.000     0.000
          -0.000    19.408    11.299               0.000    -0.878     0.007
           0.000    11.299   -12.955               0.000     0.007     1.405
    -----------------------------------     -----------------------------------
              isotropic =     -1.696                  isotropic =      0.691

                        ***********************************
                        CARTESIAN AXIS REPRESENTATION

                        ==== total paramagnetic tensor
                        -----------------------------------
                               0.229     0.001    -0.001
                               0.001    -0.043     0.376
                              -0.001     0.376     0.129
                        -----------------------------------
                                  isotropic =      0.105

                        ***********************************
                        -----------------------------------
                        PRINCIPAL AXIS REPRESENTATION

                        ==== Principal components:

                              -0.343     0.229     0.429
 
                        ==== Principal Axis System:

                               0.002     1.000    -0.001
                              -0.782     0.002     0.623
                               0.623    -0.001     0.782
                        -----------------------------------
 
================================================================================
 
 
===  DIAMAGNETIC NMR SHIELDING TENSORS (ppm)
 
    ===       diamagnetic core tensor       ===    diamagnetic valence tensor
    -----------------------------------     -----------------------------------
           0.000     0.000     0.000              23.481     0.000     0.000
           0.000     0.000     0.000               0.000    34.677    -0.291
           0.000     0.000     0.000               0.000    -0.291    29.289
    -----------------------------------     -----------------------------------
              isotropic =      0.000                  isotropic =     29.149

                        ***********************************
                        CARTESIAN AXIS REPRESENTATION

                        ==== total diamagnetic tensor
                        -----------------------------------
                              23.481     0.000     0.000
                               0.000    34.677    -0.291
                               0.000    -0.291    29.289
                        -----------------------------------
                                  isotropic =     29.149

                        ***********************************
                        -----------------------------------
                        PRINCIPAL AXIS REPRESENTATION

                        ==== Principal components:

                              23.481    29.273    34.693
 
                        ==== Principal Axis System:

                               1.000     0.000    -0.000
                              -0.000     0.054    -0.999
                              -0.000     0.999     0.054
                        -----------------------------------
 
================================================================================
 
 
===  TOTAL NMR SHIELDING TENSOR (ppm)
 
                        ***********************************
                        CARTESIAN AXIS REPRESENTATION

                        ==== total shielding tensor
                        -----------------------------------
                              23.710     0.001    -0.001
                               0.001    34.634     0.085
                              -0.001     0.085    29.418
                        -----------------------------------
                                  isotropic =     29.254

                        ***********************************
                        -----------------------------------
                        PRINCIPAL AXIS REPRESENTATION

                        ==== Principal components:

                              23.710    29.416    34.636
 
                        ==== Principal Axis System:

                               1.000    -0.000    -0.000
                              -0.000    -0.016    -1.000
                               0.000     1.000    -0.016
                        -----------------------------------
################################################################################
********************************************************************************
****  N U C L E U S : H(24)
 
 ADF-GUI atom: H(24)
 Internal NMR numbering of atoms: H(24)
 
 
================================================================================
 
 
===  PARAMAGNETIC NMR SHIELDING TENSORS (ppm)
 
    ===     paramagnetic b^(1) tensor       ===     paramagnetic u^(1) tensor
    -----------------------------------     -----------------------------------
           0.000     0.000     0.000               2.149     3.065    17.653
           0.000     0.000     0.000               3.065    13.865    -3.670
           0.000     0.000     0.000              17.653    -3.670    -9.854
    -----------------------------------     -----------------------------------
              isotropic =      0.000                  isotropic =      2.053

    ===     paramagnetic s^(1) tensor       ===     paramagnetic gauge tensor
    -----------------------------------     -----------------------------------
          -2.339    -4.603   -20.008               0.569     0.437     2.198
          -4.603   -12.366     2.887               0.437     0.215     1.298
         -20.008     2.887    10.730               2.198     1.298     0.999
    -----------------------------------     -----------------------------------
              isotropic =     -1.325                  isotropic =      0.594

                        ***********************************
                        CARTESIAN AXIS REPRESENTATION

                        ==== total paramagnetic tensor
                        -----------------------------------
                               0.380    -1.102    -0.158
                              -1.102     1.714     0.515
                              -0.158     0.515     1.875
                        -----------------------------------
                                  isotropic =      1.323

                        ***********************************
                        -----------------------------------
                        PRINCIPAL AXIS REPRESENTATION

                        ==== Principal components:

                              -0.248     1.536     2.681
 
                        ==== Principal Axis System:

                               0.864     0.317     0.391
                               0.500    -0.452    -0.739
                              -0.057     0.834    -0.549
                        -----------------------------------
 
================================================================================
 
 
===  DIAMAGNETIC NMR SHIELDING TENSORS (ppm)
 
    ===       diamagnetic core tensor       ===    diamagnetic valence tensor
    -----------------------------------     -----------------------------------
           0.000     0.000     0.000              28.294     0.983    -4.758
           0.000     0.000     0.000               0.983    26.971     0.184
           0.000     0.000     0.000              -4.758     0.184    28.623
    -----------------------------------     -----------------------------------
              isotropic =      0.000                  isotropic =     27.963

                        ***********************************
                        CARTESIAN AXIS REPRESENTATION

                        ==== total diamagnetic tensor
                        -----------------------------------
                              28.294     0.983    -4.758
                               0.983    26.971     0.184
                              -4.758     0.184    28.623
                        -----------------------------------
                                  isotropic =     27.963

                        ***********************************
                        -----------------------------------
                        PRINCIPAL AXIS REPRESENTATION

                        ==== Principal components:

                              23.495    27.125    33.268
 
                        ==== Principal Axis System:

                               0.708     0.109    -0.698
                              -0.236     0.968    -0.088
                               0.666     0.227     0.711
                        -----------------------------------
 
================================================================================
 
 
===  TOTAL NMR SHIELDING TENSOR (ppm)
 
                        ***********************************
                        CARTESIAN AXIS REPRESENTATION

                        ==== total shielding tensor
                        -----------------------------------
                              28.674    -0.118    -4.916
                              -0.118    28.685     0.699
                              -4.916     0.699    30.498
                        -----------------------------------
                                  isotropic =     29.286

                        ***********************************
                        -----------------------------------
                        PRINCIPAL AXIS REPRESENTATION

                        ==== Principal components:

                              24.555    28.653    34.649
 
                        ==== Principal Axis System:

                               0.763     0.132    -0.633
                              -0.087     0.991     0.103
                               0.641    -0.023     0.767
                        -----------------------------------
 *******************************************************************************

                             N M R   E X I T
 NORMAL TERMINATION



 =================
 Timing Statistics
 =================
  
 Total Used :                     CPU=      647.25      System=       10.13     Elapsed=      726.81

 Calls  Section                     ( Mean, Percentage )
 ---------------------------------------------------------------------------------------------------
     3  ><      ................      0.00    0.00             0.00    0.04             0.00    0.00
     1  INIT    ................      0.62    0.10             0.01    0.14             0.68    0.09
     1  RDEIGX  ................     92.84   14.34             0.82    8.09           105.28   14.49
     1  AOF1K   ................     12.33    1.91             0.28    2.77            13.12    1.81
    24  AOPKK   ................      7.65   28.36             0.17   40.88             8.87   29.28
    24  XSIGP   ................      0.02    0.07             0.00    0.32             0.02    0.08
    24  AODKKK  ................     14.89   55.21             0.20   47.46            16.43   54.24
    24  XDV     ................      0.00    0.01             0.00    0.00             0.00    0.01
    24  XSIGD   ................      0.00    0.00             0.00    0.00             0.00    0.00
     1  EXIT PROCEDURE .........      0.00    0.00             0.03    0.30             0.03    0.00


 Currently Open Files (EXIT00)
 ====================

 Unit    Access Format  Status   Type       Ident (file)
 -------------------------------------------------------
   3      SEQ    FORM   TRANSP  NORMAL      LOGFILE
                                          ( /home/milias/work/projects/open-collection/theoretical_chemistry/projects/nmr_diplomovky/reference_compounds/durene/ams/pbe0_tz2p_good/Durene.geopt_freq_nmr_shield_pbe0_tz2p_good_cosmo-chcl3.logfile )
