LAMMPS (29 Sep 2021 - Update 2)
OMP_NUM_THREADS environment is not set. Defaulting to 1 thread. (src/comm.cpp:98)
  using 1 OpenMP thread(s) per MPI task
# 3d Lennard-Jones melt

units		lj
atom_style	atomic

lattice		fcc 0.8442
Lattice spacing in x,y,z = 1.6795962 1.6795962 1.6795962
region		box block 0 10 0 10 0 10
create_box	1 box
Created orthogonal box = (0.0000000 0.0000000 0.0000000) to (16.795962 16.795962 16.795962)
  1 by 2 by 2 MPI processor grid
create_atoms	1 box
Created 4000 atoms
  using lattice units in orthogonal box = (0.0000000 0.0000000 0.0000000) to (16.795962 16.795962 16.795962)
  create_atoms CPU = 0.000 seconds
mass		1 1.0

velocity	all create 3.0 87287

pair_style	lj/cut 2.5
pair_coeff	1 1 1.0 1.0 2.5

neighbor	0.3 bin
neigh_modify	every 20 delay 0 check no

fix		1 all nve

#dump		id all atom 50 dump.melt

#dump		2 all image 25 image.*.jpg type type #		axes yes 0.8 0.02 view 60 -30
#dump_modify	2 pad 3

#dump		3 all movie 25 movie.mpg type type #		axes yes 0.8 0.02 view 60 -30
#dump_modify	3 pad 3

thermo		50
run		250
Neighbor list info ...
  update every 20 steps, delay 0 steps, check no
  max neighbors/atom: 2000, page size: 100000
  master list distance cutoff = 2.8
  ghost atom cutoff = 2.8
  binsize = 1.4, bins = 12 12 12
  1 neighbor lists, perpetual/occasional/extra = 1 0 0
  (1) pair lj/cut, perpetual
      attributes: half, newton on
      pair build: half/bin/atomonly/newton
      stencil: half/bin/3d
      bin: standard
Per MPI rank memory allocation (min/avg/max) = 2.706 | 2.706 | 2.706 Mbytes
Step Temp E_pair E_mol TotEng Press 
       0            3   -6.7733681            0   -2.2744931   -3.7033504 
      50    1.6754119   -4.7947589            0   -2.2822693    5.6615925 
     100    1.6503357    -4.756014            0   -2.2811293    5.8050524 
     150    1.6596605   -4.7699432            0   -2.2810749    5.7830138 
     200    1.6371874   -4.7365462            0   -2.2813789    5.9246674 
     250    1.6323462   -4.7292021            0   -2.2812949    5.9762238 
Loop time of 0.121325 on 4 procs for 250 steps with 4000 atoms

Performance: 890171.314 tau/day, 2060.582 timesteps/s
95.5% CPU use with 4 MPI tasks x 1 OpenMP threads

MPI task timing breakdown:
Section |  min time  |  avg time  |  max time  |%varavg| %total
---------------------------------------------------------------
Pair    | 0.072553   | 0.079862   | 0.083893   |   1.6 | 65.82
Neigh   | 0.012918   | 0.013619   | 0.014068   |   0.4 | 11.23
Comm    | 0.020991   | 0.025312   | 0.033367   |   3.1 | 20.86
Output  | 0.00015995 | 0.00020983 | 0.00034378 |   0.0 |  0.17
Modify  | 0.0014814  | 0.0015672  | 0.0016379  |   0.2 |  1.29
Other   |            | 0.0007553  |            |       |  0.62

Nlocal:        1000.00 ave        1010 max         982 min
Histogram: 1 0 0 0 0 0 1 0 0 2
Nghost:        2703.75 ave        2713 max        2689 min
Histogram: 1 0 0 0 0 0 0 2 0 1
Neighs:        37915.5 ave       39239 max       36193 min
Histogram: 1 0 0 0 0 1 1 0 0 1

Total # of neighbors = 151662
Ave neighs/atom = 37.915500
Neighbor list builds = 12
Dangerous builds not checked
Total wall time: 0:00:00
