

 Parallel Execution: Process Information
 ==============================================================================
 Rank   Node Name                              NodeID   MyNodeRank  NodeMaster
    0   ubuntu-kch                                0          0          0
    1   ubuntu-kch                                0          1         -1
    2   ubuntu-kch                                0          2         -1
    3   ubuntu-kch                                0          3         -1
 ==============================================================================


May use up to 7570MB of RAM as shared memory on node 0

 *******************************************************************************
 *                                                                             *
 *  --------------------------------                                           *
 *   Amsterdam Modeling Suite (AMS)              2021.105                      *
 *  --------------------------------                                           *
 *                                               r97261 2021-09-16             *
 *                                                                             *
 *                                                                             *
 *                              =================                              *
 *                              |               |                              *
 *                              |     A M S     |                              *
 *                              |               |                              *
 *                              =================                              *
 *                                                                             *
 *                                                                             *
 *   Online information and documentation:  https://www.scm.com/support/       *
 *   E-mail:  support@scm.com   info@scm.com                                   *
 *                                                                             *
 *   Scientific publications using AMS results must be properly referenced     *
 *   See the User Manuals (or the web site) for recommended citations          *
 *   The terms and conditions of the End User License Agreement apply to       *
 *   the use of AMS, https://www.scm.com/license-terms/                        *
 *                                                                             *
 **********************  x86_64_linux_intel / intelmpi  ************************
 
 Licensed to: Dr. Miroslav Ilias / Matej Bel University, Department Chemistry, Fac. Natural Sciences / Banska Bystrica / SLOVAKIA
 SCM User ID: u17848
  
 AMS 2021.105  RunTime: Nov25-2021 20:13:38  ShM Nodes: 1  Procs: 4

 AMS jobname: ams
 AMS jobid  : 996303329

 Start   directory: /home/milias/work/projects/open-collection/theoretical_chemistry/projects/nmr_diplomovky/reference_compounds/phosphoric_acid/ams/pbe0_tz2p_good/cosmo-chcl3/srzora/geometry_optimization/geopt_srzora_pbe0_tzp_good_cosmo-chcl3/tmp.milias.190164.0.noindex/
 Results directory: /home/milias/work/projects/open-collection/theoretical_chemistry/projects/nmr_diplomovky/reference_compounds/phosphoric_acid/ams/pbe0_tz2p_good/cosmo-chcl3/srzora/geometry_optimization/geopt_srzora_pbe0_tzp_good_cosmo-chcl3/phosporic_acid.geopt_srzora_pbe0_tzp_good_cosmo-chcl3.results/
 Scratch directory: /tmp/amstmp_ams_kid0.996303329/


 Communication costs MPI_COMM_WORLD:      0.272 usec per message,   0.0033 usec per 8-byte item
 Communication costs for intra-node:      0.274 usec per message,   0.0033 usec per 8-byte item

 RNG seed: -1204153018 -55802150 1749137707 -351372649 879312130 -1879368937 1912182159 389720602



                      ************************************************************************
                      *  ADF 2021.105  RunTime: Nov25-2021 20:13:38  ShM Nodes: 1  Procs: 4  *
                      ************************************************************************
  
       ***************************
       *  GEOMETRY OPTIMIZATION  *
       ***************************

Optimization Method                    Quasi Newton
Optimization Coordinates               Delocalized Coordinates
Optimize lattice                       F
 
 ------------------------------------------------------
 Convergence criteria (Hartree,Angstrom)
 ------------------------------------------------------
 Maximum gradient               0.001000000000
 Maximum rms gradient           0.000666666667
 Maximum step allowed           0.001000000000
 Maximum rms step allowed       0.000666666667
 Maximum energy change allowe   0.000080000000
 Maximum stress energy allowe   0.000500000000
 
Initial model Hessian                  Automatic Hessian
 
------------------------------------
Quasi-Newton Optimizer Parameters
------------------------------------
Hessian Update Method                  BFGS
Maximum number of steps                  250
First GDIIS cycle                          0
Maximum GDIIS vectors                      0
Trust radius (bohr)                        0.200000
Trust radius varies                        T
Constraints converged at all steps         T
Use projector                              T
 
 Rigid motions settings for: old optimizer
 Atomic rotations (x,y,z):     T T T
 Atomic translations (x,y,z):  T T T
 Tolerance:                   1.000000000000000E-006
 
--------
Geometry
--------
Formula: H3O4P
Atoms
  Index Symbol   x (angstrom)   y (angstrom)   z (angstrom)
      1      P    -0.00000000     0.00000000    -0.15905187       adf.R=1.850
      2      O    -1.37568756    -0.34506058     0.53120603       adf.R=1.517
      3      O     0.98667501    -1.01885009     0.53120603       adf.R=1.517
      4      O     0.38901255     1.36391067     0.53120603       adf.R=1.517
      5      O    -0.00000000     0.00000000    -1.62491617       adf.R=1.517
      6      H    -2.13888353     0.01400758     0.06344999       adf.R=1.350
      7      H     1.05731084    -1.85933126     0.06344999       adf.R=1.350
      8      H     1.08157268     1.84532368     0.06344999       adf.R=1.350
 
Total System Charge             0.00000
Bonding info available!
 
 
----------------
ADF Engine Input
----------------
 
 Basis
 Type TZP
 Core None
 End
 XC
 Hybrid PBE0
 End
 Solvation
 Surf Delley
 Solv name=Chloroform cav0=0.0 cav1=0.0067639
 Charged method=CONJ
 C-Mat POT
 SCF VAR ALL
 CSMRSP
 End
 NumericalQuality Good
 

 Title: *** (NO TITLE) ***

Number of symmetry operators: 3
Schoenflies symbol:           C(3)
 Using automatic Hessian for delocalized coordinates.
 *** GOStep1 ***

 SOLVATION
-------------------------------------------

  The Delley construction of COSMO surface surface is calculated

       Division Level for Surface Triangles (NDIV)                  3
       Final Division Level for Triangles (NFDIV)                   1
       Radius of the Solvent (RSOL)                           3.17000 angstr
  Dielectric Constant (EPSL)                                  4.80000

       COSMO equation is solved iteratively-               conjugate-gradient

       Maximun of Iterations for Charges (NCIX)                  1000
       Criterion for Charge convergence (CCNV)                1.0E-08

  COSMO charges included variationally in SCF

       COSMO included at every SCF cycle

  Geometry-dependent empirical factor                         0.00000

  C-Matrix calculated in cspmtx

  In cspmtx, C-Matrix calculated using fitted potential

-------------------------------------------



 -------------------------------------------
  COSMO surface
  Area             =          351.681
  Volume           =          525.883
  Number of Points =          943
 -------------------------------------------



 ======================
 RI Hartree-Fock Scheme
 ======================
  
 Fit Set Quality     : GOOD
 Integration Quality : GOOD
 Threshold Quality   : GOOD
 Response Quality    : DEFAULT
 Is Range Separated  :  F
 
 RIHartreeFock Dependency: number of modified vectors:           3
 cosmo_calcen: 0.5 (esolb+esolc) (Hartrees) =   -0.020458

 Solvation energy (screening term,uncorrected) =    -12.837686 kcal/mol

 Solvation energy (dispersion and cavitation terms) =      0.527340 kcal/mol
 Solvation Energy Contributions (Hartrees)
          esola   esolb+esolc
     0.02045815   -0.04091631
 esol last cycle   -0.02045815
  
 Hartree-Fock exchange energy:   -56.9483937192049     
 cosmo_calcen: 0.5 (esolb+esolc) (Hartrees) =   -0.020458

 Solvation energy (screening term,uncorrected) =    -12.837686 kcal/mol

 Solvation energy (dispersion and cavitation terms) =      0.527340 kcal/mol
 Solvation Energy Contributions (Hartrees)
          esola   esolb+esolc
     0.02045815   -0.04091631
 esol last cycle   -0.02045815
  pauli hf:                              1.323153868709086         36.0048           830.29          3473.94
  elstat hf:                            -0.830126703086247        -22.5889          -520.91         -2179.50

 Energy gradients wrt nuclear displacements
 ==========================================

     Atom      Cartesian (a.u./angstrom)
                 X         Y         Z
 ----------------------------------------
     1 P    -0.000049 -0.000107  0.008118
     2 O     0.004596  0.005420 -0.009650
     3 O    -0.006967  0.001289 -0.009653
     4 O     0.002394 -0.006680 -0.009568
     5 O     0.000009  0.000016  0.008965
     6 H     0.001934 -0.002805  0.003925
     7 H     0.001508  0.003122  0.003927
     8 H    -0.003424 -0.000254  0.003936
 ----------------------------------------
 Mulliken charges used for AMS results%charges...
 
----------------------------------------------------------------------
Geometry Convergence after Step   1       (Hartree/Angstrom,Angstrom)
----------------------------------------------------------------------
current energy                               -2.22768385 Hartree
energy change                      -2.22768385     0.00008000    F
constrained gradient max            0.00962348     0.00100000    F
constrained gradient rms            0.00523165     0.00066667    F
gradient max                        0.00962348
gradient rms                        0.00523165
cart. step max                      0.00486897     0.00100000    F
cart. step rms                      0.00233278     0.00066667    F
 
 
--------
Geometry
--------
Formula: H3O4P
Atoms
  Index Symbol   x (angstrom)   y (angstrom)   z (angstrom)
      1      P    -0.00000000     0.00000000    -0.15973159       adf.R=1.850
      2      O    -1.37763677    -0.34801213     0.53511750       adf.R=1.517
      3      O     0.99020573    -1.01906238     0.53511750       adf.R=1.517
      4      O     0.38743104     1.36707451     0.53511750       adf.R=1.517
      5      O    -0.00000000     0.00000000    -1.62978514       adf.R=1.517
      6      H    -2.13792037     0.01558519     0.06138808       adf.R=1.350
      7      H     1.05546301    -1.85928594     0.06138808       adf.R=1.350
      8      H     1.08245735     1.84370075     0.06138808       adf.R=1.350
 
Total System Charge             0.00000
Bonding info available!
 
 *** GOStep2 ***

 SOLVATION
-------------------------------------------

  The Delley construction of COSMO surface surface is calculated

       Division Level for Surface Triangles (NDIV)                  3
       Final Division Level for Triangles (NFDIV)                   1
       Radius of the Solvent (RSOL)                           3.17000 angstr
  Dielectric Constant (EPSL)                                  4.80000

       COSMO equation is solved iteratively-               conjugate-gradient

       Maximun of Iterations for Charges (NCIX)                  1000
       Criterion for Charge convergence (CCNV)                1.0E-08

  COSMO charges included variationally in SCF

       COSMO included at every SCF cycle

  Geometry-dependent empirical factor                         0.00000

  C-Matrix calculated in cspmtx

  In cspmtx, C-Matrix calculated using fitted potential

-------------------------------------------



 -------------------------------------------
  COSMO surface
  Area             =          351.955
  Volume           =          526.733
  Number of Points =          944
 -------------------------------------------



 ======================
 RI Hartree-Fock Scheme
 ======================
  
 Fit Set Quality     : GOOD
 Integration Quality : GOOD
 Threshold Quality   : GOOD
 Response Quality    : DEFAULT
 Is Range Separated  :  F
 
 RIHartreeFock Dependency: number of modified vectors:           3
 cosmo_calcen: 0.5 (esolb+esolc) (Hartrees) =   -0.020400

 Solvation energy (screening term,uncorrected) =    -12.801110 kcal/mol

 Solvation energy (dispersion and cavitation terms) =      0.527751 kcal/mol
 Solvation Energy Contributions (Hartrees)
          esola   esolb+esolc
     0.02039986   -0.04079973
 esol last cycle   -0.02039986
  
 Hartree-Fock exchange energy:   -56.9334188256264     
 cosmo_calcen: 0.5 (esolb+esolc) (Hartrees) =   -0.020400

 Solvation energy (screening term,uncorrected) =    -12.801110 kcal/mol

 Solvation energy (dispersion and cavitation terms) =      0.527751 kcal/mol
 Solvation Energy Contributions (Hartrees)
          esola   esolb+esolc
     0.02039987   -0.04079973
 esol last cycle   -0.02039987
  pauli hf:                              1.316373186874355         35.8203           826.04          3456.14
  elstat hf:                            -0.824079943498280        -22.4244          -517.12         -2163.62

 Energy gradients wrt nuclear displacements
 ==========================================

     Atom      Cartesian (a.u./angstrom)
                 X         Y         Z
 ----------------------------------------
     1 P    -0.000040 -0.000108  0.008377
     2 O     0.002799  0.002182 -0.003640
     3 O    -0.003280  0.001366 -0.003660
     4 O     0.000488 -0.003524 -0.003593
     5 O     0.000006  0.000014 -0.002112
     6 H    -0.000478 -0.000994  0.001523
     7 H     0.001152  0.000120  0.001539
     8 H    -0.000647  0.000944  0.001567
 ----------------------------------------
 Mulliken charges used for AMS results%charges...

 dE(predicted):    -0.13464E-03, dE(actual):    -0.18047E-03, Trust radius:    0.200000, all in a.u.
 
----------------------------------------------------------------------
Geometry Convergence after Step   2       (Hartree/Angstrom,Angstrom)
----------------------------------------------------------------------
current energy                               -2.22786433 Hartree
energy change                      -0.00018047     0.00008000    F
constrained gradient max            0.00837659     0.00100000    F
constrained gradient rms            0.00260647     0.00066667    F
gradient max                        0.00837659
gradient rms                        0.00260647
cart. step max                      0.00491972     0.00100000    F
cart. step rms                      0.00291787     0.00066667    F
 
 
--------
Geometry
--------
Formula: H3O4P
Atoms
  Index Symbol   x (angstrom)   y (angstrom)   z (angstrom)
      1      P    -0.00000000     0.00000000    -0.15780643       adf.R=1.850
      2      O    -1.37988818    -0.35080403     0.53852926       adf.R=1.517
      3      O     0.99374929    -1.01961620     0.53852926       adf.R=1.517
      4      O     0.38613888     1.37042023     0.53852926       adf.R=1.517
      5      O    -0.00000000     0.00000000    -1.62718643       adf.R=1.517
      6      H    -2.13418635     0.01699053     0.05646836       adf.R=1.350
      7      H     1.05237894    -1.85675486     0.05646836       adf.R=1.350
      8      H     1.08180741     1.83976433     0.05646836       adf.R=1.350
 
Total System Charge             0.00000
Bonding info available!
 
 *** GOStep3 ***

 SOLVATION
-------------------------------------------

  The Delley construction of COSMO surface surface is calculated

       Division Level for Surface Triangles (NDIV)                  3
       Final Division Level for Triangles (NFDIV)                   1
       Radius of the Solvent (RSOL)                           3.17000 angstr
  Dielectric Constant (EPSL)                                  4.80000

       COSMO equation is solved iteratively-               conjugate-gradient

       Maximun of Iterations for Charges (NCIX)                  1000
       Criterion for Charge convergence (CCNV)                1.0E-08

  COSMO charges included variationally in SCF

       COSMO included at every SCF cycle

  Geometry-dependent empirical factor                         0.00000

  C-Matrix calculated in cspmtx

  In cspmtx, C-Matrix calculated using fitted potential

-------------------------------------------



 -------------------------------------------
  COSMO surface
  Area             =          351.926
  Volume           =          527.041
  Number of Points =          946
 -------------------------------------------



 ======================
 RI Hartree-Fock Scheme
 ======================
  
 Fit Set Quality     : GOOD
 Integration Quality : GOOD
 Threshold Quality   : GOOD
 Response Quality    : DEFAULT
 Is Range Separated  :  F
 
 RIHartreeFock Dependency: number of modified vectors:           3
 cosmo_calcen: 0.5 (esolb+esolc) (Hartrees) =   -0.020231

 Solvation energy (screening term,uncorrected) =    -12.695369 kcal/mol

 Solvation energy (dispersion and cavitation terms) =      0.527708 kcal/mol
 Solvation Energy Contributions (Hartrees)
          esola   esolb+esolc
     0.02023136   -0.04046271
 esol last cycle   -0.02023136
  
 Hartree-Fock exchange energy:   -56.9270497319238     
 cosmo_calcen: 0.5 (esolb+esolc) (Hartrees) =   -0.020231

 Solvation energy (screening term,uncorrected) =    -12.695369 kcal/mol

 Solvation energy (dispersion and cavitation terms) =      0.527708 kcal/mol
 Solvation Energy Contributions (Hartrees)
          esola   esolb+esolc
     0.02023136   -0.04046271
 esol last cycle   -0.02023136
  pauli hf:                              1.313671960201306         35.7468           824.34          3449.05
  elstat hf:                            -0.821591046575900        -22.3566          -515.56         -2157.09

 Energy gradients wrt nuclear displacements
 ==========================================

     Atom      Cartesian (a.u./angstrom)
                 X         Y         Z
 ----------------------------------------
     1 P    -0.000041 -0.000090  0.001111
     2 O     0.000297 -0.000033 -0.000116
     3 O    -0.000122  0.000308 -0.000119
     4 O    -0.000172 -0.000269 -0.000053
     5 O     0.000004  0.000014 -0.001175
     6 H    -0.000750  0.000026  0.000103
     7 H     0.000410 -0.000618  0.000113
     8 H     0.000373  0.000662  0.000137
 ----------------------------------------
 Mulliken charges used for AMS results%charges...

 dE(predicted):    -0.48152E-04, dE(actual):    -0.54303E-04, Trust radius:    0.200000, all in a.u.
 
----------------------------------------------------------------------
Geometry Convergence after Step   3       (Hartree/Angstrom,Angstrom)
----------------------------------------------------------------------
current energy                               -2.22791863 Hartree
energy change                      -0.00005430     0.00008000    T
constrained gradient max            0.00117486     0.00100000    F
constrained gradient rms            0.00044042     0.00066667    T
gradient max                        0.00117486
gradient rms                        0.00044042
cart. step max                      0.00202657     0.00100000    F
cart. step rms                      0.00116104     0.00066667    F
 
 
--------
Geometry
--------
Formula: H3O4P
Atoms
  Index Symbol   x (angstrom)   y (angstrom)   z (angstrom)
      1      P    -0.00000000     0.00000000    -0.15658514       adf.R=1.850
      2      O    -1.38013172    -0.35096873     0.53958760       adf.R=1.517
      3      O     0.99401370    -1.01974476     0.53958760       adf.R=1.517
      4      O     0.38611802     1.37071350     0.53958760       adf.R=1.517
      5      O    -0.00000000     0.00000000    -1.62553587       adf.R=1.517
      6      H    -2.13215978     0.01704086     0.05445274       adf.R=1.350
      7      H     1.05132208    -1.85502496     0.05445274       adf.R=1.350
      8      H     1.08083770     1.83798411     0.05445274       adf.R=1.350
 
Total System Charge             0.00000
Bonding info available!
 
 *** GOStep4 ***

 SOLVATION
-------------------------------------------

  The Delley construction of COSMO surface surface is calculated

       Division Level for Surface Triangles (NDIV)                  3
       Final Division Level for Triangles (NFDIV)                   1
       Radius of the Solvent (RSOL)                           3.17000 angstr
  Dielectric Constant (EPSL)                                  4.80000

       COSMO equation is solved iteratively-               conjugate-gradient

       Maximun of Iterations for Charges (NCIX)                  1000
       Criterion for Charge convergence (CCNV)                1.0E-08

  COSMO charges included variationally in SCF

       COSMO included at every SCF cycle

  Geometry-dependent empirical factor                         0.00000

  C-Matrix calculated in cspmtx

  In cspmtx, C-Matrix calculated using fitted potential

-------------------------------------------



 -------------------------------------------
  COSMO surface
  Area             =          351.810
  Volume           =          526.928
  Number of Points =          944
 -------------------------------------------



 ======================
 RI Hartree-Fock Scheme
 ======================
  
 Fit Set Quality     : GOOD
 Integration Quality : GOOD
 Threshold Quality   : GOOD
 Response Quality    : DEFAULT
 Is Range Separated  :  F
 
 RIHartreeFock Dependency: number of modified vectors:           3
 cosmo_calcen: 0.5 (esolb+esolc) (Hartrees) =   -0.020176

 Solvation energy (screening term,uncorrected) =    -12.660848 kcal/mol

 Solvation energy (dispersion and cavitation terms) =      0.527534 kcal/mol
 Solvation Energy Contributions (Hartrees)
          esola   esolb+esolc
     0.02017634   -0.04035269
 esol last cycle   -0.02017634
  
 Hartree-Fock exchange energy:   -56.9275320717152     
 cosmo_calcen: 0.5 (esolb+esolc) (Hartrees) =   -0.020176

 Solvation energy (screening term,uncorrected) =    -12.660848 kcal/mol

 Solvation energy (dispersion and cavitation terms) =      0.527534 kcal/mol
 Solvation Energy Contributions (Hartrees)
          esola   esolb+esolc
     0.02017634   -0.04035269
 esol last cycle   -0.02017634
  pauli hf:                              1.314063267655753         35.7575           824.59          3450.07
  elstat hf:                            -0.821911306852797        -22.3653          -515.76         -2157.93

 Energy gradients wrt nuclear displacements
 ==========================================

     Atom      Cartesian (a.u./angstrom)
                 X         Y         Z
 ----------------------------------------
     1 P    -0.000034 -0.000107 -0.000343
     2 O    -0.000104 -0.000155  0.000130
     3 O     0.000193  0.000024  0.000120
     4 O    -0.000089  0.000162  0.000185
     5 O     0.000004  0.000013 -0.000196
     6 H    -0.000133  0.000030  0.000017
     7 H     0.000089 -0.000086  0.000033
     8 H     0.000073  0.000117  0.000053
 ----------------------------------------
 Mulliken charges used for AMS results%charges...

 dE(predicted):    -0.31819E-05, dE(actual):    -0.25692E-05, Trust radius:    0.200000, all in a.u.
 
----------------------------------------------------------------------
Geometry Convergence after Step   4       (Hartree/Angstrom,Angstrom)
----------------------------------------------------------------------
current energy                               -2.22792120 Hartree
energy change                      -0.00000257     0.00008000    T
constrained gradient max            0.00034313     0.00100000    T
constrained gradient rms            0.00012292     0.00066667    T
gradient max                        0.00034313
gradient rms                        0.00012292
cart. step max                      0.00106468     0.00100000    F
cart. step rms                      0.00055665     0.00066667    T
 
 
--------
Geometry
--------
Formula: H3O4P
Atoms
  Index Symbol   x (angstrom)   y (angstrom)   z (angstrom)
      1      P    -0.00000000     0.00000000    -0.15568231       adf.R=1.850
      2      O    -1.38033917    -0.35051973     0.54001942       adf.R=1.517
      3      O     0.99372858    -1.02014892     0.54001942       adf.R=1.517
      4      O     0.38661059     1.37066866     0.54001942       adf.R=1.517
      5      O    -0.00000000     0.00000000    -1.62454013       adf.R=1.517
      6      H    -2.13170796     0.01671246     0.05338806       adf.R=1.350
      7      H     1.05138056    -1.85446947     0.05338806       adf.R=1.350
      8      H     1.08032739     1.83775701     0.05338806       adf.R=1.350
 
Total System Charge             0.00000
Bonding info available!
 
 *** GOStep5 ***

 SOLVATION
-------------------------------------------

  The Delley construction of COSMO surface surface is calculated

       Division Level for Surface Triangles (NDIV)                  3
       Final Division Level for Triangles (NFDIV)                   1
       Radius of the Solvent (RSOL)                           3.17000 angstr
  Dielectric Constant (EPSL)                                  4.80000

       COSMO equation is solved iteratively-               conjugate-gradient

       Maximun of Iterations for Charges (NCIX)                  1000
       Criterion for Charge convergence (CCNV)                1.0E-08

  COSMO charges included variationally in SCF

       COSMO included at every SCF cycle

  Geometry-dependent empirical factor                         0.00000

  C-Matrix calculated in cspmtx

  In cspmtx, C-Matrix calculated using fitted potential

-------------------------------------------



 -------------------------------------------
  COSMO surface
  Area             =          351.767
  Volume           =          526.866
  Number of Points =          944
 -------------------------------------------



 ======================
 RI Hartree-Fock Scheme
 ======================
  
 Fit Set Quality     : GOOD
 Integration Quality : GOOD
 Threshold Quality   : GOOD
 Response Quality    : DEFAULT
 Is Range Separated  :  F
 
 RIHartreeFock Dependency: number of modified vectors:           3
 cosmo_calcen: 0.5 (esolb+esolc) (Hartrees) =   -0.020164

 Solvation energy (screening term,uncorrected) =    -12.653358 kcal/mol

 Solvation energy (dispersion and cavitation terms) =      0.527469 kcal/mol
 Solvation Energy Contributions (Hartrees)
          esola   esolb+esolc
     0.02016441   -0.04032881
 esol last cycle   -0.02016441
  
 Hartree-Fock exchange energy:   -56.9279854997361     
 cosmo_calcen: 0.5 (esolb+esolc) (Hartrees) =   -0.020164

 Solvation energy (screening term,uncorrected) =    -12.653358 kcal/mol

 Solvation energy (dispersion and cavitation terms) =      0.527469 kcal/mol
 Solvation Energy Contributions (Hartrees)
          esola   esolb+esolc
     0.02016441   -0.04032881
 esol last cycle   -0.02016441
  pauli hf:                              1.314323338980254         35.7646           824.75          3450.76
  elstat hf:                            -0.822140340855364        -22.3716          -515.90         -2158.53

 Energy gradients wrt nuclear displacements
 ==========================================

     Atom      Cartesian (a.u./angstrom)
                 X         Y         Z
 ----------------------------------------
     1 P    -0.000037 -0.000108 -0.000227
     2 O    -0.000087 -0.000109 -0.000007
     3 O     0.000146  0.000016 -0.000017
     4 O    -0.000057  0.000124  0.000047
     5 O     0.000005  0.000013  0.000111
     6 H     0.000019  0.000002  0.000013
     7 H     0.000037  0.000060  0.000030
     8 H    -0.000026  0.000000  0.000049
 ----------------------------------------
 Mulliken charges used for AMS results%charges...
 
---------------------------------------------------------
Geometry Convergence after Step   5       ** CONVERGED **
---------------------------------------------------------
current energy                               -2.22792161 Hartree
energy change                      -0.00000041     0.00008000    T
constrained gradient max            0.00022674     0.00100000    T
constrained gradient rms            0.00006838     0.00066667    T
gradient max                        0.00022674
gradient rms                        0.00006838
cart. step max                      0.00074667     0.00100000    T
cart. step rms                      0.00043120     0.00066667    T
 
Geometry optimization converged

Optimized geometry:
 
--------
Geometry
--------
Formula: H3O4P
Atoms
  Index Symbol   x (angstrom)   y (angstrom)   z (angstrom)
      1      P    -0.00000000     0.00000000    -0.15568231       adf.R=1.850
      2      O    -1.38033917    -0.35051973     0.54001942       adf.R=1.517
      3      O     0.99372858    -1.02014892     0.54001942       adf.R=1.517
      4      O     0.38661059     1.37066866     0.54001942       adf.R=1.517
      5      O    -0.00000000     0.00000000    -1.62454013       adf.R=1.517
      6      H    -2.13170796     0.01671246     0.05338806       adf.R=1.350
      7      H     1.05138056    -1.85446947     0.05338806       adf.R=1.350
      8      H     1.08032739     1.83775701     0.05338806       adf.R=1.350
 
Total System Charge             0.00000
Bonding info available!
 
Performing a single point calculation on the final geometry ...

 *** adf ***



 ===========================
 A T T A C H E D   F I L E S
 ===========================
  
 Restart/tmp/amstmp_ams_kid0.996303329/GOStep5.rkf*** GOStep5 ***



 ===============================
 M O D E L   P A R A M E T E R S
 ===============================
  
 DENSITY FUNCTIONAL POTENTIAL (scf)
    Hybrid:                            PBE0                                    == Not Default ==

 SPIN  (restricted / unrestr.)
    Molecule:                          Restricted                               
    Fragments:                         Restricted                               

 OTHER ASPECTS
    Relativistic Corrections:          scalar (ZORA,MAPA)                       

    Nuclear Charge Density Model:      Point Charge Nuclei                      
    Core Treatment:                    Frozen Orbital(s)                        

    Hyperfine or Zeeman Interaction:   ---                                      

 SOLVATION
-------------------------------------------

  The Delley construction of COSMO surface surface is calculated

       Division Level for Surface Triangles (NDIV)                  3
       Final Division Level for Triangles (NFDIV)                   1
       Radius of the Solvent (RSOL)                           3.17000 angstr
  Dielectric Constant (EPSL)                                  4.80000

       COSMO equation is solved iteratively-               conjugate-gradient

       Maximun of Iterations for Charges (NCIX)                  1000
       Criterion for Charge convergence (CCNV)                1.0E-08

  COSMO charges included variationally in SCF

       COSMO included at every SCF cycle

  Geometry-dependent empirical factor                         0.00000

  C-Matrix calculated in cspmtx

  In cspmtx, C-Matrix calculated using fitted potential

-------------------------------------------




 ===============
 G E O M E T R Y  ***  3D  Molecule  ***
 ===============
  

 ATOMS
 =====                            X Y Z                    CHARGE                     RADIUS
                                (Angstrom)             Nucl     +Core       At.Mass (Angstrom)
                       --------------------------    ----------------       ------- ----------
    1  P              -0.0000    0.0000   -0.1557     15.00     15.00       30.9738    1.8500
    2  O              -1.3803   -0.3505    0.5400      8.00      8.00       15.9949    1.5170
    3  O               0.9937   -1.0201    0.5400      8.00      8.00       15.9949    1.5170
    4  O               0.3866    1.3707    0.5400      8.00      8.00       15.9949    1.5170
    5  O              -0.0000    0.0000   -1.6245      8.00      8.00       15.9949    1.5170
    6  H              -2.1317    0.0167    0.0534      1.00      1.00        1.0078    1.3500
    7  H               1.0514   -1.8545    0.0534      1.00      1.00        1.0078    1.3500
    8  H               1.0803    1.8378    0.0534      1.00      1.00        1.0078    1.3500


 FRAGMENTS
 =========                                     Atoms in this Fragment     Cart. coord.s (Angstrom)
                                               -------------------------------------------------------
    1  P                                                 1  P           -0.0000    0.0000   -0.1557
    2  O                                                 2  O           -1.3803   -0.3505    0.5400
    3  O                                                 3  O            0.9937   -1.0201    0.5400
    4  O                                                 4  O            0.3866    1.3707    0.5400
    5  O                                                 5  O           -0.0000    0.0000   -1.6245
    6  H                                                 6  H           -2.1317    0.0167    0.0534
    7  H                                                 7  H            1.0514   -1.8545    0.0534
    8  H                                                 8  H            1.0803    1.8378    0.0534


 Interatomic Distance Matrix (Angstrom)
 --------------------------------------

   1)     0.000
   2)     1.585   0.000
   3)     1.585   2.467   0.000
   4)     1.585   2.467   2.467   0.000
   5)     1.469   2.591   2.591   2.591   0.000
   6)     2.142   0.968   3.329   2.900   2.713   0.000
   7)     2.142   2.900   0.968   3.329   2.713   3.692   0.000
   8)     2.142   3.329   2.900   0.968   2.713   3.692   3.692   0.000

 Min. Distance =    0.9676
 Max. Distance =    3.6923



 =====================================
 S Y M M E T R Y ,   E L E C T R O N S
 =====================================
  
 Symmetry: NOSYM

 Irreducible Representations, including subspecies
 -------------------------------------------------
 A

 Symmetry is NOT used when fitting density


 Configuration of Valence Electrons
 ==================================
 ( determined in the SCF procedure )

 Total:   50

 Net Charge: 0 (Nuclei minus Electrons)

 Aufbau principle for MO occupations will be applied through SCF cycle no.     150
 Thereafter, the program will assign electrons to MOs that are spatially
 similar to the occupied MOs in a "reference" cycle ("KeepOrbitals").
 The reference cycle is always the PREVIOUS cycle: it will evolve with
 the SCF procedure.
1
 ***************************************************************************************************



                                      ****************************************
                                      *  B U I L D : (Fragments, Functions)  *
                                      ****************************************
  



 =======
 S F O s  ***  (Symmetrized Fragment Orbitals)  ***
 =======
  
 SFOs are linear combinations of (valence) Fragment Orbitals (FOs), such that the SFOs transform as the
 irreducible representations of the (molecular) symmetry group. Each SFO is therefore characterized by
 an irrep of the molecule and by a few (or only one) generating FOs.
 The SFOs constitute a symmetry-adapted basis for the Fock matrix. The MO eigenvector coefficients in
 this basis provide a direct interpretation of the MOs in terms of Frontier Orbital Theory.

 The SFOs are combined with auxiliary Core Functions (CFs) to ensure orthogonalization on the (frozen)
 Core Orbitals (COs). The Core-orthogonalized SFOs (CSFOs) constitute the true Fock basis.

 The FOs, and hence also the (C)SFOs are combinations of the elementary basis functions (BAS). The basis
 functions that participate in the description of the SFOs depend on the irrep. The indices of the
 involved functions are printed below for each irrep.
 (The complete list of primitive basis functions is printed in another section)

 Total nr. of (C)SFOs (summation over all irreps) :   121

 NOTE: a (C)SFO that is defined as a combination of more than one FO is usually NOT normalized.



                                       === A ===
 Nr. of SFOs :  121
 Cartesian basis functions that participate in this irrep (total number =   126) :
      1     2     3     4    11    12    13     5     8    14
     17    20     6     9    15    18    21     7    10    16
     19    22    23    24    25    26    27    28    29    30
     31    32    33    34    37    40    35    38    41    36
     39    42    43    44    45    46    47    48    49    50
     51    52    53    54    57    60    55    58    61    56
     59    62    63    64    65    66    67    68    69    70
     71    72    73    74    77    80    75    78    81    76
     79    82    83    84    85    86    87    88    89    90
     91    92    93    94    97   100    95    98   101    96
     99   102   103   104   105   106   107   108   109   110
    111   112   113   114   115   116   117   118   119   120
    121   122   123   124   125   126

    SFO  (index         Fragment          Generating    Expansion in Fragment Orbitals
  indx  incl.CFs)   Occup   Orb.Energy   FragmentType  Coeff.   Orbital     on Fragment
 --------------------------------------------------------------------------------------
     1       1      2.000     -77.495 au  P             1.00      1 S               1
                        (   -2108.755 eV)
     2       2      2.000      -6.709 au  P             1.00      2 S               1
                        (    -182.551 eV)
     3       3      2.000      -0.580 au  P             1.00      3 S               1
                        (     -15.778 eV)
     4       4       --         0.140 au  P             1.00      4 S               1
                        (       3.817 eV)
     5       5       --         1.380 au  P             1.00      5 S               1
                        (      37.549 eV)
     6       6       --         9.471 au  P             1.00      6 S               1
                        (     257.719 eV)
     7       7       --       159.700 au  P             1.00      7 S               1
                        (    4345.659 eV)
     8       8      2.000      -4.804 au  P             1.00      1 P:x             1
                        (    -130.726 eV)
     9       9      1.000      -0.208 au  P             1.00      2 P:x             1
                        (      -5.658 eV)
    10      10       --         0.107 au  P             1.00      3 P:x             1
                        (       2.910 eV)
    11      11       --         0.924 au  P             1.00      4 P:x             1
                        (      25.153 eV)
    12      12       --        10.501 au  P             1.00      5 P:x             1
                        (     285.748 eV)
    13      13      2.000      -4.804 au  P             1.00      1 P:y             1
                        (    -130.726 eV)
    14      14      1.000      -0.208 au  P             1.00      2 P:y             1
                        (      -5.658 eV)
    15      15       --         0.107 au  P             1.00      3 P:y             1
                        (       2.910 eV)
    16      16       --         0.924 au  P             1.00      4 P:y             1
                        (      25.153 eV)
    17      17       --        10.501 au  P             1.00      5 P:y             1
                        (     285.748 eV)
    18      18      2.000      -4.804 au  P             1.00      1 P:z             1
                        (    -130.726 eV)
    19      19      1.000      -0.208 au  P             1.00      2 P:z             1
                        (      -5.658 eV)
    20      20       --         0.107 au  P             1.00      3 P:z             1
                        (       2.910 eV)
    21      21       --         0.924 au  P             1.00      4 P:z             1
                        (      25.153 eV)
    22      22       --        10.501 au  P             1.00      5 P:z             1
                        (     285.748 eV)
    23      23       --         0.440 au  P             1.00      1 D:z2            1
                        (      11.981 eV)
    24      24       --         0.440 au  P             1.00      1 D:x2-y2         1
                        (      11.981 eV)
    25      25       --         0.440 au  P             1.00      1 D:xy            1
                        (      11.981 eV)
    26      26       --         0.440 au  P             1.00      1 D:xz            1
                        (      11.981 eV)
    27      27       --         0.440 au  P             1.00      1 D:yz            1
                        (      11.981 eV)
    28      28      2.000     -19.396 au  O             1.00      1 S               2
                        (    -527.802 eV)
    29      29      2.000      -0.999 au  O             1.00      2 S               2
                        (     -27.198 eV)
    30      30       --         0.856 au  O             1.00      3 S               2
                        (      23.286 eV)
    31      31       --        13.669 au  O             1.00      4 S               2
                        (     371.949 eV)
    32      32       --       122.369 au  O             1.00      5 S               2
                        (    3329.820 eV)
    33      33      1.333      -0.366 au  O             1.00      1 P:x             2
                        (      -9.955 eV)
    34      34       --         0.397 au  O             1.00      2 P:x             2
                        (      10.811 eV)
    35      35       --         3.979 au  O             1.00      3 P:x             2
                        (     108.277 eV)
    36      36      1.333      -0.366 au  O             1.00      1 P:y             2
                        (      -9.955 eV)
    37      37       --         0.397 au  O             1.00      2 P:y             2
                        (      10.811 eV)
    38      38       --         3.979 au  O             1.00      3 P:y             2
                        (     108.277 eV)
    39      39      1.333      -0.366 au  O             1.00      1 P:z             2
                        (      -9.955 eV)
    40      40       --         0.397 au  O             1.00      2 P:z             2
                        (      10.811 eV)
    41      41       --         3.979 au  O             1.00      3 P:z             2
                        (     108.277 eV)
    42      42       --         1.128 au  O             1.00      1 D:z2            2
                        (      30.706 eV)
    43      43       --         1.128 au  O             1.00      1 D:x2-y2         2
                        (      30.706 eV)
    44      44       --         1.128 au  O             1.00      1 D:xy            2
                        (      30.706 eV)
    45      45       --         1.128 au  O             1.00      1 D:xz            2
                        (      30.706 eV)
    46      46       --         1.128 au  O             1.00      1 D:yz            2
                        (      30.706 eV)
    47      47      2.000     -19.396 au  O             1.00      1 S               3
                        (    -527.802 eV)
    48      48      2.000      -0.999 au  O             1.00      2 S               3
                        (     -27.198 eV)
    49      49       --         0.856 au  O             1.00      3 S               3
                        (      23.286 eV)
    50      50       --        13.669 au  O             1.00      4 S               3
                        (     371.949 eV)
    51      51       --       122.369 au  O             1.00      5 S               3
                        (    3329.820 eV)
    52      52      1.333      -0.366 au  O             1.00      1 P:x             3
                        (      -9.955 eV)
    53      53       --         0.397 au  O             1.00      2 P:x             3
                        (      10.811 eV)
    54      54       --         3.979 au  O             1.00      3 P:x             3
                        (     108.277 eV)
    55      55      1.333      -0.366 au  O             1.00      1 P:y             3
                        (      -9.955 eV)
    56      56       --         0.397 au  O             1.00      2 P:y             3
                        (      10.811 eV)
    57      57       --         3.979 au  O             1.00      3 P:y             3
                        (     108.277 eV)
    58      58      1.333      -0.366 au  O             1.00      1 P:z             3
                        (      -9.955 eV)
    59      59       --         0.397 au  O             1.00      2 P:z             3
                        (      10.811 eV)
    60      60       --         3.979 au  O             1.00      3 P:z             3
                        (     108.277 eV)
    61      61       --         1.128 au  O             1.00      1 D:z2            3
                        (      30.706 eV)
    62      62       --         1.128 au  O             1.00      1 D:x2-y2         3
                        (      30.706 eV)
    63      63       --         1.128 au  O             1.00      1 D:xy            3
                        (      30.706 eV)
    64      64       --         1.128 au  O             1.00      1 D:xz            3
                        (      30.706 eV)
    65      65       --         1.128 au  O             1.00      1 D:yz            3
                        (      30.706 eV)
    66      66      2.000     -19.396 au  O             1.00      1 S               4
                        (    -527.802 eV)
    67      67      2.000      -0.999 au  O             1.00      2 S               4
                        (     -27.198 eV)
    68      68       --         0.856 au  O             1.00      3 S               4
                        (      23.286 eV)
    69      69       --        13.669 au  O             1.00      4 S               4
                        (     371.949 eV)
    70      70       --       122.369 au  O             1.00      5 S               4
                        (    3329.820 eV)
    71      71      1.333      -0.366 au  O             1.00      1 P:x             4
                        (      -9.955 eV)
    72      72       --         0.397 au  O             1.00      2 P:x             4
                        (      10.811 eV)
    73      73       --         3.979 au  O             1.00      3 P:x             4
                        (     108.277 eV)
    74      74      1.333      -0.366 au  O             1.00      1 P:y             4
                        (      -9.955 eV)
    75      75       --         0.397 au  O             1.00      2 P:y             4
                        (      10.811 eV)
    76      76       --         3.979 au  O             1.00      3 P:y             4
                        (     108.277 eV)
    77      77      1.333      -0.366 au  O             1.00      1 P:z             4
                        (      -9.955 eV)
    78      78       --         0.397 au  O             1.00      2 P:z             4
                        (      10.811 eV)
    79      79       --         3.979 au  O             1.00      3 P:z             4
                        (     108.277 eV)
    80      80       --         1.128 au  O             1.00      1 D:z2            4
                        (      30.706 eV)
    81      81       --         1.128 au  O             1.00      1 D:x2-y2         4
                        (      30.706 eV)
    82      82       --         1.128 au  O             1.00      1 D:xy            4
                        (      30.706 eV)
    83      83       --         1.128 au  O             1.00      1 D:xz            4
                        (      30.706 eV)
    84      84       --         1.128 au  O             1.00      1 D:yz            4
                        (      30.706 eV)
    85      85      2.000     -19.396 au  O             1.00      1 S               5
                        (    -527.802 eV)
    86      86      2.000      -0.999 au  O             1.00      2 S               5
                        (     -27.198 eV)
    87      87       --         0.856 au  O             1.00      3 S               5
                        (      23.286 eV)
    88      88       --        13.669 au  O             1.00      4 S               5
                        (     371.949 eV)
    89      89       --       122.369 au  O             1.00      5 S               5
                        (    3329.820 eV)
    90      90      1.333      -0.366 au  O             1.00      1 P:x             5
                        (      -9.955 eV)
    91      91       --         0.397 au  O             1.00      2 P:x             5
                        (      10.811 eV)
    92      92       --         3.979 au  O             1.00      3 P:x             5
                        (     108.277 eV)
    93      93      1.333      -0.366 au  O             1.00      1 P:y             5
                        (      -9.955 eV)
    94      94       --         0.397 au  O             1.00      2 P:y             5
                        (      10.811 eV)
    95      95       --         3.979 au  O             1.00      3 P:y             5
                        (     108.277 eV)
    96      96      1.333      -0.366 au  O             1.00      1 P:z             5
                        (      -9.955 eV)
    97      97       --         0.397 au  O             1.00      2 P:z             5
                        (      10.811 eV)
    98      98       --         3.979 au  O             1.00      3 P:z             5
                        (     108.277 eV)
    99      99       --         1.128 au  O             1.00      1 D:z2            5
                        (      30.706 eV)
   100     100       --         1.128 au  O             1.00      1 D:x2-y2         5
                        (      30.706 eV)
   101     101       --         1.128 au  O             1.00      1 D:xy            5
                        (      30.706 eV)
   102     102       --         1.128 au  O             1.00      1 D:xz            5
                        (      30.706 eV)
   103     103       --         1.128 au  O             1.00      1 D:yz            5
                        (      30.706 eV)
   104     104      1.000      -0.242 au  H             1.00      1 S               6
                        (      -6.581 eV)
   105     105       --         0.113 au  H             1.00      2 S               6
                        (       3.073 eV)
   106     106       --         1.599 au  H             1.00      3 S               6
                        (      43.500 eV)
   107     107       --         0.445 au  H             1.00      1 P:x             6
                        (      12.103 eV)
   108     108       --         0.445 au  H             1.00      1 P:y             6
                        (      12.103 eV)
   109     109       --         0.445 au  H             1.00      1 P:z             6
                        (      12.103 eV)
   110     110      1.000      -0.242 au  H             1.00      1 S               7
                        (      -6.581 eV)
   111     111       --         0.113 au  H             1.00      2 S               7
                        (       3.073 eV)
   112     112       --         1.599 au  H             1.00      3 S               7
                        (      43.500 eV)
   113     113       --         0.445 au  H             1.00      1 P:x             7
                        (      12.103 eV)
   114     114       --         0.445 au  H             1.00      1 P:y             7
                        (      12.103 eV)
   115     115       --         0.445 au  H             1.00      1 P:z             7
                        (      12.103 eV)
   116     116      1.000      -0.242 au  H             1.00      1 S               8
                        (      -6.581 eV)
   117     117       --         0.113 au  H             1.00      2 S               8
                        (       3.073 eV)
   118     118       --         1.599 au  H             1.00      3 S               8
                        (      43.500 eV)
   119     119       --         0.445 au  H             1.00      1 P:x             8
                        (      12.103 eV)
   120     120       --         0.445 au  H             1.00      1 P:y             8
                        (      12.103 eV)
   121     121       --         0.445 au  H             1.00      1 P:z             8
                        (      12.103 eV)



 ================================
 (Slater-type)  F U N C T I O N S  ***  (Basis and Fit)  ***
 ================================
  

 Atom Type    1  (P)
 ==============

 Valence Basis Sets:  13
 -----------------------
   1 S   18.000000
   1 S   13.350000
   2 S    5.600000
   2 S    4.050000
   2 P    7.450000
   2 P    4.100000
   3 S    2.700000
   3 S    1.850000
   3 S    1.300000
   3 P    2.300000
   3 P    1.350000
   3 P    0.850000
   3 D    1.900000

 Charge Fitting Sets (for the computation of the Coulomb Potential):  30
 -----------------------------------------------------------------------
   1 S   36.000000
   1 S   21.450000
   2 S   23.670000
   2 S   15.860000
   3 S   15.600000
   3 S   11.130000
   3 S    7.940000
   4 S    7.490000
   4 S    5.560000
   4 S    4.130000
   5 S    3.810000
   5 S    2.910000
   5 S    2.230000
   5 S    1.700000
   2 P   25.450000
   3 P   18.490000
   4 P   13.440000
   4 P    7.810000
   5 P    5.730000
   5 P    3.510000
   5 P    2.150000
   3 D   19.350000
   4 D   13.230000
   4 D    7.250000
   5 D    5.040000
   5 D    2.930000
   5 D    1.700000
   4 F    5.000000
   4 F    3.000000
   5 G    3.750000

 Atom Type    2  (O)
 ==============

 Valence Basis Sets:   9
 -----------------------
   1 S    9.800000
   1 S    6.800000
   2 S    7.580000
   2 S    2.880000
   2 S    1.720000
   2 P    4.080000
   2 P    2.080000
   2 P    1.120000
   3 D    2.000000

 Charge Fitting Sets (for the computation of the Coulomb Potential):  22
 -----------------------------------------------------------------------
   1 S   19.600000
   2 S   22.600000
   2 S   15.680000
   2 S   10.890000
   2 S    7.560000
   3 S    7.690000
   3 S    5.650000
   3 S    4.150000
   3 S    3.050000
   3 S    2.240000
   2 P   12.860000
   2 P    7.680000
   3 P    6.780000
   3 P    4.390000
   3 P    2.840000
   3 D    8.800000
   3 D    5.580000
   3 D    3.530000
   3 D    2.240000
   4 F    6.200000
   4 F    3.700000
   5 G    4.500000

 Atom Type    3  (H)
 ==============

 Valence Basis Sets:   4
 -----------------------
   1 S    0.690000
   1 S    0.920000
   1 S    1.580000
   2 P    1.250000

 Charge Fitting Sets (for the computation of the Coulomb Potential):  11
 -----------------------------------------------------------------------
   1 S    3.160000
   1 S    2.090000
   1 S    1.380000
   2 S    1.500000
   2 P    4.000000
   2 P    2.650000
   2 P    1.750000
   3 D    4.000000
   3 D    2.500000
   4 F    3.000000
   5 G    4.000000


 BAS: List of all Elementary Cartesian Basis Functions
 =====================================================

 The numbering in the list below (to the right of the function characteristics) is referred
 to in print-outs of MO eigenvectors and Mulliken populations in the BAS representation
 (as contrasted to the SFO representation).

 Notes:
 1. The functions are characterized by a polynomial prefactor (powers of x,y,z and r) and
    an exponential decay factor alpha.
 2. Since the basis sets are specific for an atom TYPE, the individual functions occur on
    all atoms of that type.
 3. The word 'Core' in the left margin signals that it is a Core Function (CF) : not a
    degree of freedom in the valence set, but only used to ensure orthogonalization of
    the other valence basis functions on the frozen Core Orbitals.


 (power of) X  Y  Z  R     Alpha  on Atom
            ==========     =====     ==========

 P                                    1
                                  ---------------------------------------------------------------------------
            0  0  0  0    18.000      1
            0  0  0  0    13.350      2
            0  0  0  1     5.600      3
            0  0  0  1     4.050      4
            1  0  0  0     7.450      5
            0  1  0  0     7.450      6
            0  0  1  0     7.450      7
            1  0  0  0     4.100      8
            0  1  0  0     4.100      9
            0  0  1  0     4.100     10
            0  0  0  2     2.700     11
            0  0  0  2     1.850     12
            0  0  0  2     1.300     13
            1  0  0  1     2.300     14
            0  1  0  1     2.300     15
            0  0  1  1     2.300     16
            1  0  0  1     1.350     17
            0  1  0  1     1.350     18
            0  0  1  1     1.350     19
            1  0  0  1     0.850     20
            0  1  0  1     0.850     21
            0  0  1  1     0.850     22
            2  0  0  0     1.900     23
            1  1  0  0     1.900     24
            1  0  1  0     1.900     25
            0  2  0  0     1.900     26
            0  1  1  0     1.900     27
            0  0  2  0     1.900     28

 O                                    2    3    4    5
                                  ---------------------------------------------------------------------------
            0  0  0  0     9.800     29   49   69   89
            0  0  0  0     6.800     30   50   70   90
            0  0  0  1     7.580     31   51   71   91
            0  0  0  1     2.880     32   52   72   92
            0  0  0  1     1.720     33   53   73   93
            1  0  0  0     4.080     34   54   74   94
            0  1  0  0     4.080     35   55   75   95
            0  0  1  0     4.080     36   56   76   96
            1  0  0  0     2.080     37   57   77   97
            0  1  0  0     2.080     38   58   78   98
            0  0  1  0     2.080     39   59   79   99
            1  0  0  0     1.120     40   60   80  100
            0  1  0  0     1.120     41   61   81  101
            0  0  1  0     1.120     42   62   82  102
            2  0  0  0     2.000     43   63   83  103
            1  1  0  0     2.000     44   64   84  104
            1  0  1  0     2.000     45   65   85  105
            0  2  0  0     2.000     46   66   86  106
            0  1  1  0     2.000     47   67   87  107
            0  0  2  0     2.000     48   68   88  108

 H                                    6    7    8
                                  ---------------------------------------------------------------------------
            0  0  0  0     0.690    109  115  121
            0  0  0  0     0.920    110  116  122
            0  0  0  0     1.580    111  117  123
            1  0  0  0     1.250    112  118  124
            0  1  0  0     1.250    113  119  125
            0  0  1  0     1.250    114  120  126

 Total number of charge fitting functions (nprimf)       592
 Total number of Cartesian basis functions (naos)        126
 Total number of Cartesian core functions  (ncos)          0

1
 ***************************************************************************************************



                                              ***********************
                                              *  T E C H N I C A L  *
                                              ***********************
  



 =============================================================
 P A R A L L E L I Z A T I O N  and  V E C T O R I Z A T I O N
 =============================================================
  
 Nr of parallel processes:                                4
 Maximum vector length in NumInt loops:                 128



 =====================
 S C F   U P D A T E S
 =====================
  
 Max. nr. of cycles:                               300
 Convergence criterion:                              0.0000010000
   secondary criterion:                              0.0010000000

 Mix parameter (when DIIS does not apply):           0.2000000000
 Mixed ADIIS+SDIIS will be used                  
    Max number of expansion vectors:                10
    Pure ADIIS when Max([F,P]) is above              0.1000000000
    Pure SDIIS when Max([F,P]) is below              0.0010000000
 Automatic ElectronSmearing (in case of problematic SCF convergence) disabled



 =================
 P R E C I S I O N  ***  (General: NumInt, NeglectFunctionTails, ...)  ***
 =================
  

 NumInt:           Target precision:                 6.0000000000
 -------           Initial precision:                6.0000000000
                   Min. precision (optimization):    6.0000000000

 Neglect Functions:          Basis functions:        0.1000000000E-07
 ------------------          Fit functions:          0.1000000000E-07



 ===========================
 L I N E A R   S C A L I N G
 ===========================
  

 Cut-off radii density fit:                        0.1000000000E-09
 Overlap cut-off criterion AO matrix elements:     0.1000000000E-07
 Cut-offs for Coulomb potential and fitted density:0.1000000000E-09
 Cut-off criterion for Coulomb multipole terms:    0.1000000000E-09
 Progressive Convergence parameter:                 0.000000000    

 Number of elements of the density matrix on this node (used, total):      2053      8001



 ===========================================
 Numerical Integration : Fuzzy Cells (Becke)
 ===========================================
  
 Becke grid quality: GOOD           
  
 Lebedev angular grid order:             min:  11 max:  31
 Nr. of radial points:                   min:  54 max:  76

 Total nr. of points:     101650
 Nr. of blocks:              795
 Block length:               128
 Nr. of dummy points:        110


 Test of Precision of the Numerical Integration Grid
 ===================================================

 Integral of the Total Core Density:                   0.00000000000000


 -------------------------------------------
  COSMO surface
  Area             =          351.767
  Volume           =          526.866
  Number of Points =          944
 -------------------------------------------



 ========================
 Density Fitting (zlmFit)
 ========================
  
 ZlmFit Fit Quality: GOOD           
  
 Max L-expansion:                        min:   7 max:   8
 Nr. of radial interpolation points:     min:  72 max: 126



 ======================
 RI Hartree-Fock Scheme
 ======================
  
 Fit Set Quality     : GOOD
 Integration Quality : GOOD
 Threshold Quality   : GOOD
 Response Quality    : DEFAULT
 Is Range Separated  :  F
 
 RIHartreeFock Dependency: number of modified vectors:           3



 =====
 S C F  ***  ScaSCF  ***
 =====
  
 Initial density matrix is taken from previous geometry

 CYCLE    1
  ***********************************************************
  ** : orbital data taken from :/tmp/amstmp_ams_kid0.996303329/GOStep5.rkf
  ***********************************************************
 SCF Error: norm([F,P])=      0.059869969115, max([F,P])=      0.014154139472
 orbitals (Q,E):
 ---------------
 A :16...35          ( 2.00    -0.5945)  ( 2.00    -0.5058)  ( 2.00    -0.4682)  ( 2.00    -0.4682)
                     ( 2.00    -0.4133)  ( 2.00    -0.4133)  ( 2.00    -0.3974)  ( 2.00    -0.3760)
                     ( 2.00    -0.3182)  ( 2.00    -0.3182)  ( 0.00    -0.0160)  ( 0.00     0.0245)
                     ( 0.00     0.0245)  ( 0.00     0.1054)  ( 0.00     0.1247)  ( 0.00     0.1247)
                     ( 0.00     0.1353)  ( 0.00     0.1635)  ( 0.00     0.1635)  ( 0.00     0.1662)

 CYCLE    2
  SDIIS (wt  0.000):  0.6300  0.3700
 A-DIIS (wt  1.000):  0.6465  0.3535
  DIIS coefficients:  0.6465  0.3535
 SCF Error: norm([F,P])=      0.097761435571, max([F,P])=      0.028490064256
 orbitals (Q,E):
 ---------------
 A :16...26          ( 2.00    -0.5919)  ( 2.00    -0.5108)  ( 2.00    -0.4690)  ( 2.00    -0.4690)
                     ( 2.00    -0.4131)  ( 2.00    -0.4131)  ( 2.00    -0.4067)  ( 2.00    -0.3778)
                     ( 2.00    -0.3298)  ( 2.00    -0.3298)  ( 0.00    -0.0111)

 CYCLE    3
  SDIIS (wt  0.000):  0.4403  0.1416  0.4181
 A-DIIS (wt  1.000):  0.3190  0.0000  0.6810
  DIIS coefficients:  0.3190  0.0000  0.6810
 SCF Error: norm([F,P])=      0.039361347415, max([F,P])=      0.009196174981
 orbitals (Q,E):
 ---------------
 A :16...26          ( 2.00    -0.5906)  ( 2.00    -0.5121)  ( 2.00    -0.4693)  ( 2.00    -0.4693)
                     ( 2.00    -0.4130)  ( 2.00    -0.4130)  ( 2.00    -0.4084)  ( 2.00    -0.3777)
                     ( 2.00    -0.3307)  ( 2.00    -0.3307)  ( 0.00    -0.0069)

 CYCLE    4
  SDIIS (wt  0.922): -0.3234  0.1884  1.1350
 A-DIIS (wt  0.078):  0.0000  0.0000  1.0000
  DIIS coefficients: -0.2983  0.1738  1.1245
 SCF Error: norm([F,P])=      0.027739255776, max([F,P])=      0.008693981601
 orbitals (Q,E):
 ---------------
 A :16...26          ( 2.00    -0.5883)  ( 2.00    -0.5149)  ( 2.00    -0.4691)  ( 2.00    -0.4691)
                     ( 2.00    -0.4138)  ( 2.00    -0.4119)  ( 2.00    -0.4119)  ( 2.00    -0.3767)
                     ( 2.00    -0.3375)  ( 2.00    -0.3375)  ( 0.00    -0.0030)

 CYCLE    5
  SDIIS (wt  0.987): -0.1132 -0.0527  0.5611  0.6048
 A-DIIS (wt  0.013):  0.0000  0.0000  0.0000  1.0000
  DIIS coefficients: -0.1117 -0.0520  0.5536  0.6102
 SCF Error: norm([F,P])=      0.011904764345, max([F,P])=      0.002329415681
 orbitals (Q,E):
 ---------------
 A :16...26          ( 2.00    -0.5895)  ( 2.00    -0.5152)  ( 2.00    -0.4700)  ( 2.00    -0.4700)
                     ( 2.00    -0.4137)  ( 2.00    -0.4130)  ( 2.00    -0.4130)  ( 2.00    -0.3779)
                     ( 2.00    -0.3369)  ( 2.00    -0.3369)  ( 0.00    -0.0032)

 CYCLE    6
  SDIIS (wt  1.000):  0.0002 -0.0496  0.0740  0.2924  0.6830
  DIIS coefficients:  0.0002 -0.0496  0.0740  0.2924  0.6830
 SCF Error: norm([F,P])=      0.003553386976, max([F,P])=      0.000585895548
 orbitals (Q,E):
 ---------------
 A :16...26          ( 2.00    -0.5893)  ( 2.00    -0.5151)  ( 2.00    -0.4698)  ( 2.00    -0.4698)
                     ( 2.00    -0.4136)  ( 2.00    -0.4128)  ( 2.00    -0.4128)  ( 2.00    -0.3776)
                     ( 2.00    -0.3368)  ( 2.00    -0.3368)  ( 0.00    -0.0031)

 CYCLE    7
  SDIIS (wt  1.000):  0.0014 -0.0005 -0.0099  0.0247  0.0991  0.8851
  DIIS coefficients:  0.0014 -0.0005 -0.0099  0.0247  0.0991  0.8851
 SCF Error: norm([F,P])=      0.000404724215, max([F,P])=      0.000095492348
 orbitals (Q,E):
 ---------------
 A :16...26          ( 2.00    -0.5893)  ( 2.00    -0.5151)  ( 2.00    -0.4698)  ( 2.00    -0.4698)
                     ( 2.00    -0.4136)  ( 2.00    -0.4128)  ( 2.00    -0.4128)  ( 2.00    -0.3776)
                     ( 2.00    -0.3368)  ( 2.00    -0.3368)  ( 0.00    -0.0031)

 CYCLE    8
  SDIIS (wt  1.000):  0.0003  0.0015 -0.0052  0.0011  0.0164  0.3399  0.6459
  DIIS coefficients:  0.0003  0.0015 -0.0052  0.0011  0.0164  0.3399  0.6459
 SCF Error: norm([F,P])=      0.000109444400, max([F,P])=      0.000018620483
 orbitals (Q,E):
 ---------------
 A :16...26          ( 2.00    -0.5893)  ( 2.00    -0.5151)  ( 2.00    -0.4698)  ( 2.00    -0.4698)
                     ( 2.00    -0.4136)  ( 2.00    -0.4128)  ( 2.00    -0.4128)  ( 2.00    -0.3776)
                     ( 2.00    -0.3368)  ( 2.00    -0.3368)  ( 0.00    -0.0031)

 CYCLE    9
  SDIIS (wt  1.000):  0.0000  0.0000 -0.0002 -0.0007 -0.0013  0.0137  0.1258  0.8626
  DIIS coefficients:  0.0000  0.0000 -0.0002 -0.0007 -0.0013  0.0137  0.1258  0.8626
 SCF Error: norm([F,P])=      0.000016067411, max([F,P])=      0.000003863209
 orbitals (Q,E):
 ---------------
 A :16...26          ( 2.00    -0.5893)  ( 2.00    -0.5151)  ( 2.00    -0.4698)  ( 2.00    -0.4698)
                     ( 2.00    -0.4136)  ( 2.00    -0.4128)  ( 2.00    -0.4128)  ( 2.00    -0.3776)
                     ( 2.00    -0.3368)  ( 2.00    -0.3368)  ( 0.00    -0.0031)

 CYCLE   10
  SDIIS (wt  1.000):  0.0000 -0.0000  0.0001 -0.0002 -0.0007 -0.0055  0.0099  0.1529  0.8436
  DIIS coefficients:  0.0000 -0.0000  0.0001 -0.0002 -0.0007 -0.0055  0.0099  0.1529  0.8436
 SCF Error: norm([F,P])=      0.000001631496, max([F,P])=      0.000000409201
 orbitals (Q,E):
 ---------------
 A :16...26          ( 2.00    -0.5893)  ( 2.00    -0.5151)  ( 2.00    -0.4698)  ( 2.00    -0.4698)
                     ( 2.00    -0.4136)  ( 2.00    -0.4128)  ( 2.00    -0.4128)  ( 2.00    -0.3776)
                     ( 2.00    -0.3368)  ( 2.00    -0.3368)  ( 0.00    -0.0031)

 SCF CONVERGED
 cosmo_calcen: 0.5 (esolb+esolc) (Hartrees) =   -0.020164

 Solvation energy (screening term,uncorrected) =    -12.653358 kcal/mol

 Solvation energy (dispersion and cavitation terms) =      0.527469 kcal/mol
 Solvation Energy Contributions (Hartrees)
          esola   esolb+esolc
     0.02016441   -0.04032881
 esol last cycle   -0.02016441

 CYCLE   11
1
 ***************************************************************************************************



                                                *******************
                                                *  R E S U L T S  *
                                                *******************
  
  
 Hartree-Fock exchange energy:   -56.9279855157566     
 *** Using FIT density in Focky
  SDIIS (wt  1.000):  0.0000 -0.0000  0.0000 -0.0000 -0.0001 -0.0014 -0.0014  0.0132  0.1678  0.8220
  DIIS coefficients:  0.0000 -0.0000  0.0000 -0.0000 -0.0001 -0.0014 -0.0014  0.0132  0.1678  0.8220
 SCF Error: norm([F,P])=      0.000000371614, max([F,P])=      0.000000072017

 Scaled ZORA Orbital Energies, per Irrep and Spin:
 =================================================
                        Occup              E (au)              E (eV)       Diff (eV) with prev. cycle
                        -----      --------------------        ------       --------------------------
 A
              16        2.000     -0.58932828015493E+00       -16.036              -1.34E-06
              17        2.000     -0.51506920364889E+00       -14.016              -5.59E-07
              18        2.000     -0.46982281301458E+00       -12.785               2.59E-07
              19        2.000     -0.46981123758948E+00       -12.784              -1.19E-06
              20        2.000     -0.41356941388609E+00       -11.254              -6.32E-07
              21        2.000     -0.41277024039411E+00       -11.232              -1.19E-06
              22        2.000     -0.41276169868108E+00       -11.232               1.92E-07
              23        2.000     -0.37760486258608E+00       -10.275              -4.66E-07
              24        2.000     -0.33684583238014E+00        -9.166              -6.38E-07
              25        2.000     -0.33684206889566E+00        -9.166              -6.70E-07
              26        0.000     -0.30733974979868E-02        -0.084
              27        0.000      0.42874367990257E-01         1.167
              28        0.000      0.42883241846807E-01         1.167
              29        0.000      0.96395161453103E-01         2.623
              30        0.000      0.12977099107934E+00         3.531
              31        0.000      0.12978739789296E+00         3.532
              32        0.000      0.13491099112394E+00         3.671
              33        0.000      0.16215028617650E+00         4.412
              34        0.000      0.16215667258836E+00         4.413
              35        0.000      0.17114480685462E+00         4.657
  
 HOMO :       25 A                -0.33684206889566E+00
 LUMO :       26 A                -0.30733974979868E-02
  
 cosmo_calcen: 0.5 (esolb+esolc) (Hartrees) =   -0.020164

 Solvation energy (screening term,uncorrected) =    -12.653358 kcal/mol

 Solvation energy (dispersion and cavitation terms) =      0.527469 kcal/mol
 Solvation Energy Contributions (Hartrees)
          esola   esolb+esolc
     0.02016441   -0.04032881
 esol last cycle   -0.02016441


 All Electron Calculation, thus no Orbital Energies of the Core Orbitals are calculated


 Fit test: (difference of exact and fit density, squared integrated, result summed over spins)
         Sum-of-Fragments:                             0.00000000416090
         Orthogonalized Fragments:                     0.00009741175674
         SCF:                                          0.00004769310080



 ==========================
 Electron Density at Nuclei
 ==========================
  
 The electron density is calculated at points on a small sphere around the center of a nucleus.
 The printed electron density is the average electron density on these points.
 The radius of the sphere is the printed approximate finite nuclear radius.
 Note: ZORA-4 density is used, which includes small component density

         Atom        Nuclear Radius (Angstrom)             Electron Density (a.u.)
         ----        -------------------------             -----------------------
     1)   P                 0.0000412627                             2231.34104
     2)   O                 0.0000345546                              312.57660
     3)   O                 0.0000345546                              312.57639
     4)   O                 0.0000345546                              312.57731
     5)   O                 0.0000345546                              312.86590
     6)   H                 0.0000181514                                0.45698
     7)   H                 0.0000181514                                0.45697
     8)   H                 0.0000181514                                0.45696



 =======================================
 M U L L I K E N   P O P U L A T I O N S
 =======================================
  
 The survey below gives for each atom:
 a) the total charge (Z minus electrons)
 b) the net spin polarization (nr of electrons spin-A minus spin-B)
 c) for each spin the atomic electron valence density (integrated) per L-value.

 Atom              Charge    Spin density          S         P         D         F
 ----              ------    ------------       ------    ------    ------    ------
 1 P               1.9347                       4.6087    7.6141    0.8425    0.0000
 2 O              -0.6487                       3.7963    4.8105    0.0419    0.0000
 3 O              -0.6485                       3.7962    4.8104    0.0419    0.0000
 4 O              -0.6486                       3.7963    4.8105    0.0419    0.0000
 5 O              -0.8498                       3.8645    4.9419    0.0434    0.0000
 6 H               0.2870                       0.6132    0.0998    0.0000    0.0000
 7 H               0.2869                       0.6133    0.0998    0.0000    0.0000
 8 H               0.2869                       0.6133    0.0998    0.0000    0.0000

 Populations of individual BAS functions
 ----------------------------------------
 1 P            0.5728  1.3886  1.4156  0.6005  0.7926  0.7926  0.7955  1.2102  1.2102  1.2062
                0.3816  0.5903 -0.3408  0.3596  0.3596  0.4050  0.2573  0.2573  0.1761 -0.0863
               -0.0863 -0.0353  0.0890  0.1378  0.2015  0.0890  0.2015  0.1237
 2 O            0.6414  1.3375 -0.0079  0.9970  0.8282  0.2249  0.2921  0.2810  0.9170  0.9856
                0.9676  0.1900  0.4984  0.4539  0.0311  0.0085  0.0158 -0.0139  0.0082 -0.0077
 3 O            0.6414  1.3376 -0.0079  0.9971  0.8280  0.2816  0.2353  0.2810  0.9742  0.9285
                0.9676  0.4529  0.2355  0.4539 -0.0014  0.0050  0.0083  0.0220  0.0157 -0.0077
 4 O            0.6416  1.3372 -0.0078  0.9971  0.8281  0.2689  0.2480  0.2810  0.9627  0.9399
                0.9675  0.3898  0.2986  0.4539 -0.0007  0.0054  0.0119  0.0209  0.0121 -0.0077
 5 O            0.6347  1.3431 -0.0063  1.0042  0.8888  0.2793  0.2793  0.2527  0.8846  0.8846
                0.8472  0.5731  0.5731  0.3679 -0.0081  0.0000  0.0141 -0.0081  0.0141  0.0314
 6 H            0.0224  0.1989  0.3920  0.0283  0.0374  0.0341
 7 H            0.0223  0.1990  0.3919  0.0344  0.0313  0.0341
 8 H            0.0223  0.1991  0.3919  0.0358  0.0298  0.0341

 Gross Charges per Atom (Z minus electrons)
 ==========================================
             1.9347   -0.6487   -0.6485   -0.6486   -0.8498    0.2870    0.2869    0.2869
 Net Total: -0.00000000


 Atom-Atom Population Matrix (off-diagonal elements not doubled)
 ===============================================================

     1 :    11.6355
     2 :     0.3148    8.0755
     3 :     0.3148   -0.0468    8.0753
     4 :     0.3148   -0.0468   -0.0468    8.0754
     5 :     0.6026   -0.0462   -0.0463   -0.0462    8.3915
     6 :    -0.0391    0.3881    0.0060    0.0042   -0.0019    0.3515
     7 :    -0.0391    0.0042    0.3881    0.0060   -0.0019    0.0021    0.3515
     8 :    -0.0391    0.0060    0.0042    0.3881   -0.0019    0.0021    0.0021    0.3516



 =================================================
 H I R S H F E L D   C H A R G E   A N A L Y S I S
 =================================================
  
 For each fragment: the (numerical) integral of rho(scf) * rho(fragment)/rho(sum-of-fragments)
 (nuclear charges are included, electrons are counted negative)

 The fragments and their ordering are defined in the early G E O M E T R Y output section.
 If you use single-atom fragments, this usually implies that all atoms of the same
 chemical type are grouped together. This may not be the order in which you listed them
 in the input file!

    1  P                         0.5288
    2  O                        -0.2357
    3  O                        -0.2357
    4  O                        -0.2357
    5  O                        -0.4489
    6  H                         0.2091
    7  H                         0.2090
    8  H                         0.2090

 Sum of these charges (accuracy NumInt/Tails) =          -0.00004034



 =============================
 V O R O N O I   C H A R G E S
 =============================
  
 For each atom: the (numerical) integral of the total electronic charge density in its Voronoi cell,
 i.e. the region of space that is closer to that atom than to any other atom.
 (cf. Wigner-Seitz cells in crystals)

 Within the Voronoi cell the subintegrals over the atomic sphere and the remaining part are evaluated
 separately to give the numbers of electrons (negative charge) in these regions.
 The net total charge in the cell (including the nuclear charge) is also given.

 Values are provided for
    a) the Initial (sum-of-fragments) density
    b) the Orthogonalized-Fragments density
    c) the SCF density
    d) the Voronoi Deformation Density (VDD): the difference SCF-Initial for the complete atomic cell


  Atom                Initial                    OrthFrag                   SCF
             Sphere RestCell NetTotal   Sphere RestCell NetTotal   Sphere RestCell NetTotal      VDD
[...]
                                   10.99%     1 P:z            -9.955  1.33     4 O
                                    8.68%     1 P:z            -9.955  1.33     2 O
                                    6.25%     1 P:y            -9.955  1.33     2 O
                                    4.78%     1 P:y            -9.955  1.33     5 O
                                    2.43%     1 D:xy           11.981  0.00     1 P
                                    1.87%     1 D:yz           11.981  0.00     1 P
                                    1.47%     1 D:x2-y2        11.981  0.00     1 P
     -10.275  2.00    23 A         24.83%     1 P:y            -9.955  1.33     2 O
                                   20.08%     1 P:x            -9.955  1.33     4 O
                                   17.20%     1 P:x            -9.955  1.33     3 O
                                    7.70%     1 P:y            -9.955  1.33     3 O
                                    5.16%     1 P:z            -9.955  1.33     4 O
                                    5.15%     1 P:z            -9.955  1.33     2 O
                                    5.15%     1 P:z            -9.955  1.33     3 O
                                    4.84%     1 P:y            -9.955  1.33     4 O
                                    4.31%     1 P:z            -9.955  1.33     5 O
                                    1.85%     1 D:z2           11.981  0.00     1 P
      -9.166  2.00    24 A         51.75%     1 P:y            -9.955  1.33     5 O
                                   20.73%     1 P:x            -9.955  1.33     5 O
                                   10.27%     1 P:z            -9.955  1.33     4 O
                                    7.46%     1 P:z            -9.955  1.33     2 O
                                    3.22%     1 D:yz           11.981  0.00     1 P
                                    1.51%     1 P:y            -9.955  1.33     2 O
      -9.166  2.00    25 A         51.75%     1 P:x            -9.955  1.33     5 O
                                   20.73%     1 P:y            -9.955  1.33     5 O
                                   11.75%     1 P:z            -9.955  1.33     3 O
                                    4.51%     1 P:z            -9.955  1.33     2 O
                                    3.22%     1 D:xz           11.981  0.00     1 P
                                    1.70%     1 P:z            -9.955  1.33     4 O
                                    1.55%     1 P:x            -9.955  1.33     4 O
      -0.084  0.00    26 A         19.22%     1 S              -6.581  1.00     7 H
                                   19.21%     1 S              -6.581  1.00     8 H
                                   19.20%     1 S              -6.581  1.00     6 H
                                   17.59%     2 S               3.073  0.00     7 H
                                   17.59%     2 S               3.073  0.00     8 H
                                   17.58%     2 S               3.073  0.00     6 H
                                   -8.57%     4 S               3.817  0.00     1 P
                                   -1.61%     3 S              23.286  0.00     4 O
                                   -1.61%     3 S              23.286  0.00     3 O
                                   -1.61%     3 S              23.286  0.00     2 O
                                   -1.15%     3 S              23.286  0.00     5 O
                                   -1.03%     3 S             -15.778  2.00     1 P
       1.167  0.00    27 A         34.33%     1 S              -6.581  1.00     7 H
                                   21.93%     1 S              -6.581  1.00     8 H
                                   21.50%     2 S               3.073  0.00     7 H
                                   13.48%     2 S               3.073  0.00     8 H
                                   -3.44%     2 P:y            10.811  0.00     3 O
                                    2.78%     3 P:y             2.910  0.00     1 P
                                    2.42%     1 P:y            12.103  0.00     7 H
                                   -1.79%     2 P:y            10.811  0.00     4 O
                                    1.32%     1 S              -6.581  1.00     6 H
                                    1.23%     1 P:x            12.103  0.00     8 H
                                    1.15%     4 P:y            25.153  0.00     1 P
                                   -1.09%     2 P:y            -5.658  1.00     1 P
                                    1.05%     1 P:y            -9.955  1.33     3 O
                                   -1.00%     3 S              23.286  0.00     3 O
       1.167  0.00    28 A         37.08%     1 S              -6.581  1.00     6 H
                                   23.03%     2 S               3.073  0.00     6 H
                                   16.45%     1 S              -6.581  1.00     8 H
                                   10.45%     2 S               3.073  0.00     8 H
                                    4.05%     1 S              -6.581  1.00     7 H
                                   -3.72%     2 P:x            10.811  0.00     2 O
                                    2.78%     3 P:x             2.910  0.00     1 P
                                    2.58%     1 P:x            12.103  0.00     6 H
                                    2.43%     2 S               3.073  0.00     7 H
                                   -1.27%     2 P:x            10.811  0.00     4 O
                                    1.15%     4 P:x            25.153  0.00     1 P
                                   -1.09%     2 P:x            -5.658  1.00     1 P
                                    1.05%     1 P:x            -9.955  1.33     2 O
                                   -1.05%     3 S              23.286  0.00     2 O
       2.623  0.00    29 A         81.90%     3 P:z             2.910  0.00     1 P
                                   34.49%     2 P:z            -5.658  1.00     1 P
                                   -5.19%     2 P:z            10.811  0.00     2 O
                                   -5.19%     2 P:z            10.811  0.00     4 O
                                   -5.19%     2 P:z            10.811  0.00     3 O
                                   -4.16%     3 S              23.286  0.00     5 O
                                   -2.35%     2 P:z            10.811  0.00     5 O
                                    1.63%     1 D:z2           11.981  0.00     1 P
                                    1.30%     2 S             -27.198  2.00     5 O
                                   -1.21%     4 P:z            25.153  0.00     1 P
       3.531  0.00    30 A         66.63%     2 P:x            -5.658  1.00     1 P
                                   41.15%     3 P:x             2.910  0.00     1 P
                                  -10.02%     2 S               3.073  0.00     6 H
                                    9.59%     1 S              -6.581  1.00     6 H
                                   -8.80%     2 P:x            10.811  0.00     5 O
                                   -7.28%     2 P:y            10.811  0.00     3 O
                                    5.75%     1 P:x            -9.955  1.33     5 O
                                   -3.98%     2 P:x            10.811  0.00     4 O
                                   -3.34%     2 S               3.073  0.00     7 H
                                   -2.70%     2 P:x            10.811  0.00     2 O
                                    2.66%     2 P:y            -5.658  1.00     1 P
                                    2.61%     1 P:y            -9.955  1.33     3 O
                                    2.34%     1 S              -6.581  1.00     8 H
                                    2.30%     1 S              -6.581  1.00     7 H
                                    1.90%     1 D:xy           11.981  0.00     1 P
                                   -1.71%     2 S               3.073  0.00     8 H
                                    1.48%     1 P:x            -9.955  1.33     2 O
                                   -1.47%     1 P:x            12.103  0.00     6 H
                                    1.46%     1 P:x            -9.955  1.33     4 O
                                   -1.10%     1 P:y            12.103  0.00     7 H
                                    1.09%     1 D:xz           11.981  0.00     1 P
       3.532  0.00    31 A         66.61%     2 P:y            -5.658  1.00     1 P
                                   41.15%     3 P:y             2.910  0.00     1 P
                                   -8.80%     2 P:y            10.811  0.00     5 O
                                   -8.35%     2 S               3.073  0.00     8 H
                                   -7.33%     2 P:y            10.811  0.00     2 O
                                    7.19%     1 S              -6.581  1.00     7 H
                                    7.17%     1 S              -6.581  1.00     8 H
                                   -6.72%     2 S               3.073  0.00     7 H
                                    5.74%     1 P:y            -9.955  1.33     5 O
                                   -5.32%     2 P:x            10.811  0.00     4 O
                                    2.66%     2 P:x            -5.658  1.00     1 P
                                   -2.25%     2 P:x            10.811  0.00     3 O
                                    1.90%     1 D:x2-y2        11.981  0.00     1 P
                                    1.55%     1 P:y            -9.955  1.33     2 O
                                    1.39%     1 P:x            -9.955  1.33     3 O
                                    1.26%     1 P:y            -9.955  1.33     4 O
                                    1.09%     1 D:yz           11.981  0.00     1 P
       3.671  0.00    32 A         54.22%     3 S             -15.778  2.00     1 P
                                   21.51%     3 P:z             2.910  0.00     1 P
                                   12.50%     1 P:z            -9.955  1.33     5 O
                                   11.07%     1 D:z2           11.981  0.00     1 P
                                   -9.01%     2 P:z            10.811  0.00     5 O
                                   -5.71%     3 S              23.286  0.00     5 O
                                    5.14%     2 P:z            -5.658  1.00     1 P
                                   -4.07%     2 P:x            10.811  0.00     2 O
                                    3.92%     1 S              -6.581  1.00     6 H
                                    3.89%     1 S              -6.581  1.00     7 H
                                    3.88%     1 S              -6.581  1.00     8 H
                                    3.62%     4 S               3.817  0.00     1 P
                                   -3.28%     2 P:y            10.811  0.00     3 O
                                   -2.79%     2 P:y            10.811  0.00     4 O
                                    2.54%     1 P:x            -9.955  1.33     2 O
                                    2.46%     1 P:y            -9.955  1.33     3 O
                                    2.04%     2 S             -27.198  2.00     5 O
                                   -2.01%     5 S              37.549  0.00     1 P
                                   -1.86%     2 S               3.073  0.00     6 H
                                   -1.83%     2 S               3.073  0.00     7 H
                                   -1.81%     2 S               3.073  0.00     8 H
                                    1.40%     1 P:y            -9.955  1.33     4 O
                                   -1.29%     2 P:x            10.811  0.00     4 O
                                    1.27%     1 P:x            -9.955  1.33     4 O
       4.412  0.00    33 A         45.40%     3 P:y             2.910  0.00     1 P
                                   20.35%     2 P:y            -5.658  1.00     1 P
                                    7.25%     3 P:x             2.910  0.00     1 P
                                    4.99%     1 P:y            -9.955  1.33     5 O
                                    4.60%     1 P:x            -9.955  1.33     3 O
                                    3.86%     1 D:xy           11.981  0.00     1 P
                                    3.44%     2 S               3.073  0.00     6 H
                                   -2.59%     2 S               3.073  0.00     7 H
                                    2.49%     1 D:x2-y2        11.981  0.00     1 P
                                   -2.36%     2 P:y            10.811  0.00     4 O
                                   -2.14%     2 P:x            10.811  0.00     3 O
                                    2.11%     1 P:z            -9.955  1.33     4 O
                                    1.72%     1 S              -6.581  1.00     7 H
                                    1.70%     1 P:z            -9.955  1.33     3 O
                                    1.66%     1 P:y            -9.955  1.33     2 O
                                   -1.64%     3 S              23.286  0.00     3 O
                                    1.53%     1 P:y            -9.955  1.33     4 O
                                    1.52%     3 S              43.500  0.00     7 H
                                   -1.40%     2 P:x            -5.658  1.00     1 P
                                    1.30%     1 D:yz           11.981  0.00     1 P
                                   -1.19%     3 S              23.286  0.00     4 O
                                    1.02%     2 S             -27.198  2.00     4 O
       4.413  0.00    34 A         45.42%     3 P:x             2.910  0.00     1 P
                                   20.34%     2 P:x            -5.658  1.00     1 P
                                    7.26%     3 P:y             2.910  0.00     1 P
                                    4.99%     1 P:x            -9.955  1.33     5 O
                                    3.86%     1 D:x2-y2        11.981  0.00     1 P
                                    3.82%     2 S               3.073  0.00     7 H
                                    2.96%     1 P:y            -9.955  1.33     4 O
                                    2.88%     1 P:x            -9.955  1.33     2 O
                                    2.54%     1 P:z            -9.955  1.33     2 O
                                    2.49%     1 D:xy           11.981  0.00     1 P
                                   -2.21%     2 S               3.073  0.00     6 H
                                   -2.01%     2 P:y            10.811  0.00     2 O
                                   -1.87%     3 S              23.286  0.00     2 O
                                    1.63%     1 S              -6.581  1.00     6 H
                                    1.48%     3 S              43.500  0.00     8 H
                                   -1.40%     2 P:y            -5.658  1.00     1 P
                                    1.30%     1 D:xz           11.981  0.00     1 P
                                    1.10%     2 S             -27.198  2.00     2 O
                                   -1.01%     2 P:x            10.811  0.00     2 O
       4.657  0.00    35 A         51.19%     3 S             -15.778  2.00     1 P
                                   15.27%     2 P:z            -5.658  1.00     1 P
                                  -13.02%     4 S               3.817  0.00     1 P
                                   10.92%     2 S               3.073  0.00     6 H
                                   10.92%     2 S               3.073  0.00     7 H
                                   10.91%     2 S               3.073  0.00     8 H
                                    5.11%     1 P:y            -9.955  1.33     4 O
                                    4.21%     3 P:z             2.910  0.00     1 P
                                    4.00%     1 P:x            -9.955  1.33     3 O
                                   -3.75%     2 P:y            10.811  0.00     4 O
                                    3.65%     1 P:x            -9.955  1.33     2 O
                                   -3.33%     2 P:x            10.811  0.00     2 O
                                    3.18%     2 S             -27.198  2.00     3 O
                                    3.18%     2 S             -27.198  2.00     2 O
                                    3.18%     2 S             -27.198  2.00     4 O
                                   -2.73%     3 S              23.286  0.00     3 O
                                   -2.73%     3 S              23.286  0.00     2 O
                                   -2.73%     3 S              23.286  0.00     4 O
                                    2.67%     1 D:z2           11.981  0.00     1 P
                                   -2.54%     5 S              37.549  0.00     1 P
                                   -2.32%     2 P:x            10.811  0.00     3 O
                                   -1.47%     2 P:y            10.811  0.00     3 O
                                    1.43%     1 P:y            -9.955  1.33     2 O
                                    1.08%     1 P:y            -9.955  1.33     3 O

 Energy gradients wrt nuclear displacements
 ==========================================

     Atom      Cartesian (a.u./angstrom)
                 X         Y         Z
 ----------------------------------------
     1 P    -0.000037 -0.000108 -0.000227
     2 O    -0.000087 -0.000109 -0.000007
     3 O     0.000146  0.000016 -0.000017
     4 O    -0.000057  0.000124  0.000047
     5 O     0.000005  0.000013  0.000111
     6 H     0.000019  0.000002  0.000013
     7 H     0.000037  0.000060  0.000030
     8 H    -0.000026  0.000000  0.000049
 ----------------------------------------



 =======================================================================
 Electrostatic potential at the Nuclei due to electrons and other nuclei
 =======================================================================
  
         Atom                  Potential
         ----                  ---------
     1)   P                  54.31233174
     2)   O                  22.32985525
     3)   O                  22.32985518
     4)   O                  22.32979540
     5)   O                  22.43588983
     6)   H                   0.91631152
     7)   H                   0.91628085
     8)   H                   0.91629766
 Mulliken charges used for AMS results%charges...


    =====================
     CALCULATION RESULTS
    =====================

Energy (hartree)            -2.22792161

Gradients (hartree/bohr)
  Index   Atom            d/dx            d/dy            d/dz
      1      P   -0.0000195242   -0.0000570212   -0.0001199834
      2      O   -0.0000462961   -0.0000576956   -0.0000035396
      3      O    0.0000774957    0.0000086507   -0.0000091028
      4      O   -0.0000303749    0.0000658393    0.0000250393
      5      O    0.0000023832    0.0000069334    0.0000589190
      6      H    0.0000102769    0.0000012291    0.0000071125
      7      H    0.0000197586    0.0000318696    0.0000156129
      8      H   -0.0000137193    0.0000001946    0.0000259421


--------------
Atomic charges
--------------
  Index   Atom    Charge
      1      P    1.9347
      2      O   -0.6487
      3      O   -0.6485
      4      O   -0.6486
      5      O   -0.8498
      6      H    0.2870
      7      H    0.2869
      8      H    0.2869


Dipole moment vector    (Debye):    -0.00023587   -0.00003057    0.85458804
              magnitude (Debye):     0.85458807


AMS application finished. Exiting.
NORMAL TERMINATION
     Total cpu time:     174.60
  Total system time:       2.22
 Total elapsed time:     179.08
