

 Parallel Execution: Process Information
 ==============================================================================
 Rank   Node Name                              NodeID   MyNodeRank  NodeMaster
    0   adf1                                      0          0          0
    1   adf1                                      0          1         -1
    2   adf1                                      0          2         -1
    3   adf1                                      0          3         -1
    4   adf1                                      0          4         -1
    5   adf1                                      0          5         -1
    6   adf1                                      0          6         -1
    7   adf1                                      0          7         -1
    8   adf1                                      0          8         -1
    9   adf1                                      0          9         -1
   10   adf1                                      0         10         -1
   11   adf1                                      0         11         -1
 ==============================================================================


May use up to 22932MB of RAM as shared memory on node 0

 *******************************************************************************
 *                                                                             *
 *  --------------------------------                                           *
 *   Amsterdam Modeling Suite (AMS)              2020.202                      *
 *  --------------------------------                                           *
 *                                               r90167 2020-12-05             *
 *                                                                             *
 *                                                                             *
 *                              =================                              *
 *                              |               |                              *
 *                              |     A M S     |                              *
 *                              |               |                              *
 *                              =================                              *
 *                                                                             *
 *                                                                             *
 *   Online information and documentation:  https://www.scm.com/support/       *
 *   E-mail:  support@scm.com   info@scm.com                                   *
 *                                                                             *
 *   Scientific publications using AMS results must be properly referenced     *
 *   See the User Manuals (or the web site) for recommended citations          *
 *   The terms and conditions of the End User License Agreement apply to       *
 *   the use of AMS, https://www.scm.com/license-terms/                        *
 *                                                                             *
 **********************  x86_64_linux_intel / intelmpi  ************************
 
 Licensed to: Dr. Miroslav Ilias / Matej Bel University, Department Chemistry, Fac. Natural Sciences / Banska Bystrica / SLOVAKIA
 SCM User ID: u17848
  
 AMS 2020.202  RunTime: Mar08-2021 02:51:49  Nodes: 1  Procs: 12

 AMS jobname: ams
 AMS jobid  : 1492863283

 Start   directory: /home/milias/Work/projects/open-collection/theoretical_chemistry/projects/nmr_diplomovky/reference_compounds/tetramethylsilane/ams/b3lyp_tz2p_good/no-solvent/tmp.milias.8096.0.noindex/
 Results directory: /home/milias/Work/projects/open-collection/theoretical_chemistry/projects/nmr_diplomovky/reference_compounds/tetramethylsilane/ams/b3lyp_tz2p_good/no-solvent/TMS.geopt_freq_nmrshield_b3lyp_tz2p_good.results/
 Scratch directory: /tmp/amstmp_ams_kid0.1492863283/


 Communication costs MPI_COMM_WORLD:      0.227 usec per message,   0.0489 usec per 8-byte item
 Communication costs for intra-node:      2.770 usec per message,   0.0271 usec per 8-byte item

 RNG seed: 1756953399 -1845387167 -2016747149 1053411670 -1835599996 -448245120 1801094948 -129044264



                       *********************************************************************
                       *  ADF 2020.202  RunTime: Mar08-2021 02:51:50  Nodes: 1  Procs: 12  *
                       *********************************************************************
  
       ***************************
       *  GEOMETRY OPTIMIZATION  *
       ***************************

Optimization Method                    Quasi Newton
Optimization Coordinates               Delocalized Coordinates
Optimize lattice                       F
 
 ------------------------------------------------------
 Convergence criteria (Hartree,Angstrom)
 ------------------------------------------------------
 Maximum gradient               0.001000000000
 Maximum rms gradient           0.000666666667
 Maximum step allowed           0.010000000000
 Maximum rms step allowed       0.006666666667
 Maximum energy change allowe   0.000170000000
 Maximum stress energy allowe   0.000500000000
 
Initial model Hessian                  Automatic Hessian
 
------------------------------------
Quasi-Newton Optimizer Parameters
------------------------------------
Hessian Update Method                  BFGS
Maximum number of steps                  250
First GDIIS cycle                          0
Maximum GDIIS vectors                      0
Trust radius (bohr)                        0.200000
Trust radius varies                        T
Constraints converged at all steps         T
Use projector                              T
 
 Rigid motions settings for: old optimizer
 Atomic rotations (x,y,z):     T T T
 Atomic translations (x,y,z):  T T T
 Tolerance:                   1.000000000000000E-006
 
--------
Geometry
--------
Atoms
  Index Symbol   x (angstrom)   y (angstrom)   z (angstrom)
      1     Si    -0.00041674     0.00034175     0.00003832
      2      C    -0.92356351    -0.17177412    -1.62431519
      3      C     0.88875422     1.65193075     0.04302019
      4      C     1.25224939    -1.38771653     0.15668209
      5      C    -1.21787758    -0.09211479     1.42460648
      6      H    -1.45217893    -1.12630130    -1.67837517
      7      H    -1.66178265     0.62439548    -1.74519558
      8      H    -0.23903404    -0.12233039    -2.47429043
      9      H     1.60640954     1.73499416    -0.77647547
     10      H     0.18425954     2.48206379    -0.04654929
     11      H     1.43690319     1.78058844     0.97921813
     12      H     1.80728366    -1.31454175     1.09480291
     13      H     0.76374893    -2.36463711     0.13480476
     14      H     1.97627423    -1.35981101    -0.66094531
     15      H    -0.70822327     0.00474136     2.38603952
     16      H    -1.96150372     0.70562937     1.36066508
     17      H    -1.75190225    -1.04515809     1.42596895
 
Total System Charge             0.00000
Bonding info available!
 
 
----------------
ADF Engine Input
----------------
 
 Basis
 Type TZ2P
 Core None
 End
 Save TAPE10
 XC
 Hybrid B3LYP
 End
 Relativity
 Level None
 End
 NumericalQuality Good
 

 Title: *** (NO TITLE) ***

 Using automatic Hessian for delocalized coordinates.
 *** GOStep1 ***



 ======================
 RI Hartree-Fock Scheme
 ======================
  
 Fit Set Quality     : GOOD
 Integration Quality : GOOD
 Threshold Quality   : GOOD
 Response Quality    : DEFAULT
 Is Range Separated  :  F
 
 RIHartreeFock Dependency: number of modified vectors:          13
  
 Hartree-Fock exchange energy:   -45.3990850757530     
  pauli hf:                             -1.442940124399733        -39.2644          -905.46         -3788.44
  elstat hf:                            -1.060573128857643        -28.8597          -665.52         -2784.53

 Energy gradients wrt nuclear displacements
 ==========================================

     Atom      Cartesian (a.u./angstrom)
                 X         Y         Z
 ----------------------------------------
     1 Si    0.000032 -0.000039  0.000000
     2 C     0.001954  0.000336  0.003401
     3 C    -0.001910 -0.003508 -0.000134
     4 C    -0.002692  0.002957 -0.000339
     5 C     0.002630  0.000155 -0.002982
     6 H     0.000212 -0.000238  0.000675
     7 H     0.000136  0.000351  0.000664
     8 H     0.000605  0.000099  0.000412
     9 H    -0.000133 -0.000679 -0.000304
    10 H    -0.000615 -0.000432 -0.000043
    11 H    -0.000169 -0.000654  0.000337
    12 H    -0.000343  0.000625  0.000268
    13 H    -0.000689  0.000278 -0.000075
    14 H    -0.000280  0.000606 -0.000353
    15 H     0.000682  0.000073 -0.000293
    16 H     0.000241  0.000347 -0.000633
    17 H     0.000337 -0.000277 -0.000603
 ----------------------------------------
 Mulliken charges used for AMS results%charges...
 
----------------------------------------------------------------------
Geometry Convergence after Step   1       (Hartree/Angstrom,Angstrom)
----------------------------------------------------------------------
current energy                               -3.57292530 Hartree
energy change                      -3.57292530     0.00017000    F
constrained gradient max            0.00350795     0.00100000    F
constrained gradient rms            0.00117322     0.00066667    F
gradient max                        0.00350795
gradient rms                        0.00117322
cart. step max                      0.00498344     0.01000000    T
cart. step rms                      0.00275639     0.00666667    T
 
 
--------
Geometry
--------
Atoms
  Index Symbol   x (angstrom)   y (angstrom)   z (angstrom)
      1     Si    -0.00039212     0.00042719     0.00009603
      2      C    -0.92512068    -0.17209279    -1.62715178
      3      C     0.89031218     1.65498940     0.04312717
      4      C     1.25441112    -1.39023134     0.15690002
      5      C    -1.22005235    -0.09226518     1.42715892
      6      H    -1.45444228    -1.12607899    -1.68302848
      7      H    -1.66382774     0.62324497    -1.75005933
      8      H    -0.24215639    -0.12305815    -2.47836132
      9      H     1.60847120     1.73997760    -0.77566396
     10      H     0.18741866     2.48643494    -0.04636174
     11      H     1.43907213     1.78556141     0.97861762
     12      H     1.81064078    -1.31886882     1.09438747
     13      H     0.76768424    -2.36800353     0.13526583
     14      H     1.97926248    -1.36409270    -0.65998376
     15      H    -0.71225062     0.00440740     2.38954949
     16      H    -1.96459560     0.70466599     1.36500363
     17      H    -1.75503501    -1.04471738     1.43020419
 
Total System Charge             0.00000
Bonding info available!
 
 *** GOStep2 ***



 ======================
 RI Hartree-Fock Scheme
 ======================
  
 Fit Set Quality     : GOOD
 Integration Quality : GOOD
 Threshold Quality   : GOOD
 Response Quality    : DEFAULT
 Is Range Separated  :  F
 
 RIHartreeFock Dependency: number of modified vectors:          13
  
 Hartree-Fock exchange energy:   -45.3948774148525     
  pauli hf:                             -1.385985349459125        -37.7146          -869.72         -3638.90
  elstat hf:                            -1.058207824311308        -28.7953          -664.04         -2778.32

 Energy gradients wrt nuclear displacements
 ==========================================

     Atom      Cartesian (a.u./angstrom)
                 X         Y         Z
 ----------------------------------------
     1 Si    0.000034 -0.000027  0.000014
     2 C     0.001358  0.000238  0.002386
     3 C    -0.001329 -0.002448 -0.000086
     4 C    -0.001899  0.002081 -0.000250
     5 C     0.001823  0.000117 -0.002098
     6 H     0.000082 -0.000021  0.000189
     7 H     0.000069  0.000063  0.000199
     8 H     0.000132  0.000028  0.000155
     9 H    -0.000068 -0.000192 -0.000048
    10 H    -0.000133 -0.000157 -0.000006
    11 H    -0.000066 -0.000188  0.000055
    12 H    -0.000121  0.000175  0.000033
    13 H    -0.000160  0.000117 -0.000021
    14 H    -0.000107  0.000167 -0.000062
    15 H     0.000169  0.000016 -0.000124
    16 H     0.000101  0.000063 -0.000173
    17 H     0.000116 -0.000032 -0.000163
 ----------------------------------------
 Mulliken charges used for AMS results%charges...

 dE(predicted):    -0.49390E-04, dE(actual):    -0.74332E-04, Trust radius:    0.200000, all in a.u.
 
----------------------------------------------------------------------
Geometry Convergence after Step   2       (Hartree/Angstrom,Angstrom)
----------------------------------------------------------------------
current energy                               -3.57299964 Hartree
energy change                      -0.00007433     0.00017000    T
constrained gradient max            0.00244775     0.00100000    F
constrained gradient rms            0.00078739     0.00066667    F
gradient max                        0.00244775
gradient rms                        0.00078739
cart. step max                      0.00495781     0.01000000    T
cart. step rms                      0.00282185     0.00666667    T
 
 
--------
Geometry
--------
Atoms
  Index Symbol   x (angstrom)   y (angstrom)   z (angstrom)
      1     Si    -0.00035929     0.00049925     0.00014273
      2      C    -0.92699806    -0.17244707    -1.63064716
      3      C     0.89216278     1.65869779     0.04326037
      4      C     1.25707814    -1.39331840     0.15720543
      5      C    -1.22266295    -0.09244472     1.43027836
      6      H    -1.45686666    -1.12610513    -1.68759708
      7      H    -1.66597492     0.62245789    -1.75496049
      8      H    -0.24492258    -0.12381067    -2.48263892
      9      H     1.61065614     1.74492596    -0.77514191
     10      H     0.19015650     2.49094315    -0.04619981
     11      H     1.44130864     1.79051922     0.97835491
     12      H     1.81420051    -1.32313352     1.09427418
     13      H     0.77128975    -2.37160259     0.13579369
     14      H     1.98236674    -1.36837976    -0.65935875
     15      H    -0.71596967     0.00411081     2.39330491
     16      H    -1.96784296     0.70399124     1.36926932
     17      H    -1.75822211    -1.04460345     1.43436022
 
Total System Charge             0.00000
Bonding info available!
 
 *** GOStep3 ***



 ======================
 RI Hartree-Fock Scheme
 ======================
  
 Fit Set Quality     : GOOD
 Integration Quality : GOOD
 Threshold Quality   : GOOD
 Response Quality    : DEFAULT
 Is Range Separated  :  F
 
 RIHartreeFock Dependency: number of modified vectors:          13
  
 Hartree-Fock exchange energy:   -45.3894581328764     
  pauli hf:                             -1.325244988154136        -36.0618          -831.60         -3479.43
  elstat hf:                            -1.055314686303200        -28.7166          -662.22         -2770.73

 Energy gradients wrt nuclear displacements
 ==========================================

     Atom      Cartesian (a.u./angstrom)
                 X         Y         Z
 ----------------------------------------
     1 Si    0.000022 -0.000019  0.000016
     2 C     0.000463  0.000089  0.000836
     3 C    -0.000460 -0.000854 -0.000025
     4 C    -0.000680  0.000736 -0.000094
     5 C     0.000632  0.000052 -0.000744
     6 H    -0.000067  0.000053 -0.000180
     7 H    -0.000053 -0.000079 -0.000170
     8 H    -0.000161 -0.000020 -0.000122
     9 H     0.000047  0.000182  0.000066
    10 H     0.000160  0.000130  0.000013
    11 H     0.000061  0.000176 -0.000072
    12 H     0.000102 -0.000163 -0.000055
    13 H     0.000188 -0.000091  0.000017
    14 H     0.000090 -0.000160  0.000079
    15 H    -0.000172 -0.000018  0.000095
    16 H    -0.000075 -0.000075  0.000172
    17 H    -0.000097  0.000062  0.000167
 ----------------------------------------
 Mulliken charges used for AMS results%charges...

 dE(predicted):    -0.29263E-04, dE(actual):    -0.30390E-04, Trust radius:    0.200000, all in a.u.
 
---------------------------------------------------------
Geometry Convergence after Step   3       ** CONVERGED **
---------------------------------------------------------
current energy                               -3.57303003 Hartree
energy change                      -0.00003039     0.00017000    T
constrained gradient max            0.00085322     0.00100000    T
constrained gradient rms            0.00029094     0.00066667    T
gradient max                        0.00085322
gradient rms                        0.00029094
cart. step max                      0.00047580     0.01000000    T
cart. step rms                      0.00017515     0.00666667    T
 
Geometry optimization converged

Optimized geometry:
 
--------
Geometry
--------
Atoms
  Index Symbol   x (angstrom)   y (angstrom)   z (angstrom)
      1     Si    -0.00035929     0.00049925     0.00014273
      2      C    -0.92699806    -0.17244707    -1.63064716
      3      C     0.89216278     1.65869779     0.04326037
      4      C     1.25707814    -1.39331840     0.15720543
      5      C    -1.22266295    -0.09244472     1.43027836
      6      H    -1.45686666    -1.12610513    -1.68759708
      7      H    -1.66597492     0.62245789    -1.75496049
      8      H    -0.24492258    -0.12381067    -2.48263892
      9      H     1.61065614     1.74492596    -0.77514191
     10      H     0.19015650     2.49094315    -0.04619981
     11      H     1.44130864     1.79051922     0.97835491
     12      H     1.81420051    -1.32313352     1.09427418
     13      H     0.77128975    -2.37160259     0.13579369
     14      H     1.98236674    -1.36837976    -0.65935875
     15      H    -0.71596967     0.00411081     2.39330491
     16      H    -1.96784296     0.70399124     1.36926932
     17      H    -1.75822211    -1.04460345     1.43436022
 
Total System Charge             0.00000
Bonding info available!
 
Performing a single point calculation on the final geometry ...

 *** adf ***



 ===========================
 A T T A C H E D   F I L E S
 ===========================
  
 Restart/tmp/amstmp_ams_kid0.1492863283/GOStep3.rkf*** GOStep3 ***



 ===============================
 M O D E L   P A R A M E T E R S
 ===============================
  
 DENSITY FUNCTIONAL POTENTIAL (scf)
    Hybrid:                            B3LYP                                   == Not Default ==

 SPIN  (restricted / unrestr.)
    Molecule:                          Restricted                               
    Fragments:                         Restricted                               

 OTHER ASPECTS
    Relativistic Corrections:          ---                                     == Not Default ==

    Nuclear Charge Density Model:      Point Charge Nuclei                      
    Core Treatment:                    Frozen Orbital(s)                        

    Hyperfine or Zeeman Interaction:   ---                                      



 ===============
 G E O M E T R Y  ***  3D  Molecule  ***
 ===============
  

 ATOMS
 =====                            X Y Z                    CHARGE
                                (Angstrom)             Nucl     +Core       At.Mass
                       --------------------------    ----------------       -------
    1  Si             -0.0004    0.0005    0.0001     14.00     14.00       27.9769
    2  C              -0.9270   -0.1724   -1.6306      6.00      6.00       12.0000
    3  C               0.8922    1.6587    0.0433      6.00      6.00       12.0000
    4  C               1.2571   -1.3933    0.1572      6.00      6.00       12.0000
    5  C              -1.2227   -0.0924    1.4303      6.00      6.00       12.0000
    6  H              -1.4569   -1.1261   -1.6876      1.00      1.00        1.0078
    7  H              -1.6660    0.6225   -1.7550      1.00      1.00        1.0078
    8  H              -0.2449   -0.1238   -2.4826      1.00      1.00        1.0078
    9  H               1.6107    1.7449   -0.7751      1.00      1.00        1.0078
   10  H               0.1902    2.4909   -0.0462      1.00      1.00        1.0078
   11  H               1.4413    1.7905    0.9784      1.00      1.00        1.0078
   12  H               1.8142   -1.3231    1.0943      1.00      1.00        1.0078
   13  H               0.7713   -2.3716    0.1358      1.00      1.00        1.0078
   14  H               1.9824   -1.3684   -0.6594      1.00      1.00        1.0078
   15  H              -0.7160    0.0041    2.3933      1.00      1.00        1.0078
   16  H              -1.9678    0.7040    1.3693      1.00      1.00        1.0078
   17  H              -1.7582   -1.0446    1.4344      1.00      1.00        1.0078


 FRAGMENTS
 =========                                     Atoms in this Fragment     Cart. coord.s (Angstrom)
                                               -------------------------------------------------------
    1  Si                                                1  Si          -0.0004    0.0005    0.0001
    2  C                                                 2  C           -0.9270   -0.1724   -1.6306
    3  C                                                 3  C            0.8922    1.6587    0.0433
    4  C                                                 4  C            1.2571   -1.3933    0.1572
    5  C                                                 5  C           -1.2227   -0.0924    1.4303
    6  H                                                 6  H           -1.4569   -1.1261   -1.6876
    7  H                                                 7  H           -1.6660    0.6225   -1.7550
    8  H                                                 8  H           -0.2449   -0.1238   -2.4826
    9  H                                                 9  H            1.6107    1.7449   -0.7751
   10  H                                                10  H            0.1902    2.4909   -0.0462
   11  H                                                11  H            1.4413    1.7905    0.9784
   12  H                                                12  H            1.8142   -1.3231    1.0943
   13  H                                                13  H            0.7713   -2.3716    0.1358
   14  H                                                14  H            1.9824   -1.3684   -0.6594
   15  H                                                15  H           -0.7160    0.0041    2.3933
   16  H                                                16  H           -1.9678    0.7040    1.3693
   17  H                                                17  H           -1.7582   -1.0446    1.4344


 Interatomic Distance Matrix (Angstrom)
 --------------------------------------

   1)     0.000
   2)     1.884   0.000
   3)     1.884   3.076   0.000
   4)     1.884   3.075   3.076   0.000
   5)     1.884   3.076   3.076   3.076   0.000
   6)     2.498   1.092   4.033   3.292   3.293   0.000
   7)     2.498   1.092   3.294   4.033   3.294   1.762   0.000
   8)     2.498   1.092   3.294   3.292   4.033   1.762   1.762   0.000
   9)     2.498   3.294   1.092   3.293   4.033   4.299   3.599   3.139   0.000
  10)     2.498   3.294   1.092   4.033   3.294   4.300   3.139   3.600   1.762   0.000
  11)     2.498   4.033   1.092   3.293   3.293   4.900   4.300   4.300   1.762   1.762
          0.000
  12)     2.498   4.033   3.293   1.092   3.294   4.299   4.901   4.298   3.598   4.299
          3.138   0.000
  13)     2.498   3.293   4.033   1.092   3.293   3.137   4.299   3.597   4.299   4.901
          4.299   1.762   0.000
  14)     2.498   3.292   3.293   1.092   4.033   3.598   4.298   3.136   3.138   4.299
          3.599   1.762   1.762   0.000
  15)     2.498   4.033   3.293   3.293   1.092   4.299   4.300   4.900   4.299   3.600
          3.138   3.139   3.599   4.299   0.000
  16)     2.498   3.294   3.294   4.033   1.092   3.599   3.140   4.300   4.300   3.139
          3.599   4.300   4.299   4.900   1.762   0.000
  17)     2.498   3.293   4.033   3.293   1.092   3.138   3.600   4.299   4.900   4.300
          4.299   3.599   3.138   4.299   1.762   1.762   0.000

 Min. Distance =    1.0924
 Max. Distance =    4.9005



 =====================================
 S Y M M E T R Y ,   E L E C T R O N S
 =====================================
  
 Symmetry: NOSYM

 Irreducible Representations, including subspecies
 -------------------------------------------------
 A

 Symmetry is NOT used when fitting density


 Configuration of Valence Electrons
 ==================================
 ( determined in the SCF procedure )

 Total:   50

 Net Charge: 0 (Nuclei minus Electrons)

 Aufbau principle for MO occupations will be applied through SCF cycle no.     150
 Thereafter, the program will assign electrons to MOs that are spatially
 similar to the occupied MOs in a "reference" cycle ("KeepOrbitals").
 The reference cycle is always the PREVIOUS cycle: it will evolve with
 the SCF procedure.
1
 ***************************************************************************************************



                                      ****************************************
                                      *  B U I L D : (Fragments, Functions)  *
                                      ****************************************
  



 =======
 S F O s  ***  (Symmetrized Fragment Orbitals)  ***
 =======
  
 SFOs are linear combinations of (valence) Fragment Orbitals (FOs), such that the SFOs transform as the
 irreducible representations of the (molecular) symmetry group. Each SFO is therefore characterized by
 an irrep of the molecule and by a few (or only one) generating FOs.
 The SFOs constitute a symmetry-adapted basis for the Fock matrix. The MO eigenvector coefficients in
 this basis provide a direct interpretation of the MOs in terms of Frontier Orbital Theory.

 The SFOs are combined with auxiliary Core Functions (CFs) to ensure orthogonalization on the (frozen)
 Core Orbitals (COs). The Core-orthogonalized SFOs (CSFOs) constitute the true Fock basis.

 The FOs, and hence also the (C)SFOs are combinations of the elementary basis functions (BAS). The basis
 functions that participate in the description of the SFOs depend on the irrep. The indices of the
 involved functions are printed below for each irrep.
 (The complete list of primitive basis functions is printed in another section)

 Total nr. of (C)SFOs (summation over all irreps) :   270

 NOTE: a (C)SFO that is defined as a combination of more than one FO is usually NOT normalized.



                                       === A ===
 Nr. of SFOs :  270
 Cartesian basis functions that participate in this irrep (total number =   302) :
      1     2     3     4    11    12    13     5     8    14
     17    20     6     9    15    18    21     7    10    16
     19    22    23    24    25    26    27    28    29    30
     31    32    33    34    35    36    37    38    39    40
     41    42    43    44    47    50    45    48    51    46
     49    52    53    54    55    56    57    58    59    60
     61    62    63    64    65    66    67    68    69    70
     71    72    73    74    77    80    75    78    81    76
     79    82    83    84    85    86    87    88    89    90
     91    92    93    94    95    96    97    98    99   100
    101   102   103   104   107   110   105   108   111   106
    109   112   113   114   115   116   117   118   119   120
    121   122   123   124   125   126   127   128   129   130
    131   132   133   134   137   140   135   138   141   136
    139   142   143   144   145   146   147   148   149   150
    151   152   153   154   155   156   157   158   159   160
    161   162   163   164   165   166   167   168   169   170
    171   172   173   174   175   176   177   178   179   180
    181   182   183   184   185   186   187   188   189   190
    191   192   193   194   195   196   197   198   199   200
    201   202   203   204   205   206   207   208   209   210
    211   212   213   214   215   216   217   218   219   220
    221   222   223   224   225   226   227   228   229   230
    231   232   233   234   235   236   237   238   239   240
    241   242   243   244   245   246   247   248   249   250
    251   252   253   254   255   256   257   258   259   260
    261   262   263   264   265   266   267   268   269   270
    271   272   273   274   275   276   277   278   279   280
    281   282   283   284   285   286   287   288   289   290
    291   292   293   294   295   296   297   298   299   300
    301   302

    SFO  (index         Fragment          Generating    Expansion in Fragment Orbitals
  indx  incl.CFs)   Occup   Orb.Energy   FragmentType  Coeff.   Orbital     on Fragment
 --------------------------------------------------------------------------------------
     1       1      2.000     -66.170 au  Si            1.00      1 S               1
                        (   -1800.579 eV)
     2       2      2.000      -5.327 au  Si            1.00      2 S               1
                        (    -144.944 eV)
     3       3      2.000      -0.437 au  Si            1.00      3 S               1
                        (     -11.884 eV)
     4       4       --         0.146 au  Si            1.00      4 S               1
                        (       3.969 eV)
     5       5       --         1.555 au  Si            1.00      5 S               1
                        (      42.317 eV)
     6       6       --         9.629 au  Si            1.00      6 S               1
                        (     262.020 eV)
     7       7       --       151.002 au  Si            1.00      7 S               1
                        (    4108.975 eV)
     8       8      2.000      -3.681 au  Si            1.00      1 P:x             1
                        (    -100.156 eV)
     9       9      0.667      -0.142 au  Si            1.00      2 P:x             1
                        (      -3.870 eV)
    10      10       --         0.079 au  Si            1.00      3 P:x             1
                        (       2.153 eV)
    11      11       --         0.724 au  Si            1.00      4 P:x             1
                        (      19.710 eV)
    12      12       --         8.464 au  Si            1.00      5 P:x             1
                        (     230.305 eV)
    13      13      2.000      -3.681 au  Si            1.00      1 P:y             1
                        (    -100.156 eV)
    14      14      0.667      -0.142 au  Si            1.00      2 P:y             1
                        (      -3.870 eV)
    15      15       --         0.079 au  Si            1.00      3 P:y             1
                        (       2.153 eV)
    16      16       --         0.724 au  Si            1.00      4 P:y             1
                        (      19.710 eV)
    17      17       --         8.464 au  Si            1.00      5 P:y             1
                        (     230.305 eV)
    18      18      2.000      -3.681 au  Si            1.00      1 P:z             1
                        (    -100.156 eV)
    19      19      0.667      -0.142 au  Si            1.00      2 P:z             1
                        (      -3.870 eV)
    20      20       --         0.079 au  Si            1.00      3 P:z             1
                        (       2.153 eV)
    21      21       --         0.724 au  Si            1.00      4 P:z             1
                        (      19.710 eV)
    22      22       --         8.464 au  Si            1.00      5 P:z             1
                        (     230.305 eV)
    23      23       --         0.410 au  Si            1.00      1 D:z2            1
                        (      11.149 eV)
    24      24       --         0.410 au  Si            1.00      1 D:x2-y2         1
                        (      11.149 eV)
    25      25       --         0.410 au  Si            1.00      1 D:xy            1
                        (      11.149 eV)
    26      26       --         0.410 au  Si            1.00      1 D:xz            1
                        (      11.149 eV)
    27      27       --         0.410 au  Si            1.00      1 D:yz            1
                        (      11.149 eV)
    28      28       --         1.101 au  Si            1.00      1 F:z3            1
                        (      29.954 eV)
    29      29       --         1.101 au  Si            1.00      1 F:z             1
                        (      29.954 eV)
    30      30       --         1.101 au  Si            1.00      1 F:xyz           1
                        (      29.954 eV)
    31      31       --         1.101 au  Si            1.00      1 F:z2x           1
                        (      29.954 eV)
    32      32       --         1.101 au  Si            1.00      1 F:z2y           1
                        (      29.954 eV)
    33      33       --         1.101 au  Si            1.00      1 F:x             1
                        (      29.954 eV)
    34      34       --         1.101 au  Si            1.00      1 F:y             1
                        (      29.954 eV)
    35      35      2.000     -10.347 au  C             1.00      1 S               2
                        (    -281.545 eV)
    36      36      2.000      -0.564 au  C             1.00      2 S               2
                        (     -15.345 eV)
    37      37       --         0.402 au  C             1.00      3 S               2
                        (      10.943 eV)
    38      38       --         5.509 au  C             1.00      4 S               2
                        (     149.900 eV)
    39      39       --        50.546 au  C             1.00      5 S               2
                        (    1375.418 eV)
    40      40      0.667      -0.188 au  C             1.00      1 P:x             2
                        (      -5.110 eV)
    41      41       --         0.191 au  C             1.00      2 P:x             2
                        (       5.204 eV)
    42      42       --         2.089 au  C             1.00      3 P:x             2
                        (      56.851 eV)
    43      43      0.667      -0.188 au  C             1.00      1 P:y             2
                        (      -5.110 eV)
    44      44       --         0.191 au  C             1.00      2 P:y             2
                        (       5.204 eV)
    45      45       --         2.089 au  C             1.00      3 P:y             2
                        (      56.851 eV)
    46      46      0.667      -0.188 au  C             1.00      1 P:z             2
                        (      -5.110 eV)
    47      47       --         0.191 au  C             1.00      2 P:z             2
                        (       5.204 eV)
    48      48       --         2.089 au  C             1.00      3 P:z             2
                        (      56.851 eV)
    49      49       --         1.292 au  C             1.00      1 D:z2            2
                        (      35.150 eV)
    50      50       --         1.292 au  C             1.00      1 D:x2-y2         2
                        (      35.150 eV)
    51      51       --         1.292 au  C             1.00      1 D:xy            2
                        (      35.150 eV)
    52      52       --         1.292 au  C             1.00      1 D:xz            2
                        (      35.150 eV)
    53      53       --         1.292 au  C             1.00      1 D:yz            2
                        (      35.150 eV)
    54      54       --         4.084 au  C             1.00      1 F:z3            2
                        (     111.144 eV)
    55      55       --         4.084 au  C             1.00      1 F:z             2
                        (     111.144 eV)
    56      56       --         4.084 au  C             1.00      1 F:xyz           2
                        (     111.144 eV)
    57      57       --         4.084 au  C             1.00      1 F:z2x           2
                        (     111.144 eV)
    58      58       --         4.084 au  C             1.00      1 F:z2y           2
                        (     111.144 eV)
    59      59       --         4.084 au  C             1.00      1 F:x             2
                        (     111.144 eV)
    60      60       --         4.084 au  C             1.00      1 F:y             2
                        (     111.144 eV)
    61      61      2.000     -10.347 au  C             1.00      1 S               3
                        (    -281.545 eV)
    62      62      2.000      -0.564 au  C             1.00      2 S               3
                        (     -15.345 eV)
    63      63       --         0.402 au  C             1.00      3 S               3
                        (      10.943 eV)
    64      64       --         5.509 au  C             1.00      4 S               3
                        (     149.900 eV)
    65      65       --        50.546 au  C             1.00      5 S               3
                        (    1375.418 eV)
    66      66      0.667      -0.188 au  C             1.00      1 P:x             3
                        (      -5.110 eV)
    67      67       --         0.191 au  C             1.00      2 P:x             3
                        (       5.204 eV)
    68      68       --         2.089 au  C             1.00      3 P:x             3
                        (      56.851 eV)
    69      69      0.667      -0.188 au  C             1.00      1 P:y             3
                        (      -5.110 eV)
    70      70       --         0.191 au  C             1.00      2 P:y             3
                        (       5.204 eV)
    71      71       --         2.089 au  C             1.00      3 P:y             3
                        (      56.851 eV)
    72      72      0.667      -0.188 au  C             1.00      1 P:z             3
                        (      -5.110 eV)
    73      73       --         0.191 au  C             1.00      2 P:z             3
                        (       5.204 eV)
    74      74       --         2.089 au  C             1.00      3 P:z             3
                        (      56.851 eV)
    75      75       --         1.292 au  C             1.00      1 D:z2            3
                        (      35.150 eV)
    76      76       --         1.292 au  C             1.00      1 D:x2-y2         3
                        (      35.150 eV)
    77      77       --         1.292 au  C             1.00      1 D:xy            3
                        (      35.150 eV)
    78      78       --         1.292 au  C             1.00      1 D:xz            3
                        (      35.150 eV)
    79      79       --         1.292 au  C             1.00      1 D:yz            3
                        (      35.150 eV)
    80      80       --         4.084 au  C             1.00      1 F:z3            3
                        (     111.144 eV)
    81      81       --         4.084 au  C             1.00      1 F:z             3
                        (     111.144 eV)
    82      82       --         4.084 au  C             1.00      1 F:xyz           3
                        (     111.144 eV)
    83      83       --         4.084 au  C             1.00      1 F:z2x           3
                        (     111.144 eV)
    84      84       --         4.084 au  C             1.00      1 F:z2y           3
                        (     111.144 eV)
    85      85       --         4.084 au  C             1.00      1 F:x             3
                        (     111.144 eV)
    86      86       --         4.084 au  C             1.00      1 F:y             3
                        (     111.144 eV)
    87      87      2.000     -10.347 au  C             1.00      1 S               4
                        (    -281.545 eV)
    88      88      2.000      -0.564 au  C             1.00      2 S               4
                        (     -15.345 eV)
    89      89       --         0.402 au  C             1.00      3 S               4
                        (      10.943 eV)
    90      90       --         5.509 au  C             1.00      4 S               4
                        (     149.900 eV)
    91      91       --        50.546 au  C             1.00      5 S               4
                        (    1375.418 eV)
    92      92      0.667      -0.188 au  C             1.00      1 P:x             4
                        (      -5.110 eV)
    93      93       --         0.191 au  C             1.00      2 P:x             4
                        (       5.204 eV)
    94      94       --         2.089 au  C             1.00      3 P:x             4
                        (      56.851 eV)
    95      95      0.667      -0.188 au  C             1.00      1 P:y             4
                        (      -5.110 eV)
    96      96       --         0.191 au  C             1.00      2 P:y             4
                        (       5.204 eV)
    97      97       --         2.089 au  C             1.00      3 P:y             4
                        (      56.851 eV)
    98      98      0.667      -0.188 au  C             1.00      1 P:z             4
                        (      -5.110 eV)
    99      99       --         0.191 au  C             1.00      2 P:z             4
                        (       5.204 eV)
   100     100       --         2.089 au  C             1.00      3 P:z             4
                        (      56.851 eV)
   101     101       --         1.292 au  C             1.00      1 D:z2            4
                        (      35.150 eV)
   102     102       --         1.292 au  C             1.00      1 D:x2-y2         4
                        (      35.150 eV)
   103     103       --         1.292 au  C             1.00      1 D:xy            4
                        (      35.150 eV)
   104     104       --         1.292 au  C             1.00      1 D:xz            4
                        (      35.150 eV)
   105     105       --         1.292 au  C             1.00      1 D:yz            4
                        (      35.150 eV)
   106     106       --         4.084 au  C             1.00      1 F:z3            4
                        (     111.144 eV)
   107     107       --         4.084 au  C             1.00      1 F:z             4
                        (     111.144 eV)
   108     108       --         4.084 au  C             1.00      1 F:xyz           4
                        (     111.144 eV)
   109     109       --         4.084 au  C             1.00      1 F:z2x           4
                        (     111.144 eV)
   110     110       --         4.084 au  C             1.00      1 F:z2y           4
                        (     111.144 eV)
   111     111       --         4.084 au  C             1.00      1 F:x             4
                        (     111.144 eV)
   112     112       --         4.084 au  C             1.00      1 F:y             4
                        (     111.144 eV)
   113     113      2.000     -10.347 au  C             1.00      1 S               5
                        (    -281.545 eV)
   114     114      2.000      -0.564 au  C             1.00      2 S               5
                        (     -15.345 eV)
   115     115       --         0.402 au  C             1.00      3 S               5
                        (      10.943 eV)
   116     116       --         5.509 au  C             1.00      4 S               5
                        (     149.900 eV)
   117     117       --        50.546 au  C             1.00      5 S               5
                        (    1375.418 eV)
   118     118      0.667      -0.188 au  C             1.00      1 P:x             5
                        (      -5.110 eV)
   119     119       --         0.191 au  C             1.00      2 P:x             5
                        (       5.204 eV)
   120     120       --         2.089 au  C             1.00      3 P:x             5
                        (      56.851 eV)
   121     121      0.667      -0.188 au  C             1.00      1 P:y             5
                        (      -5.110 eV)
   122     122       --         0.191 au  C             1.00      2 P:y             5
                        (       5.204 eV)
   123     123       --         2.089 au  C             1.00      3 P:y             5
                        (      56.851 eV)
   124     124      0.667      -0.188 au  C             1.00      1 P:z             5
                        (      -5.110 eV)
   125     125       --         0.191 au  C             1.00      2 P:z             5
                        (       5.204 eV)
   126     126       --         2.089 au  C             1.00      3 P:z             5
                        (      56.851 eV)
   127     127       --         1.292 au  C             1.00      1 D:z2            5
                        (      35.150 eV)
   128     128       --         1.292 au  C             1.00      1 D:x2-y2         5
                        (      35.150 eV)
   129     129       --         1.292 au  C             1.00      1 D:xy            5
                        (      35.150 eV)
   130     130       --         1.292 au  C             1.00      1 D:xz            5
                        (      35.150 eV)
   131     131       --         1.292 au  C             1.00      1 D:yz            5
                        (      35.150 eV)
   132     132       --         4.084 au  C             1.00      1 F:z3            5
                        (     111.144 eV)
   133     133       --         4.084 au  C             1.00      1 F:z             5
                        (     111.144 eV)
   134     134       --         4.084 au  C             1.00      1 F:xyz           5
                        (     111.144 eV)
   135     135       --         4.084 au  C             1.00      1 F:z2x           5
                        (     111.144 eV)
   136     136       --         4.084 au  C             1.00      1 F:z2y           5
                        (     111.144 eV)
   137     137       --         4.084 au  C             1.00      1 F:x             5
                        (     111.144 eV)
   138     138       --         4.084 au  C             1.00      1 F:y             5
                        (     111.144 eV)
   139     139      1.000      -0.244 au  H             1.00      1 S               6
                        (      -6.641 eV)
   140     140       --         0.104 au  H             1.00      2 S               6
                        (       2.836 eV)
   141     141       --         1.564 au  H             1.00      3 S               6
                        (      42.568 eV)
   142     142       --         0.436 au  H             1.00      1 P:x             6
                        (      11.864 eV)
   143     143       --         0.436 au  H             1.00      1 P:y             6
                        (      11.864 eV)
   144     144       --         0.436 au  H             1.00      1 P:z             6
                        (      11.864 eV)
   145     145       --         2.618 au  H             1.00      1 D:z2            6
                        (      71.229 eV)
   146     146       --         2.618 au  H             1.00      1 D:x2-y2         6
                        (      71.229 eV)
   147     147       --         2.618 au  H             1.00      1 D:xy            6
                        (      71.229 eV)
   148     148       --         2.618 au  H             1.00      1 D:xz            6
                        (      71.229 eV)
   149     149       --         2.618 au  H             1.00      1 D:yz            6
                        (      71.229 eV)
   150     150      1.000      -0.244 au  H             1.00      1 S               7
                        (      -6.641 eV)
   151     151       --         0.104 au  H             1.00      2 S               7
                        (       2.836 eV)
   152     152       --         1.564 au  H             1.00      3 S               7
                        (      42.568 eV)
   153     153       --         0.436 au  H             1.00      1 P:x             7
                        (      11.864 eV)
   154     154       --         0.436 au  H             1.00      1 P:y             7
                        (      11.864 eV)
   155     155       --         0.436 au  H             1.00      1 P:z             7
                        (      11.864 eV)
   156     156       --         2.618 au  H             1.00      1 D:z2            7
                        (      71.229 eV)
   157     157       --         2.618 au  H             1.00      1 D:x2-y2         7
                        (      71.229 eV)
   158     158       --         2.618 au  H             1.00      1 D:xy            7
                        (      71.229 eV)
   159     159       --         2.618 au  H             1.00      1 D:xz            7
                        (      71.229 eV)
   160     160       --         2.618 au  H             1.00      1 D:yz            7
                        (      71.229 eV)
   161     161      1.000      -0.244 au  H             1.00      1 S               8
                        (      -6.641 eV)
   162     162       --         0.104 au  H             1.00      2 S               8
                        (       2.836 eV)
   163     163       --         1.564 au  H             1.00      3 S               8
                        (      42.568 eV)
   164     164       --         0.436 au  H             1.00      1 P:x             8
                        (      11.864 eV)
   165     165       --         0.436 au  H             1.00      1 P:y             8
                        (      11.864 eV)
   166     166       --         0.436 au  H             1.00      1 P:z             8
                        (      11.864 eV)
   167     167       --         2.618 au  H             1.00      1 D:z2            8
                        (      71.229 eV)
   168     168       --         2.618 au  H             1.00      1 D:x2-y2         8
                        (      71.229 eV)
   169     169       --         2.618 au  H             1.00      1 D:xy            8
                        (      71.229 eV)
   170     170       --         2.618 au  H             1.00      1 D:xz            8
                        (      71.229 eV)
   171     171       --         2.618 au  H             1.00      1 D:yz            8
                        (      71.229 eV)
   172     172      1.000      -0.244 au  H             1.00      1 S               9
                        (      -6.641 eV)
   173     173       --         0.104 au  H             1.00      2 S               9
                        (       2.836 eV)
   174     174       --         1.564 au  H             1.00      3 S               9
                        (      42.568 eV)
   175     175       --         0.436 au  H             1.00      1 P:x             9
                        (      11.864 eV)
   176     176       --         0.436 au  H             1.00      1 P:y             9
                        (      11.864 eV)
   177     177       --         0.436 au  H             1.00      1 P:z             9
                        (      11.864 eV)
   178     178       --         2.618 au  H             1.00      1 D:z2            9
                        (      71.229 eV)
   179     179       --         2.618 au  H             1.00      1 D:x2-y2         9
                        (      71.229 eV)
   180     180       --         2.618 au  H             1.00      1 D:xy            9
                        (      71.229 eV)
   181     181       --         2.618 au  H             1.00      1 D:xz            9
                        (      71.229 eV)
   182     182       --         2.618 au  H             1.00      1 D:yz            9
                        (      71.229 eV)
   183     183      1.000      -0.244 au  H             1.00      1 S              10
                        (      -6.641 eV)
   184     184       --         0.104 au  H             1.00      2 S              10
                        (       2.836 eV)
   185     185       --         1.564 au  H             1.00      3 S              10
                        (      42.568 eV)
   186     186       --         0.436 au  H             1.00      1 P:x            10
                        (      11.864 eV)
   187     187       --         0.436 au  H             1.00      1 P:y            10
                        (      11.864 eV)
   188     188       --         0.436 au  H             1.00      1 P:z            10
                        (      11.864 eV)
   189     189       --         2.618 au  H             1.00      1 D:z2           10
                        (      71.229 eV)
   190     190       --         2.618 au  H             1.00      1 D:x2-y2        10
                        (      71.229 eV)
   191     191       --         2.618 au  H             1.00      1 D:xy           10
                        (      71.229 eV)
   192     192       --         2.618 au  H             1.00      1 D:xz           10
                        (      71.229 eV)
   193     193       --         2.618 au  H             1.00      1 D:yz           10
                        (      71.229 eV)
   194     194      1.000      -0.244 au  H             1.00      1 S              11
                        (      -6.641 eV)
   195     195       --         0.104 au  H             1.00      2 S              11
                        (       2.836 eV)
   196     196       --         1.564 au  H             1.00      3 S              11
                        (      42.568 eV)
   197     197       --         0.436 au  H             1.00      1 P:x            11
                        (      11.864 eV)
   198     198       --         0.436 au  H             1.00      1 P:y            11
                        (      11.864 eV)
   199     199       --         0.436 au  H             1.00      1 P:z            11
                        (      11.864 eV)
   200     200       --         2.618 au  H             1.00      1 D:z2           11
                        (      71.229 eV)
   201     201       --         2.618 au  H             1.00      1 D:x2-y2        11
                        (      71.229 eV)
   202     202       --         2.618 au  H             1.00      1 D:xy           11
                        (      71.229 eV)
   203     203       --         2.618 au  H             1.00      1 D:xz           11
                        (      71.229 eV)
   204     204       --         2.618 au  H             1.00      1 D:yz           11
                        (      71.229 eV)
   205     205      1.000      -0.244 au  H             1.00      1 S              12
                        (      -6.641 eV)
   206     206       --         0.104 au  H             1.00      2 S              12
                        (       2.836 eV)
   207     207       --         1.564 au  H             1.00      3 S              12
                        (      42.568 eV)
   208     208       --         0.436 au  H             1.00      1 P:x            12
                        (      11.864 eV)
   209     209       --         0.436 au  H             1.00      1 P:y            12
                        (      11.864 eV)
   210     210       --         0.436 au  H             1.00      1 P:z            12
                        (      11.864 eV)
   211     211       --         2.618 au  H             1.00      1 D:z2           12
                        (      71.229 eV)
   212     212       --         2.618 au  H             1.00      1 D:x2-y2        12
                        (      71.229 eV)
   213     213       --         2.618 au  H             1.00      1 D:xy           12
                        (      71.229 eV)
   214     214       --         2.618 au  H             1.00      1 D:xz           12
                        (      71.229 eV)
   215     215       --         2.618 au  H             1.00      1 D:yz           12
                        (      71.229 eV)
   216     216      1.000      -0.244 au  H             1.00      1 S              13
                        (      -6.641 eV)
   217     217       --         0.104 au  H             1.00      2 S              13
                        (       2.836 eV)
   218     218       --         1.564 au  H             1.00      3 S              13
                        (      42.568 eV)
   219     219       --         0.436 au  H             1.00      1 P:x            13
                        (      11.864 eV)
   220     220       --         0.436 au  H             1.00      1 P:y            13
                        (      11.864 eV)
   221     221       --         0.436 au  H             1.00      1 P:z            13
                        (      11.864 eV)
   222     222       --         2.618 au  H             1.00      1 D:z2           13
                        (      71.229 eV)
   223     223       --         2.618 au  H             1.00      1 D:x2-y2        13
                        (      71.229 eV)
   224     224       --         2.618 au  H             1.00      1 D:xy           13
                        (      71.229 eV)
   225     225       --         2.618 au  H             1.00      1 D:xz           13
                        (      71.229 eV)
   226     226       --         2.618 au  H             1.00      1 D:yz           13
                        (      71.229 eV)
   227     227      1.000      -0.244 au  H             1.00      1 S              14
                        (      -6.641 eV)
   228     228       --         0.104 au  H             1.00      2 S              14
                        (       2.836 eV)
   229     229       --         1.564 au  H             1.00      3 S              14
                        (      42.568 eV)
   230     230       --         0.436 au  H             1.00      1 P:x            14
                        (      11.864 eV)
   231     231       --         0.436 au  H             1.00      1 P:y            14
                        (      11.864 eV)
   232     232       --         0.436 au  H             1.00      1 P:z            14
                        (      11.864 eV)
   233     233       --         2.618 au  H             1.00      1 D:z2           14
                        (      71.229 eV)
   234     234       --         2.618 au  H             1.00      1 D:x2-y2        14
                        (      71.229 eV)
   235     235       --         2.618 au  H             1.00      1 D:xy           14
                        (      71.229 eV)
   236     236       --         2.618 au  H             1.00      1 D:xz           14
                        (      71.229 eV)
   237     237       --         2.618 au  H             1.00      1 D:yz           14
                        (      71.229 eV)
   238     238      1.000      -0.244 au  H             1.00      1 S              15
                        (      -6.641 eV)
   239     239       --         0.104 au  H             1.00      2 S              15
                        (       2.836 eV)
   240     240       --         1.564 au  H             1.00      3 S              15
                        (      42.568 eV)
   241     241       --         0.436 au  H             1.00      1 P:x            15
                        (      11.864 eV)
   242     242       --         0.436 au  H             1.00      1 P:y            15
                        (      11.864 eV)
   243     243       --         0.436 au  H             1.00      1 P:z            15
                        (      11.864 eV)
   244     244       --         2.618 au  H             1.00      1 D:z2           15
                        (      71.229 eV)
   245     245       --         2.618 au  H             1.00      1 D:x2-y2        15
                        (      71.229 eV)
   246     246       --         2.618 au  H             1.00      1 D:xy           15
                        (      71.229 eV)
   247     247       --         2.618 au  H             1.00      1 D:xz           15
                        (      71.229 eV)
   248     248       --         2.618 au  H             1.00      1 D:yz           15
                        (      71.229 eV)
   249     249      1.000      -0.244 au  H             1.00      1 S              16
                        (      -6.641 eV)
   250     250       --         0.104 au  H             1.00      2 S              16
                        (       2.836 eV)
   251     251       --         1.564 au  H             1.00      3 S              16
                        (      42.568 eV)
   252     252       --         0.436 au  H             1.00      1 P:x            16
                        (      11.864 eV)
   253     253       --         0.436 au  H             1.00      1 P:y            16
                        (      11.864 eV)
   254     254       --         0.436 au  H             1.00      1 P:z            16
                        (      11.864 eV)
   255     255       --         2.618 au  H             1.00      1 D:z2           16
                        (      71.229 eV)
   256     256       --         2.618 au  H             1.00      1 D:x2-y2        16
                        (      71.229 eV)
   257     257       --         2.618 au  H             1.00      1 D:xy           16
                        (      71.229 eV)
   258     258       --         2.618 au  H             1.00      1 D:xz           16
                        (      71.229 eV)
   259     259       --         2.618 au  H             1.00      1 D:yz           16
                        (      71.229 eV)
   260     260      1.000      -0.244 au  H             1.00      1 S              17
                        (      -6.641 eV)
   261     261       --         0.104 au  H             1.00      2 S              17
                        (       2.836 eV)
   262     262       --         1.564 au  H             1.00      3 S              17
                        (      42.568 eV)
   263     263       --         0.436 au  H             1.00      1 P:x            17
                        (      11.864 eV)
   264     264       --         0.436 au  H             1.00      1 P:y            17
                        (      11.864 eV)
   265     265       --         0.436 au  H             1.00      1 P:z            17
                        (      11.864 eV)
   266     266       --         2.618 au  H             1.00      1 D:z2           17
                        (      71.229 eV)
   267     267       --         2.618 au  H             1.00      1 D:x2-y2        17
                        (      71.229 eV)
   268     268       --         2.618 au  H             1.00      1 D:xy           17
                        (      71.229 eV)
   269     269       --         2.618 au  H             1.00      1 D:xz           17
                        (      71.229 eV)
   270     270       --         2.618 au  H             1.00      1 D:yz           17
                        (      71.229 eV)



 ================================
 (Slater-type)  F U N C T I O N S  ***  (Basis and Fit)  ***
 ================================
  

 Atom Type    1  (Si)
 ==============

 Valence Basis Sets:  14
 -----------------------
   1 S   17.050000
   1 S   12.450000
   2 S    5.150000
   2 S    3.600000
   2 P    6.850000
   2 P    3.650000
   3 S    2.950000
   3 S    1.850000
   3 S    1.200000
   3 P    2.000000
   3 P    1.200000
   3 P    0.750000
   3 D    1.750000
   4 F    1.900000

 Charge Fitting Sets (for the computation of the Coulomb Potential):  30
 -----------------------------------------------------------------------
   1 S   34.100000
   1 S   20.150000
   2 S   22.060000
   2 S   14.690000
   3 S   14.370000
   3 S   10.190000
   3 S    7.230000
   4 S    6.780000
   4 S    5.010000
   4 S    3.700000
   5 S    3.410000
   5 S    2.590000
   5 S    1.970000
   5 S    1.500000
   2 P   23.900000
   3 P   17.130000
   4 P   12.310000
   4 P    7.080000
   5 P    5.140000
   5 P    3.120000
   5 P    1.890000
   3 D   18.400000
   4 D   12.380000
   4 D    6.680000
   5 D    4.570000
   5 D    2.620000
   5 D    1.500000
   4 F    5.000000
   4 F    3.000000
   5 G    3.880000

 Atom Type    2  (C)
 ==============

 Valence Basis Sets:  10
 -----------------------
   1 S    7.680000
   1 S    5.000000
   2 S    1.280000
   2 S    2.100000
   2 S    4.600000
   2 P    0.820000
   2 P    1.480000
   2 P    2.940000
   3 D    2.200000
   4 F    3.300000

 Charge Fitting Sets (for the computation of the Coulomb Potential):  22
 -----------------------------------------------------------------------
   1 S   15.360000
   2 S   17.530000
   2 S   12.070000
   2 S    8.310000
   2 S    5.730000
   3 S    5.780000
   3 S    4.220000
   3 S    3.080000
   3 S    2.250000
   3 S    1.640000
   2 P    9.880000
   2 P    5.800000
   3 P    5.050000
   3 P    3.230000
   3 P    2.060000
   3 D    7.200000
   3 D    4.400000
   3 D    2.690000
   3 D    1.640000
   4 F    5.400000
   4 F    3.550000
   5 G    4.500000

 Atom Type    3  (H)
 ==============

 Valence Basis Sets:   5
 -----------------------
   1 S    0.690000
   1 S    0.920000
   1 S    1.580000
   2 P    1.250000
   3 D    2.500000

 Charge Fitting Sets (for the computation of the Coulomb Potential):  11
 -----------------------------------------------------------------------
   1 S    3.160000
   1 S    2.090000
   1 S    1.380000
   2 S    1.500000
   2 P    4.000000
   2 P    2.650000
   2 P    1.750000
   3 D    4.000000
   3 D    2.500000
   4 F    3.000000
   5 G    4.000000


 BAS: List of all Elementary Cartesian Basis Functions
 =====================================================

 The numbering in the list below (to the right of the function characteristics) is referred
 to in print-outs of MO eigenvectors and Mulliken populations in the BAS representation
 (as contrasted to the SFO representation).

 Notes:
 1. The functions are characterized by a polynomial prefactor (powers of x,y,z and r) and
    an exponential decay factor alpha.
 2. Since the basis sets are specific for an atom TYPE, the individual functions occur on
    all atoms of that type.
 3. The word 'Core' in the left margin signals that it is a Core Function (CF) : not a
    degree of freedom in the valence set, but only used to ensure orthogonalization of
    the other valence basis functions on the frozen Core Orbitals.


 (power of) X  Y  Z  R     Alpha  on Atom
            ==========     =====     ==========

 Si                                   1
                                  ---------------------------------------------------------------------------
            0  0  0  0    17.050      1
            0  0  0  0    12.450      2
            0  0  0  1     5.150      3
            0  0  0  1     3.600      4
            1  0  0  0     6.850      5
            0  1  0  0     6.850      6
            0  0  1  0     6.850      7
            1  0  0  0     3.650      8
            0  1  0  0     3.650      9
            0  0  1  0     3.650     10
            0  0  0  2     2.950     11
            0  0  0  2     1.850     12
            0  0  0  2     1.200     13
            1  0  0  1     2.000     14
            0  1  0  1     2.000     15
            0  0  1  1     2.000     16
            1  0  0  1     1.200     17
            0  1  0  1     1.200     18
            0  0  1  1     1.200     19
            1  0  0  1     0.750     20
            0  1  0  1     0.750     21
            0  0  1  1     0.750     22
            2  0  0  0     1.750     23
            1  1  0  0     1.750     24
            1  0  1  0     1.750     25
            0  2  0  0     1.750     26
            0  1  1  0     1.750     27
            0  0  2  0     1.750     28
            3  0  0  0     1.900     29
            2  1  0  0     1.900     30
            2  0  1  0     1.900     31
            1  2  0  0     1.900     32
            1  1  1  0     1.900     33
            1  0  2  0     1.900     34
            0  3  0  0     1.900     35
            0  2  1  0     1.900     36
            0  1  2  0     1.900     37
            0  0  3  0     1.900     38

 C                                    2    3    4    5
                                  ---------------------------------------------------------------------------
            0  0  0  0     7.680     39   69   99  129
            0  0  0  0     5.000     40   70  100  130
            0  0  0  1     1.280     41   71  101  131
            0  0  0  1     2.100     42   72  102  132
            0  0  0  1     4.600     43   73  103  133
            1  0  0  0     0.820     44   74  104  134
            0  1  0  0     0.820     45   75  105  135
            0  0  1  0     0.820     46   76  106  136
            1  0  0  0     1.480     47   77  107  137
            0  1  0  0     1.480     48   78  108  138
            0  0  1  0     1.480     49   79  109  139
            1  0  0  0     2.940     50   80  110  140
            0  1  0  0     2.940     51   81  111  141
            0  0  1  0     2.940     52   82  112  142
            2  0  0  0     2.200     53   83  113  143
            1  1  0  0     2.200     54   84  114  144
            1  0  1  0     2.200     55   85  115  145
            0  2  0  0     2.200     56   86  116  146
            0  1  1  0     2.200     57   87  117  147
            0  0  2  0     2.200     58   88  118  148
            3  0  0  0     3.300     59   89  119  149
            2  1  0  0     3.300     60   90  120  150
            2  0  1  0     3.300     61   91  121  151
            1  2  0  0     3.300     62   92  122  152
            1  1  1  0     3.300     63   93  123  153
            1  0  2  0     3.300     64   94  124  154
            0  3  0  0     3.300     65   95  125  155
            0  2  1  0     3.300     66   96  126  156
            0  1  2  0     3.300     67   97  127  157
            0  0  3  0     3.300     68   98  128  158

 H                                    6    7    8    9   10   11   12   13   14   15   16   17
                                  ---------------------------------------------------------------------------
            0  0  0  0     0.690    159  171  183  195  207  219  231  243  255  267  279  291
            0  0  0  0     0.920    160  172  184  196  208  220  232  244  256  268  280  292
            0  0  0  0     1.580    161  173  185  197  209  221  233  245  257  269  281  293
            1  0  0  0     1.250    162  174  186  198  210  222  234  246  258  270  282  294
            0  1  0  0     1.250    163  175  187  199  211  223  235  247  259  271  283  295
            0  0  1  0     1.250    164  176  188  200  212  224  236  248  260  272  284  296
            2  0  0  0     2.500    165  177  189  201  213  225  237  249  261  273  285  297
            1  1  0  0     2.500    166  178  190  202  214  226  238  250  262  274  286  298
            1  0  1  0     2.500    167  179  191  203  215  227  239  251  263  275  287  299
            0  2  0  0     2.500    168  180  192  204  216  228  240  252  264  276  288  300
            0  1  1  0     2.500    169  181  193  205  217  229  241  253  265  277  289  301
            0  0  2  0     2.500    170  182  194  206  218  230  242  254  266  278  290  302

 Total number of charge fitting functions (nprimf)      1042
 Total number of Cartesian basis functions (naos)        302
 Total number of Cartesian core functions  (ncos)          0

1
 ***************************************************************************************************



                                              ***********************
                                              *  T E C H N I C A L  *
                                              ***********************
  



 =============================================================
 P A R A L L E L I Z A T I O N  and  V E C T O R I Z A T I O N
 =============================================================
  
 Nr of parallel processes:                               12
 Maximum vector length in NumInt loops:                 128



 =====================
 S C F   U P D A T E S
 =====================
  
 Max. nr. of cycles:                               300
 Convergence criterion:                              0.0000010000
   secondary criterion:                              0.0010000000

 Mix parameter (when DIIS does not apply):           0.2000000000
 Mixed ADIIS+SDIIS will be used                  
    Max number of expansion vectors:                10
    Pure ADIIS when Max([F,P]) is above              0.1000000000
    Pure SDIIS when Max([F,P]) is below              0.0010000000
 Automatic ElectronSmearing (in case of problematic SCF convergence) disabled



 =================
 P R E C I S I O N  ***  (General: NumInt, NeglectFunctionTails, ...)  ***
 =================
  

 NumInt:           Target precision:                 6.0000000000
 -------           Initial precision:                6.0000000000
                   Min. precision (optimization):    6.0000000000

 Neglect Functions:          Basis functions:        0.1000000000E-07
 ------------------          Fit functions:          0.1000000000E-07



 ===========================
 L I N E A R   S C A L I N G
 ===========================
  

 Cut-off radii density fit:                        0.1000000000E-09
 Overlap cut-off criterion AO matrix elements:     0.1000000000E-07
 Cut-offs for Coulomb potential and fitted density:0.1000000000E-09
 Cut-off criterion for Coulomb multipole terms:    0.1000000000E-09
 Progressive Convergence parameter:                 0.000000000    

 Number of elements of the density matrix on this node (used, total):      4251     45753



 ===========================================
 Numerical Integration : Fuzzy Cells (Becke)
 ===========================================
  
 Becke grid quality: GOOD           
  
 Lebedev angular grid order:             min:  11 max:  35
 Nr. of radial points:                   min:  54 max:  72

 Total nr. of points:     212096
 Nr. of blocks:             1657
 Block length:               128
 Nr. of dummy points:          0


 Test of Precision of the Numerical Integration Grid
 ===================================================

 Integral of the Total Core Density:                   0.00000000000000



 ========================
 Density Fitting (zlmFit)
 ========================
  
 ZlmFit Fit Quality: GOOD           
  
 Max L-expansion:                        min:   8 max:  10
 Nr. of radial interpolation points:     min:  78 max: 114



 ======================
 RI Hartree-Fock Scheme
 ======================
  
 Fit Set Quality     : GOOD
 Integration Quality : GOOD
 Threshold Quality   : GOOD
 Response Quality    : DEFAULT
 Is Range Separated  :  F
 
 RIHartreeFock Dependency: number of modified vectors:          13



 =====
 S C F  ***  ScaSCF  ***
 =====
  
 Initial density matrix is taken from previous geometry

 CYCLE    1
  ***********************************************************
  ** : orbital data taken from :/tmp/amstmp_ams_kid0.1492863283/GOStep3.rkf
  ***********************************************************
 SCF Error: norm([F,P])=      0.000000051753, max([F,P])=      0.000000013257
 orbitals (Q,E):
 ---------------
 A :16...35          ( 2.00    -0.4112)  ( 2.00    -0.4112)  ( 2.00    -0.3961)  ( 2.00    -0.3960)
                     ( 2.00    -0.3782)  ( 2.00    -0.3782)  ( 2.00    -0.3782)  ( 2.00    -0.2961)
                     ( 2.00    -0.2961)  ( 2.00    -0.2961)  ( 0.00     0.0021)  ( 0.00     0.0402)
                     ( 0.00     0.0402)  ( 0.00     0.0402)  ( 0.00     0.0627)  ( 0.00     0.0627)
                     ( 0.00     0.0627)  ( 0.00     0.0971)  ( 0.00     0.0972)  ( 0.00     0.1216)

 CYCLE    2
  SDIIS (wt  0.000):  0.4845  0.5155
 A-DIIS (wt  1.000):  0.6322  0.3678
  DIIS coefficients:  0.6322  0.3678
 SCF Error: norm([F,P])=      0.000000048720, max([F,P])=      0.000000013047
 orbitals (Q,E):
 ---------------
 A :16...26          ( 2.00    -0.4112)  ( 2.00    -0.4112)  ( 2.00    -0.3961)  ( 2.00    -0.3960)
                     ( 2.00    -0.3782)  ( 2.00    -0.3782)  ( 2.00    -0.3782)  ( 2.00    -0.2961)
                     ( 2.00    -0.2961)  ( 2.00    -0.2961)  ( 0.00     0.0021)

 SCF CONVERGED

 CYCLE    3
1
 ***************************************************************************************************



                                                *******************
                                                *  R E S U L T S  *
                                                *******************
  
  
 Hartree-Fock exchange energy:   -45.3894580736884     
 *** Using FIT density in Focky
  SDIIS (wt  0.000): -0.2891  1.2891
 A-DIIS (wt  1.000):  0.5421  0.4579
  DIIS coefficients:  0.5421  0.4579
 SCF Error: norm([F,P])=      0.000000012855, max([F,P])=      0.000000003170

 Orbital Energies, per Irrep and Spin:
 ======================================
                        Occup              E (au)              E (eV)       Diff (eV) with prev. cycle
                        -----      --------------------        ------       --------------------------
 A
              16        2.000     -0.41124609289548E+00       -11.191               2.38E-08
              17        2.000     -0.41123386147702E+00       -11.190               1.70E-08
              18        2.000     -0.39605817121366E+00       -10.777               2.56E-08
              19        2.000     -0.39603610251542E+00       -10.777               1.54E-08
              20        2.000     -0.37822042342643E+00       -10.292               1.07E-08
              21        2.000     -0.37820878587440E+00       -10.292               2.14E-08
              22        2.000     -0.37820095707587E+00       -10.291               3.46E-08
              23        2.000     -0.29614883214455E+00        -8.059              -7.09E-09
              24        2.000     -0.29614208613747E+00        -8.058              -2.04E-09
              25        2.000     -0.29609372162767E+00        -8.057               3.31E-08
              26        0.000      0.20591650393320E-02         0.056
              27        0.000      0.40159310240316E-01         1.093
              28        0.000      0.40165191791314E-01         1.093
              29        0.000      0.40176561390798E-01         1.093
              30        0.000      0.62669317119026E-01         1.705
              31        0.000      0.62682027040770E-01         1.706
              32        0.000      0.62692484289916E-01         1.706
              33        0.000      0.97145439443917E-01         2.643
              34        0.000      0.97182420217009E-01         2.644
              35        0.000      0.12164806232700E+00         3.310
  
 HOMO :       25 A                -0.29609372162767E+00
 LUMO :       26 A                 0.20591650393320E-02
  


 All Electron Calculation, thus no Orbital Energies of the Core Orbitals are calculated


 Fit test: (difference of exact and fit density, squared integrated, result summed over spins)
         Sum-of-Fragments:                             0.00000000326334
         Orthogonalized Fragments:                     0.00001264014241
         SCF:                                          0.00003919293575



 ==========================
[...]
                              -0.544     0.502     0.673
                        -----------------------------------
 
================================================================================
 
 
===  TOTAL NMR SHIELDING TENSOR (ppm)
 
                        ***********************************
                        CARTESIAN AXIS REPRESENTATION

                        ==== total shielding tensor
                        -----------------------------------
                              33.739    -1.718    -4.352
                              -1.718    29.243     0.515
                              -4.352     0.515    32.184
                        -----------------------------------
                                  isotropic =     31.722

                        ***********************************
                        -----------------------------------
                        PRINCIPAL AXIS REPRESENTATION

                        ==== Principal components:

                              28.009    29.452    37.705
 
                        ==== Principal Axis System:

                               0.591    -0.265     0.762
                               0.597     0.779    -0.192
                               0.543    -0.568    -0.618
                        -----------------------------------
################################################################################
********************************************************************************
****  N U C L E U S : H(15)
 
 ADF-GUI atom: H(15)
 Internal NMR numbering of atoms: H(15)
 
 
================================================================================
 
 
===  PARAMAGNETIC NMR SHIELDING TENSORS (ppm)
 
    ===     paramagnetic b^(1) tensor       ===     paramagnetic u^(1) tensor
    -----------------------------------     -----------------------------------
           0.000     0.000     0.000               8.767     0.124    -2.370
           0.000     0.000     0.000               0.124     6.870    -1.192
           0.000     0.000     0.000              -2.370    -1.192   -17.411
    -----------------------------------     -----------------------------------
              isotropic =      0.000                  isotropic =     -0.592

    ===     paramagnetic s^(1) tensor       ===     paramagnetic gauge tensor
    -----------------------------------     -----------------------------------
          -7.734    -0.266     2.114               1.637    -0.004    -0.150
          -0.266    -4.836     1.234              -0.004     1.617    -0.064
           2.114     1.234    21.384              -0.150    -0.064     0.379
    -----------------------------------     -----------------------------------
              isotropic =      2.938                  isotropic =      1.211

                        ***********************************
                        CARTESIAN AXIS REPRESENTATION

                        ==== total paramagnetic tensor
                        -----------------------------------
                               2.671    -0.146    -0.407
                              -0.146     3.651    -0.022
                              -0.407    -0.022     4.351
                        -----------------------------------
                                  isotropic =      3.557

                        ***********************************
                        -----------------------------------
                        PRINCIPAL AXIS REPRESENTATION

                        ==== Principal components:

                               2.557     3.670     4.444
 
                        ==== Principal Axis System:

                              -0.966     0.127    -0.225
                              -0.134    -0.991     0.014
                              -0.221     0.043     0.974
                        -----------------------------------
 
================================================================================
 
 
===  DIAMAGNETIC NMR SHIELDING TENSORS (ppm)
 
    ===       diamagnetic core tensor       ===    diamagnetic valence tensor
    -----------------------------------     -----------------------------------
           0.000     0.000     0.000              27.142     0.416     2.104
           0.000     0.000     0.000               0.416    24.394     0.574
           0.000     0.000     0.000               2.104     0.574    32.944
    -----------------------------------     -----------------------------------
              isotropic =      0.000                  isotropic =     28.160

                        ***********************************
                        CARTESIAN AXIS REPRESENTATION

                        ==== total diamagnetic tensor
                        -----------------------------------
                              27.142     0.416     2.104
                               0.416    24.394     0.574
                               2.104     0.574    32.944
                        -----------------------------------
                                  isotropic =     28.160

                        ***********************************
                        -----------------------------------
                        PRINCIPAL AXIS REPRESENTATION

                        ==== Principal components:

                              24.323    26.481    33.676
 
                        ==== Principal Axis System:

                               0.119    -0.943     0.310
                              -0.992    -0.101     0.073
                               0.037     0.316     0.948
                        -----------------------------------
 
================================================================================
 
 
===  TOTAL NMR SHIELDING TENSOR (ppm)
 
                        ***********************************
                        CARTESIAN AXIS REPRESENTATION

                        ==== total shielding tensor
                        -----------------------------------
                              29.813     0.269     1.698
                               0.269    28.045     0.552
                               1.698     0.552    37.295
                        -----------------------------------
                                  isotropic =     31.717

                        ***********************************
                        -----------------------------------
                        PRINCIPAL AXIS REPRESENTATION

                        ==== Principal components:

                              27.993    29.461    37.699
 
                        ==== Principal Axis System:

                               0.111    -0.971     0.212
                              -0.993    -0.100     0.062
                               0.039     0.217     0.975
                        -----------------------------------
################################################################################
********************************************************************************
****  N U C L E U S : H(16)
 
 ADF-GUI atom: H(16)
 Internal NMR numbering of atoms: H(16)
 
 
================================================================================
 
 
===  PARAMAGNETIC NMR SHIELDING TENSORS (ppm)
 
    ===     paramagnetic b^(1) tensor       ===     paramagnetic u^(1) tensor
    -----------------------------------     -----------------------------------
           0.000     0.000     0.000              -8.590    10.759     5.081
           0.000     0.000     0.000              10.759     0.416    -4.596
           0.000     0.000     0.000               5.081    -4.596     6.392
    -----------------------------------     -----------------------------------
              isotropic =      0.000                  isotropic =     -0.594

    ===     paramagnetic s^(1) tensor       ===     paramagnetic gauge tensor
    -----------------------------------     -----------------------------------
          11.912   -11.434    -5.732               0.831     0.559     0.245
         -11.434     1.494     5.475               0.559     1.238    -0.191
          -5.732     5.475    -4.622               0.245    -0.191     1.564
    -----------------------------------     -----------------------------------
              isotropic =      2.928                  isotropic =      1.211

                        ***********************************
                        CARTESIAN AXIS REPRESENTATION

                        ==== total paramagnetic tensor
                        -----------------------------------
                               4.154    -0.115    -0.406
                              -0.115     3.148     0.688
                              -0.406     0.688     3.335
                        -----------------------------------
                                  isotropic =      3.546

                        ***********************************
                        -----------------------------------
                        PRINCIPAL AXIS REPRESENTATION

                        ==== Principal components:

                               2.526     3.659     4.452
 
                        ==== Principal Axis System:

                               0.117     0.585     0.802
                              -0.727     0.601    -0.333
                               0.677     0.544    -0.496
                        -----------------------------------
 
================================================================================
 
 
===  DIAMAGNETIC NMR SHIELDING TENSORS (ppm)
 
    ===       diamagnetic core tensor       ===    diamagnetic valence tensor
    -----------------------------------     -----------------------------------
           0.000     0.000     0.000              29.719    -4.308    -1.151
           0.000     0.000     0.000              -4.308    28.874    -0.291
           0.000     0.000     0.000              -1.151    -0.291    25.895
    -----------------------------------     -----------------------------------
              isotropic =      0.000                  isotropic =     28.163

                        ***********************************
                        CARTESIAN AXIS REPRESENTATION

                        ==== total diamagnetic tensor
                        -----------------------------------
                              29.719    -4.308    -1.151
                              -4.308    28.874    -0.291
                              -1.151    -0.291    25.895
                        -----------------------------------
                                  isotropic =     28.163

                        ***********************************
                        -----------------------------------
                        PRINCIPAL AXIS REPRESENTATION

                        ==== Principal components:

                              24.325    26.481    33.681
 
                        ==== Principal Axis System:

                              -0.591    -0.309     0.745
                              -0.595    -0.456    -0.662
                              -0.544     0.835    -0.085
                        -----------------------------------
 
================================================================================
 
 
===  TOTAL NMR SHIELDING TENSOR (ppm)
 
                        ***********************************
                        CARTESIAN AXIS REPRESENTATION

                        ==== total shielding tensor
                        -----------------------------------
                              33.873    -4.423    -1.557
                              -4.423    32.022     0.397
                              -1.557     0.397    29.230
                        -----------------------------------
                                  isotropic =     31.708

                        ***********************************
                        -----------------------------------
                        PRINCIPAL AXIS REPRESENTATION

                        ==== Principal components:

                              27.984    29.422    37.719
 
                        ==== Principal Axis System:

                               0.590    -0.235     0.773
                               0.592    -0.524    -0.612
                               0.549     0.819    -0.170
                        -----------------------------------
################################################################################
********************************************************************************
****  N U C L E U S : H(17)
 
 ADF-GUI atom: H(17)
 Internal NMR numbering of atoms: H(17)
 
 
================================================================================
 
 
===  PARAMAGNETIC NMR SHIELDING TENSORS (ppm)
 
    ===     paramagnetic b^(1) tensor       ===     paramagnetic u^(1) tensor
    -----------------------------------     -----------------------------------
           0.000     0.000     0.000              -3.224   -11.421     4.677
           0.000     0.000     0.000             -11.421    -4.096     6.315
           0.000     0.000     0.000               4.677     6.315     5.716
    -----------------------------------     -----------------------------------
              isotropic =      0.000                  isotropic =     -0.535

    ===     paramagnetic s^(1) tensor       ===     paramagnetic gauge tensor
    -----------------------------------     -----------------------------------
           6.181    12.223    -5.068               1.108    -0.577     0.201
          12.223     6.377    -7.380              -0.577     0.985     0.294
          -5.068    -7.380    -3.586               0.201     0.294     1.477
    -----------------------------------     -----------------------------------
              isotropic =      2.990                  isotropic =      1.190

                        ***********************************
                        CARTESIAN AXIS REPRESENTATION

                        ==== total paramagnetic tensor
                        -----------------------------------
                               4.065     0.224    -0.190
                               0.224     3.265    -0.770
                              -0.190    -0.770     3.607
                        -----------------------------------
                                  isotropic =      3.646

                        ***********************************
                        -----------------------------------
                        PRINCIPAL AXIS REPRESENTATION

                        ==== Principal components:

                               2.645     3.848     4.445
 
                        ==== Principal Axis System:

                               0.041     0.794    -0.606
                              -0.784    -0.351    -0.512
                              -0.619     0.496     0.608
                        -----------------------------------
 
================================================================================
 
 
===  DIAMAGNETIC NMR SHIELDING TENSORS (ppm)
 
    ===       diamagnetic core tensor       ===    diamagnetic valence tensor
    -----------------------------------     -----------------------------------
           0.000     0.000     0.000              27.714     3.920    -1.468
           0.000     0.000     0.000               3.920    30.875    -0.316
           0.000     0.000     0.000              -1.468    -0.316    25.892
    -----------------------------------     -----------------------------------
              isotropic =      0.000                  isotropic =     28.160

                        ***********************************
                        CARTESIAN AXIS REPRESENTATION

                        ==== total diamagnetic tensor
                        -----------------------------------
                              27.714     3.920    -1.468
                               3.920    30.875    -0.316
                              -1.468    -0.316    25.892
                        -----------------------------------
                                  isotropic =     28.160

                        ***********************************
                        -----------------------------------
                        PRINCIPAL AXIS REPRESENTATION

                        ==== Principal components:

                              24.320    26.487    33.674
 
                        ==== Principal Axis System:

                              -0.710    -0.417    -0.568
                               0.396     0.430    -0.811
                              -0.583     0.801     0.140
                        -----------------------------------
 
================================================================================
 
 
===  TOTAL NMR SHIELDING TENSOR (ppm)
 
                        ***********************************
                        CARTESIAN AXIS REPRESENTATION

                        ==== total shielding tensor
                        -----------------------------------
                              31.779     4.144    -1.658
                               4.144    34.140    -1.086
                              -1.658    -1.086    29.499
                        -----------------------------------
                                  isotropic =     31.806

                        ***********************************
                        -----------------------------------
                        PRINCIPAL AXIS REPRESENTATION

                        ==== Principal components:

                              28.176    29.547    37.696
 
                        ==== Principal Axis System:

                               0.717    -0.354    -0.600
                              -0.393     0.505    -0.768
                               0.575     0.787     0.223
                        -----------------------------------
 *******************************************************************************

                             N M R   E X I T
 NORMAL TERMINATION



 =================
 Timing Statistics
 =================
  
 Total Used :                     CPU=      164.47      System=        3.24     Elapsed=      174.63

 Calls  Section                     ( Mean, Percentage )
 ---------------------------------------------------------------------------------------------------
     3  ><      ................      0.00    0.00             0.00    0.02             0.00    0.00
     1  INIT    ................      0.60    0.36             0.03    0.84             0.76    0.43
     1  RDEIGX  ................     40.50   24.63             0.56   17.20            42.16   24.14
     1  AOF1K   ................      3.03    1.84             0.03    1.04             3.16    1.81
    16  AOPKK   ................      3.30   32.07             0.15   75.48             3.65   33.40
    16  XSIGP   ................      0.02    0.15             0.00    0.48             0.02    0.15
    16  AODKKK  ................      4.20   40.88             0.01    4.37             4.36   39.99
    16  XDV     ................      0.01    0.06             0.00    0.28             0.01    0.06
    16  XSIGD   ................      0.00    0.00             0.00    0.00             0.00    0.00
     1  EXIT PROCEDURE .........      0.00    0.00             0.01    0.28             0.01    0.01


 Currently Open Files (EXIT00)
 ====================

 Unit    Access Format  Status   Type       Ident (file)
 -------------------------------------------------------
   3      SEQ    FORM   TRANSP  NORMAL      LOGFILE
                                          ( /home/milias/Work/projects/open-collection/theoretical_chemistry/projects/nmr_diplomovky/reference_compounds/tetramethylsilane/ams/b3lyp_tz2p_good/no-solvent/TMS.geopt_freq_nmrshield_b3lyp_tz2p_good.logfile )
