 argument  1 = /home/milias/Work/open-collection/theoretical_chemistry/projects/nmr_diplomovky/derivaty_markerov/derivative_1_Martin/nwchem/geometry_optimization/6-311++g2d_2p/der1.geomopt_b3lyp_cosmo-chcl3_6-311++g2d_2p.nw
 


============================== echo of input deck ==============================
echo

start molecule

memory total 40 gb

print low

title "der1"
charge 0

dft
  mult 1
end

geometry units angstroms print xyz autosym
 # load format xyz der1.pbe0_tz2p_good_cosmo-chcl3_optimized_geom.xyz
  load format xyz der1_pbe0_geom_6-311++g2d_2p-038_converged.xyz
end

basis
  * library 6-311++G(2d,2p)
end

dft
  direct
  grid fine
  xc b3lyp
  mult 1
# Reduce output during geometry optimization
  noprint "final vectors analysis"
end

#end

driver
  tight
  maxiter 9999
  xyz der1_b3lyp_geom_6-311++g2d_2p
end

cosmo
  solvent chcl3
end

task dft optimize
================================================================================


                                         
                                         
 
 
             Northwest Computational Chemistry Package (NWChem) 7.0.1
             --------------------------------------------------------
 
 
                    Environmental Molecular Sciences Laboratory
                       Pacific Northwest National Laboratory
                                Richland, WA 99352
 
                              Copyright (c) 1994-2020
                       Pacific Northwest National Laboratory
                            Battelle Memorial Institute
 
             NWChem is an open-source computational chemistry package
                        distributed under the terms of the
                      Educational Community License (ECL) 2.0
             A copy of the license is included with this distribution
                              in the LICENSE.TXT file
 
                                  ACKNOWLEDGMENT
                                  --------------

            This software and its documentation were developed at the
            EMSL at Pacific Northwest National Laboratory, a multiprogram
            national laboratory, operated for the U.S. Department of Energy
            by Battelle under Contract Number DE-AC05-76RL01830. Support
            for this work was provided by the Department of Energy Office
            of Biological and Environmental Research, Office of Basic
            Energy Sciences, and the Office of Advanced Scientific Computing.


           Job information
           ---------------

    hostname        = comp37.grid.umb.sk
    program         = /home/milias/Work/qch/software/nwchem_suite/nwchem_master/bin/LINUX64/nwchem
    date            = Wed Oct 27 08:33:02 2021

    compiled        = Sat_Sep_11_13:54:11_2021
    source          = /home/milias/Work/qch/software/nwchem_suite/nwchem_master
    nwchem branch   = 7.0.0
    nwchem revision = nwchem_on_git-2853-g04c637f
    ga revision     = 5.8.0
    use scalapack   = F
    input           = /home/milias/Work/open-collection/theoretical_chemistry/projects/nmr_diplomovky/derivaty_markerov/derivative_1_Martin/nwchem/geometry_optimization/6-311++g2d_2p/der1.geomopt_b3lyp_cosmo-chcl3_6-311++g2d_2p.nw
    prefix          = molecule.
    data base       = ./molecule.db
    status          = startup
    nproc           =       12
    time left       =     -1s



           Memory information
           ------------------

    heap     = 1342177274 doubles =  10240.0 Mbytes
    stack    = 1342177279 doubles =  10240.0 Mbytes
    global   = 2684354560 doubles =  20480.0 Mbytes (distinct from heap & stack)
    total    = 5368709113 doubles =  40960.0 Mbytes
    verify   = yes
    hardfail = no 


           Directory information
           ---------------------
 
  0 permanent = .
  0 scratch   = .
 
 
 
 
                                NWChem Input Module
                                -------------------
 
 
                                       der1
                                       ----

 Scaling coordinates for geometry "geometry" by  1.889725989
 (inverse scale =  0.529177249)


          ------
          auto-z
          ------
  no constraints, skipping   0.000000000000000E+000
  no constraints, skipping   0.000000000000000E+000
 
 
                             Geometry "geometry" -> ""
                             -------------------------
 
 Output coordinates in angstroms (scale by  1.889725989 to convert to a.u.)
 
  No.       Tag          Charge          X              Y              Z
 ---- ---------------- ---------- -------------- -------------- --------------
    1 S                   16.0000     1.28165273    -0.05283397     0.59533057
    2 P                   15.0000    -0.12723416     1.00476345    -0.64451621
    3 O                    8.0000     0.66387245     2.34210053    -1.17136732
    4 O                    8.0000    -0.99675016     1.83136736     0.48730387
    5 C                    6.0000     0.50484312     3.48034363    -0.27855247
    6 C                    6.0000    -0.92088372     3.26841737     0.29800315
    7 C                    6.0000     1.59206556     3.42442939     0.78144006
    8 C                    6.0000     0.65128051     4.72961090    -1.12078143
    9 C                    6.0000    -2.02109220     3.66657574    -0.67359307
   10 C                    6.0000    -1.14357156     3.91597315     1.64824707
   11 H                    1.0000     1.58580541     4.33352915     1.38350066
   12 H                    1.0000     1.47106418     2.57326873     1.45178076
   13 H                    1.0000     2.56249186     3.34585723     0.29116708
   14 H                    1.0000    -0.00418697     4.70469387    -1.98944321
   15 H                    1.0000     0.41189718     5.61230271    -0.52501063
   16 H                    1.0000     1.68204843     4.82321419    -1.46439308
   17 H                    1.0000    -2.08175752     4.75049418    -0.77433951
   18 H                    1.0000    -1.85731713     3.23524747    -1.66238330
   19 H                    1.0000    -2.97549212     3.30455700    -0.29052624
   20 H                    1.0000    -1.00013944     4.99554033     1.57197753
   21 H                    1.0000    -2.16605331     3.73189120     1.97931785
   22 H                    1.0000    -0.45935312     3.52368845     2.39836087
   23 C                    6.0000     1.02163185    -1.71079890    -0.12861546
   24 C                    6.0000    -0.14279214    -2.44273501     0.51452715
   25 N                    7.0000    -0.28019918    -3.79466651    -0.00139937
   26 C                    6.0000     0.76893666    -4.69104512     0.50147281
   27 C                    6.0000     1.57386197    -5.36536940    -0.59678941
   28 C                    6.0000    -1.91053614    -5.59691176    -0.53404414
   29 C                    6.0000    -1.62276730    -4.31757168     0.22864724
   30 H                    1.0000     0.86740698    -1.60483299    -1.20321120
   31 H                    1.0000     1.96525031    -2.23603920     0.02021216
   32 H                    1.0000    -1.05964505    -1.89260415     0.28937842
   33 H                    1.0000    -0.02432164    -2.42450102     1.61061196
   34 H                    1.0000    -1.79932958    -4.48742671     1.30530433
   35 H                    1.0000    -2.33203171    -3.54944658    -0.08769252
   36 H                    1.0000    -1.78430529    -5.44903525    -1.60846720
   37 H                    1.0000    -2.93949855    -5.91235098    -0.35107934
   38 H                    1.0000    -1.25653075    -6.41375899    -0.22414432
   39 H                    1.0000     0.32086598    -5.45165548     1.15214353
   40 H                    1.0000     1.44875816    -4.12016916     1.14079195
   41 H                    1.0000     0.93499112    -5.97196079    -1.24046199
   42 H                    1.0000     2.33905100    -6.01589154    -0.16605281
   43 H                    1.0000     2.07095649    -4.62130738    -1.22235358
 
      Atomic Mass 
      ----------- 
 
      S                 31.972070
      P                 30.973760
      O                 15.994910
      C                 12.000000
      H                  1.007825
      N                 14.003070
 

 Effective nuclear repulsion energy (a.u.)    1617.0933582586

            Nuclear Dipole moment (a.u.) 
            ----------------------------
        X                 Y               Z
 ---------------- ---------------- ----------------
     0.0000000000     0.0000000000     0.0000000000
 


                                Z-matrix (autoz)
                                -------- 

 Units are Angstrom for bonds and degrees for angles
 
      Type          Name      I     J     K     L     M      Value
      ----------- --------  ----- ----- ----- ----- ----- ----------
    1 Stretch                  1     2                       2.15423
    2 Stretch                  1    23                       1.82772
    3 Stretch                  2     3                       1.64070
    4 Stretch                  2     4                       1.64935
    5 Stretch                  3     5                       1.45534
    6 Stretch                  4     6                       1.45145
    7 Stretch                  5     6                       1.55243
    8 Stretch                  5     7                       1.51946
    9 Stretch                  5     8                       1.51376
   10 Stretch                  6     9                       1.52085
   11 Stretch                  6    10                       1.51396
   12 Stretch                  7    11                       1.09040
   13 Stretch                  7    12                       1.09017
   14 Stretch                  7    13                       1.09008
   15 Stretch                  8    14                       1.08850
   16 Stretch                  8    15                       1.09151
   17 Stretch                  8    16                       1.09056
   18 Stretch                  9    17                       1.09028
   19 Stretch                  9    18                       1.09113
   20 Stretch                  9    19                       1.09026
   21 Stretch                 10    20                       1.09172
   22 Stretch                 10    21                       1.09040
   23 Stretch                 10    22                       1.08845
   24 Stretch                 23    24                       1.51830
   25 Stretch                 23    30                       1.09077
   26 Stretch                 23    31                       1.09016
   27 Stretch                 24    25                       1.45354
   28 Stretch                 24    32                       1.09268
   29 Stretch                 24    33                       1.10262
   30 Stretch                 25    26                       1.46869
   31 Stretch                 25    29                       1.45905
   32 Stretch                 26    27                       1.51947
   33 Stretch                 26    39                       1.09666
   34 Stretch                 26    40                       1.09398
   35 Stretch                 27    41                       1.09107
   36 Stretch                 27    42                       1.09281
   37 Stretch                 27    43                       1.09182
   38 Stretch                 28    29                       1.51698
   39 Stretch                 28    36                       1.09187
   40 Stretch                 28    37                       1.09167
   41 Stretch                 28    38                       1.09133
   42 Stretch                 29    34                       1.10418
   43 Stretch                 29    35                       1.09231
   44 Bend                     1     2     3               105.64240
   45 Bend                     1     2     4               101.29622
   46 Bend                     1    23    24               112.24858
   47 Bend                     1    23    30               108.79666
   48 Bend                     1    23    31               105.06042
   49 Bend                     2     1    23                97.14221
   50 Bend                     2     3     5               112.81893
   51 Bend                     2     4     6               112.28068
   52 Bend                     3     2     4                93.78705
   53 Bend                     3     5     6               102.79275
   54 Bend                     3     5     7               108.72331
   55 Bend                     3     5     8               107.07139
   56 Bend                     4     6     5               103.39127
   57 Bend                     4     6     9               107.74072
   58 Bend                     4     6    10               107.42597
   59 Bend                     5     6     9               113.04002
   60 Bend                     5     6    10               114.07449
   61 Bend                     5     7    11               110.51143
   62 Bend                     5     7    12               112.22652
   63 Bend                     5     7    13               109.01933
   64 Bend                     5     8    14               111.52265
   65 Bend                     5     8    15               110.02859
   66 Bend                     5     8    16               109.72907
   67 Bend                     6     5     7               113.14286
   68 Bend                     6     5     8               114.08795
   69 Bend                     6     9    17               111.07300
   70 Bend                     6     9    18               111.52190
   71 Bend                     6     9    19               108.77640
   72 Bend                     6    10    20               109.95788
   73 Bend                     6    10    21               109.66442
   74 Bend                     6    10    22               111.59343
   75 Bend                     7     5     8               110.44383
   76 Bend                     9     6    10               110.57184
   77 Bend                    11     7    12               108.10699
   78 Bend                    11     7    13               108.27260
   79 Bend                    12     7    13               108.60781
   80 Bend                    14     8    15               108.78590
   81 Bend                    14     8    16               108.64369
   82 Bend                    15     8    16               108.05065
   83 Bend                    17     9    18               108.51852
   84 Bend                    17     9    19               108.29247
   85 Bend                    18     9    19               108.57403
   86 Bend                    20    10    21               108.14074
   87 Bend                    20    10    22               108.78106
   88 Bend                    21    10    22               108.62522
   89 Bend                    23    24    25               111.74788
   90 Bend                    23    24    32               108.27167
   91 Bend                    23    24    33               109.31179
   92 Bend                    24    23    30               110.83694
   93 Bend                    24    23    31               111.94652
   94 Bend                    24    25    26               112.24703
   95 Bend                    24    25    29               111.36792
   96 Bend                    25    24    32               108.41007
   97 Bend                    25    24    33               112.23332
   98 Bend                    25    26    27               113.68984
   99 Bend                    25    26    39               109.54765
  100 Bend                    25    26    40               108.99638
  101 Bend                    25    29    28               113.42369
  102 Bend                    25    29    34               110.85508
  103 Bend                    25    29    35               107.44569
  104 Bend                    26    25    29               112.61805
  105 Bend                    26    27    41               111.28158
  106 Bend                    26    27    42               110.50019
  107 Bend                    26    27    43               110.66342
  108 Bend                    27    26    39               109.72390
  109 Bend                    27    26    40               108.95292
  110 Bend                    28    29    34               109.27928
  111 Bend                    28    29    35               108.92137
  112 Bend                    29    28    36               111.01342
  113 Bend                    29    28    37               109.76871
  114 Bend                    29    28    38               112.01103
  115 Bend                    30    23    31               107.67921
  116 Bend                    32    24    33               106.65807
  117 Bend                    34    29    35               106.66241
  118 Bend                    36    28    37               108.24162
  119 Bend                    36    28    38               108.15061
  120 Bend                    37    28    38               107.51656
  121 Bend                    39    26    40               105.61025
  122 Bend                    41    27    42               108.15472
  123 Bend                    41    27    43               107.90637
  124 Bend                    42    27    43               108.22277
  125 Torsion                  1     2     3     5         -89.85725
  126 Torsion                  1     2     4     6         119.92534
  127 Torsion                  1    23    24    25        -175.88940
  128 Torsion                  1    23    24    32          64.78441
  129 Torsion                  1    23    24    33         -51.03772
  130 Torsion                  2     1    23    24         -85.74201
  131 Torsion                  2     1    23    30          37.29700
  132 Torsion                  2     1    23    31         152.37118
  133 Torsion                  2     3     5     6         -32.36435
  134 Torsion                  2     3     5     7          87.80175
  135 Torsion                  2     3     5     8        -152.86492
  136 Torsion                  2     4     6     5         -32.59362
  137 Torsion                  2     4     6     9          87.31147
  138 Torsion                  2     4     6    10        -153.53907
  139 Torsion                  3     2     1    23        -132.64323
  140 Torsion                  3     2     4     6          13.14024
  141 Torsion                  3     5     6     4          38.74331
  142 Torsion                  3     5     6     9         -77.46461
  143 Torsion                  3     5     6    10         155.07325
  144 Torsion                  3     5     7    11         172.25821
  145 Torsion                  3     5     7    12         -66.98870
  146 Torsion                  3     5     7    13          53.37342
  147 Torsion                  3     5     8    14          51.84621
  148 Torsion                  3     5     8    15         172.65766
  149 Torsion                  3     5     8    16         -68.58496
  150 Torsion                  4     2     1    23         130.12551
  151 Torsion                  4     2     3     5          12.99247
  152 Torsion                  4     6     5     7         -78.32337
  153 Torsion                  4     6     5     8         154.29100
  154 Torsion                  4     6     9    17         174.00368
  155 Torsion                  4     6     9    18         -64.80891
  156 Torsion                  4     6     9    19          54.90809
  157 Torsion                  4     6    10    20         174.59485
  158 Torsion                  4     6    10    21         -66.61989
  159 Torsion                  4     6    10    22          53.79071
  160 Torsion                  5     6     9    17         -72.39908
  161 Torsion                  5     6     9    18          48.78833
  162 Torsion                  5     6     9    19         168.50533
  163 Torsion                  5     6    10    20          60.63455
  164 Torsion                  5     6    10    21         179.41980
  165 Torsion                  5     6    10    22         -60.16960
  166 Torsion                  6     5     7    11         -74.21822
  167 Torsion                  6     5     7    12          46.53486
  168 Torsion                  6     5     7    13         166.89698
  169 Torsion                  6     5     8    14         -61.17160
  170 Torsion                  6     5     8    15          59.63985
  171 Torsion                  6     5     8    16         178.39723
  172 Torsion                  7     5     6     9         165.46872
  173 Torsion                  7     5     6    10          38.00657
  174 Torsion                  7     5     8    14         170.06500
  175 Torsion                  7     5     8    15         -69.12356
  176 Torsion                  7     5     8    16          49.63383
  177 Torsion                  8     5     6     9          38.08308
  178 Torsion                  8     5     6    10         -89.37906
  179 Torsion                  8     5     7    11          55.05511
  180 Torsion                  8     5     7    12         175.80820
  181 Torsion                  8     5     7    13         -63.82968
  182 Torsion                  9     6    10    20         -68.08750
  183 Torsion                  9     6    10    21          50.69776
  184 Torsion                  9     6    10    22         171.10836
  185 Torsion                 10     6     9    17          56.87994
  186 Torsion                 10     6     9    18         178.06735
  187 Torsion                 10     6     9    19         -62.21565
  188 Torsion                 23    24    25    26          73.17309
  189 Torsion                 23    24    25    29        -159.50957
  190 Torsion                 24    25    26    27        -123.44483
  191 Torsion                 24    25    26    39         113.40280
  192 Torsion                 24    25    26    40          -1.69896
  193 Torsion                 24    25    29    28         168.03221
  194 Torsion                 24    25    29    34         -68.59401
  195 Torsion                 24    25    29    35          47.59604
  196 Torsion                 25    24    23    30          62.22747
  197 Torsion                 25    24    23    31         -58.01675
  198 Torsion                 25    26    27    41         -59.98927
  199 Torsion                 25    26    27    42         179.83663
  200 Torsion                 25    26    27    43          59.98097
  201 Torsion                 25    29    28    36         -58.10232
  202 Torsion                 25    29    28    37        -177.73148
  203 Torsion                 25    29    28    38          62.91053
  204 Torsion                 26    25    24    32        -167.58252
  205 Torsion                 26    25    24    33         -50.03731
  206 Torsion                 26    25    29    28         -64.85212
  207 Torsion                 26    25    29    34          58.52166
  208 Torsion                 26    25    29    35         174.71170
  209 Torsion                 27    26    25    29         109.90832
  210 Torsion                 29    25    24    32         -40.26518
  211 Torsion                 29    25    24    33          77.28003
  212 Torsion                 29    25    26    39         -13.24405
  213 Torsion                 29    25    26    40        -128.34581
  214 Torsion                 30    23    24    32         -57.09873
  215 Torsion                 30    23    24    33        -172.92086
  216 Torsion                 31    23    24    32        -177.34294
  217 Torsion                 31    23    24    33          66.83493
  218 Torsion                 34    29    28    36         177.66410
  219 Torsion                 34    29    28    37          58.03494
  220 Torsion                 34    29    28    38         -61.32305
  221 Torsion                 35    29    28    36          61.49484
  222 Torsion                 35    29    28    37         -58.13432
  223 Torsion                 35    29    28    38        -177.49231
  224 Torsion                 39    26    27    41          63.06665
  225 Torsion                 39    26    27    42         -57.10745
  226 Torsion                 39    26    27    43        -176.96311
  227 Torsion                 40    26    27    41         178.24072
  228 Torsion                 40    26    27    42          58.06662
  229 Torsion                 40    26    27    43         -61.78903
 
 
            XYZ format geometry
            -------------------
    43
 geometry
 S                     1.28165273    -0.05283397     0.59533057
 P                    -0.12723416     1.00476345    -0.64451621
 O                     0.66387245     2.34210053    -1.17136732
 O                    -0.99675016     1.83136736     0.48730387
 C                     0.50484312     3.48034363    -0.27855247
 C                    -0.92088372     3.26841737     0.29800315
 C                     1.59206556     3.42442939     0.78144006
 C                     0.65128051     4.72961090    -1.12078143
 C                    -2.02109220     3.66657574    -0.67359307
 C                    -1.14357156     3.91597315     1.64824707
 H                     1.58580541     4.33352915     1.38350066
 H                     1.47106418     2.57326873     1.45178076
 H                     2.56249186     3.34585723     0.29116708
 H                    -0.00418697     4.70469387    -1.98944321
 H                     0.41189718     5.61230271    -0.52501063
 H                     1.68204843     4.82321419    -1.46439308
 H                    -2.08175752     4.75049418    -0.77433951
 H                    -1.85731713     3.23524747    -1.66238330
 H                    -2.97549212     3.30455700    -0.29052624
 H                    -1.00013944     4.99554033     1.57197753
 H                    -2.16605331     3.73189120     1.97931785
 H                    -0.45935312     3.52368845     2.39836087
 C                     1.02163185    -1.71079890    -0.12861546
 C                    -0.14279214    -2.44273501     0.51452715
 N                    -0.28019918    -3.79466651    -0.00139937
 C                     0.76893666    -4.69104512     0.50147281
 C                     1.57386197    -5.36536940    -0.59678941
 C                    -1.91053614    -5.59691176    -0.53404414
 C                    -1.62276730    -4.31757168     0.22864724
 H                     0.86740698    -1.60483299    -1.20321120
 H                     1.96525031    -2.23603920     0.02021216
 H                    -1.05964505    -1.89260415     0.28937842
 H                    -0.02432164    -2.42450102     1.61061196
 H                    -1.79932958    -4.48742671     1.30530433
 H                    -2.33203171    -3.54944658    -0.08769252
 H                    -1.78430529    -5.44903525    -1.60846720
 H                    -2.93949855    -5.91235098    -0.35107934
 H                    -1.25653075    -6.41375899    -0.22414432
 H                     0.32086598    -5.45165548     1.15214353
 H                     1.44875816    -4.12016916     1.14079195
 H                     0.93499112    -5.97196079    -1.24046199
 H                     2.33905100    -6.01589154    -0.16605281
 H                     2.07095649    -4.62130738    -1.22235358
 
 ==============================================================================
                                internuclear distances
 ------------------------------------------------------------------------------
       center one      |      center two      | atomic units |  angstroms
 ------------------------------------------------------------------------------
    2 P                |   1 S                |     4.07090  |     2.15423
    3 O                |   2 P                |     3.10047  |     1.64070
    4 O                |   2 P                |     3.11682  |     1.64935
    5 C                |   3 O                |     2.75019  |     1.45534
    6 C                |   4 O                |     2.74284  |     1.45145
    6 C                |   5 C                |     2.93366  |     1.55243
    7 C                |   5 C                |     2.87137  |     1.51946
    8 C                |   5 C                |     2.86059  |     1.51376
    9 C                |   6 C                |     2.87399  |     1.52085
   10 C                |   6 C                |     2.86097  |     1.51396
   11 H                |   7 C                |     2.06056  |     1.09040
   12 H                |   7 C                |     2.06012  |     1.09017
   13 H                |   7 C                |     2.05995  |     1.09008
   14 H                |   8 C                |     2.05697  |     1.08850
   15 H                |   8 C                |     2.06265  |     1.09151
   16 H                |   8 C                |     2.06085  |     1.09056
   17 H                |   9 C                |     2.06033  |     1.09028
   18 H                |   9 C                |     2.06194  |     1.09113
   19 H                |   9 C                |     2.06030  |     1.09026
   20 H                |  10 C                |     2.06305  |     1.09172
   21 H                |  10 C                |     2.06055  |     1.09040
   22 H                |  10 C                |     2.05686  |     1.08845
   23 C                |   1 S                |     3.45389  |     1.82772
   24 C                |  23 C                |     2.86918  |     1.51830
   25 N                |  24 C                |     2.74679  |     1.45354
   26 C                |  25 N                |     2.77543  |     1.46869
   27 C                |  26 C                |     2.87139  |     1.51947
   29 C                |  25 N                |     2.75721  |     1.45905
   29 C                |  28 C                |     2.86667  |     1.51698
   30 H                |  23 C                |     2.06125  |     1.09077
   31 H                |  23 C                |     2.06010  |     1.09016
   32 H                |  24 C                |     2.06487  |     1.09268
   33 H                |  24 C                |     2.08365  |     1.10262
   34 H                |  29 C                |     2.08660  |     1.10418
   35 H                |  29 C                |     2.06417  |     1.09231
   36 H                |  28 C                |     2.06334  |     1.09187
   37 H                |  28 C                |     2.06296  |     1.09167
   38 H                |  28 C                |     2.06231  |     1.09133
   39 H                |  26 C                |     2.07239  |     1.09666
   40 H                |  26 C                |     2.06732  |     1.09398
   41 H                |  27 C                |     2.06181  |     1.09107
   42 H                |  27 C                |     2.06511  |     1.09281
   43 H                |  27 C                |     2.06323  |     1.09182
 ------------------------------------------------------------------------------
                         number of included internuclear distances:         43
 ==============================================================================



 ==============================================================================
                                 internuclear angles
 ------------------------------------------------------------------------------
        center 1       |       center 2       |       center 3       |  degrees
 ------------------------------------------------------------------------------
    2 P                |   1 S                |  23 C                |    97.14
    1 S                |   2 P                |   3 O                |   105.64
    1 S                |   2 P                |   4 O                |   101.30
    3 O                |   2 P                |   4 O                |    93.79
    2 P                |   3 O                |   5 C                |   112.82
    2 P                |   4 O                |   6 C                |   112.28
    3 O                |   5 C                |   6 C                |   102.79
    3 O                |   5 C                |   7 C                |   108.72
    3 O                |   5 C                |   8 C                |   107.07
    6 C                |   5 C                |   7 C                |   113.14
    6 C                |   5 C                |   8 C                |   114.09
    7 C                |   5 C                |   8 C                |   110.44
    4 O                |   6 C                |   5 C                |   103.39
    4 O                |   6 C                |   9 C                |   107.74
    4 O                |   6 C                |  10 C                |   107.43
    5 C                |   6 C                |   9 C                |   113.04
    5 C                |   6 C                |  10 C                |   114.07
    9 C                |   6 C                |  10 C                |   110.57
    5 C                |   7 C                |  11 H                |   110.51
    5 C                |   7 C                |  12 H                |   112.23
    5 C                |   7 C                |  13 H                |   109.02
   11 H                |   7 C                |  12 H                |   108.11
   11 H                |   7 C                |  13 H                |   108.27
   12 H                |   7 C                |  13 H                |   108.61
    5 C                |   8 C                |  14 H                |   111.52
    5 C                |   8 C                |  15 H                |   110.03
    5 C                |   8 C                |  16 H                |   109.73
   14 H                |   8 C                |  15 H                |   108.79
   14 H                |   8 C                |  16 H                |   108.64
   15 H                |   8 C                |  16 H                |   108.05
    6 C                |   9 C                |  17 H                |   111.07
    6 C                |   9 C                |  18 H                |   111.52
    6 C                |   9 C                |  19 H                |   108.78
   17 H                |   9 C                |  18 H                |   108.52
   17 H                |   9 C                |  19 H                |   108.29
   18 H                |   9 C                |  19 H                |   108.57
    6 C                |  10 C                |  20 H                |   109.96
    6 C                |  10 C                |  21 H                |   109.66
    6 C                |  10 C                |  22 H                |   111.59
   20 H                |  10 C                |  21 H                |   108.14
   20 H                |  10 C                |  22 H                |   108.78
   21 H                |  10 C                |  22 H                |   108.63
    1 S                |  23 C                |  24 C                |   112.25
    1 S                |  23 C                |  30 H                |   108.80
    1 S                |  23 C                |  31 H                |   105.06
   24 C                |  23 C                |  30 H                |   110.84
   24 C                |  23 C                |  31 H                |   111.95
   30 H                |  23 C                |  31 H                |   107.68
   23 C                |  24 C                |  25 N                |   111.75
   23 C                |  24 C                |  32 H                |   108.27
   23 C                |  24 C                |  33 H                |   109.31
   25 N                |  24 C                |  32 H                |   108.41
   25 N                |  24 C                |  33 H                |   112.23
   32 H                |  24 C                |  33 H                |   106.66
   24 C                |  25 N                |  26 C                |   112.25
   24 C                |  25 N                |  29 C                |   111.37
   26 C                |  25 N                |  29 C                |   112.62
   25 N                |  26 C                |  27 C                |   113.69
   25 N                |  26 C                |  39 H                |   109.55
   25 N                |  26 C                |  40 H                |   109.00
   27 C                |  26 C                |  39 H                |   109.72
   27 C                |  26 C                |  40 H                |   108.95
   39 H                |  26 C                |  40 H                |   105.61
   26 C                |  27 C                |  41 H                |   111.28
   26 C                |  27 C                |  42 H                |   110.50
   26 C                |  27 C                |  43 H                |   110.66
   41 H                |  27 C                |  42 H                |   108.15
   41 H                |  27 C                |  43 H                |   107.91
   42 H                |  27 C                |  43 H                |   108.22
   29 C                |  28 C                |  36 H                |   111.01
   29 C                |  28 C                |  37 H                |   109.77
   29 C                |  28 C                |  38 H                |   112.01
   36 H                |  28 C                |  37 H                |   108.24
   36 H                |  28 C                |  38 H                |   108.15
   37 H                |  28 C                |  38 H                |   107.52
   25 N                |  29 C                |  28 C                |   113.42
   25 N                |  29 C                |  34 H                |   110.86
   25 N                |  29 C                |  35 H                |   107.45
   28 C                |  29 C                |  34 H                |   109.28
   28 C                |  29 C                |  35 H                |   108.92
   34 H                |  29 C                |  35 H                |   106.66
 ------------------------------------------------------------------------------
                            number of included internuclear angles:         81
 ==============================================================================





 Summary of "ao basis" -> "" (cartesian)
 ------------------------------------------------------------------------------
       Tag                 Description            Shells   Functions and Types
 ---------------- ------------------------------  ------  ---------------------
 *                      6-311++G(2d,2p)               on all atoms 


 
 
                           NWChem Geometry Optimization
                           ----------------------------
 
 
 
 
                                       der1
 
 
  no constraints, skipping   0.000000000000000E+000
 maximum gradient threshold         (gmax) =   0.000015
 rms gradient threshold             (grms) =   0.000010
 maximum cartesian step threshold   (xmax) =   0.000060
 rms cartesian step threshold       (xrms) =   0.000040
 fixed trust radius                (trust) =   0.300000
 maximum step size to saddle      (sadstp) =   0.100000
 energy precision                  (eprec) =   5.0D-06
 maximum number of steps          (nptopt) = 9999
 initial hessian option           (inhess) =    0
 line search option               (linopt) =    1
 hessian update option            (modupd) =    1
 saddle point option              (modsad) =    0
 initial eigen-mode to follow     (moddir) =    0
 initial variable to follow       (vardir) =    0
 follow first negative mode     (firstneg) =    T
 apply conjugacy                    (opcg) =    F
 source of zmatrix                         =   autoz   


          -------------------
          Energy Minimization
          -------------------

 
 Names of Z-matrix variables 
    1              2              3              4              5         
    6              7              8              9             10         
   11             12             13             14             15         
   16             17             18             19             20         
   21             22             23             24             25         
   26             27             28             29             30         
   31             32             33             34             35         
   36             37             38             39             40         
   41             42             43             44             45         
   46             47             48             49             50         
   51             52             53             54             55         
   56             57             58             59             60         
   61             62             63             64             65         
   66             67             68             69             70         
   71             72             73             74             75         
   76             77             78             79             80         
   81             82             83             84             85         
   86             87             88             89             90         
   91             92             93             94             95         
   96             97             98             99            100         
  101            102            103            104            105         
  106            107            108            109            110         
  111            112            113            114            115         
  116            117            118            119            120         
  121            122            123            124            125         
  126            127            128            129            130         
  131            132            133            134            135         
  136            137            138            139            140         
  141            142            143            144            145         
  146            147            148            149            150         
  151            152            153            154            155         
  156            157            158            159            160         
  161            162            163            164            165         
  166            167            168            169            170         
  171            172            173            174            175         
  176            177            178            179            180         
  181            182            183            184            185         
  186            187            188            189            190         
  191            192            193            194            195         
  196            197            198            199            200         
  201            202            203            204            205         
  206            207            208            209            210         
  211            212            213            214            215         
  216            217            218            219            220         
  221            222            223            224            225         
  226            227            228            229         
 
 Variables with the same non-blank name are constrained to be equal
 
 
 Using diagonal initial Hessian 
 Scaling for Hessian diagonals: bonds = 1.00  angles = 0.25  torsions = 0.10

          --------
          Step   0
          --------
 
                                 NWChem DFT Module
                                 -----------------
 
 
                                       der1
 
 
                      Basis "ao basis" -> "ao basis" (cartesian)
                      -----
  S (Sulphur)
  -----------
            Exponent  Coefficients 
       -------------- ---------------------------------------------------------
  1 S  9.34134000E+04  0.000743
  1 S  1.39617000E+04  0.005793
  1 S  3.16991000E+03  0.029954
  1 S  9.02456000E+02  0.119028
  1 S  2.97158000E+02  0.368432
  1 S  1.08702000E+02  0.577299
 
  2 S  1.08702000E+02  0.143186
  2 S  4.31553000E+01  0.624465
  2 S  1.81079000E+01  0.283366
 
  3 S  5.56009000E+00  1.000000
 
  4 S  2.13183000E+00  1.000000
 
  5 S  4.20403000E-01  1.000000
 
  6 S  1.36045000E-01  1.000000
 
  7 P  4.95040000E+02  0.008309
  7 P  1.17221000E+02  0.064024
  7 P  3.77749000E+01  0.277614
  7 P  1.40584000E+01  0.745076
 
  8 P  5.56574000E+00  0.613712
  8 P  2.26297000E+00  0.443818
 
  9 P  8.07994000E-01  1.000000
 
 10 P  2.77460000E-01  1.000000
 
 11 P  7.71410000E-02  1.000000
 
 12 S  4.05000000E-02  1.000000
 
 13 P  4.05000000E-02  1.000000
 
 14 D  1.30000000E+00  1.000000
 
 15 D  3.25000000E-01  1.000000
 
  P (Phosphorous)
  ---------------
            Exponent  Coefficients 
       -------------- ---------------------------------------------------------
  1 S  7.74924000E+04  0.000781
  1 S  1.16058000E+04  0.006068
  1 S  2.64596000E+03  0.031160
  1 S  7.54976000E+02  0.123431
  1 S  2.48755000E+02  0.378209
  1 S  9.11565000E+01  0.563262
 
  2 S  9.11565000E+01  0.160255
  2 S  3.62257000E+01  0.627647
  2 S  1.52113000E+01  0.263849
 
  3 S  4.79417000E+00  1.000000
 
  4 S  1.80793000E+00  1.000000
 
  5 S  3.56816000E-01  1.000000
 
  6 S  1.14783000E-01  1.000000
 
  7 P  3.84843000E+02  0.009206
  7 P  9.05521000E+01  0.069874
  7 P  2.91339000E+01  0.292470
  7 P  1.08862000E+01  0.728103
 
  8 P  4.35259000E+00  0.628349
  8 P  1.77706000E+00  0.428044
 
  9 P  6.97005000E-01  1.000000
 
 10 P  2.53532000E-01  1.000000
 
 11 P  6.84930000E-02  1.000000
 
 12 S  3.48000000E-02  1.000000
 
 13 P  3.48000000E-02  1.000000
 
 14 D  1.10000000E+00  1.000000
 
 15 D  2.75000000E-01  1.000000
 
  O (Oxygen)
  ----------
            Exponent  Coefficients 
       -------------- ---------------------------------------------------------
  1 S  8.58850000E+03  0.001895
  1 S  1.29723000E+03  0.014386
  1 S  2.99296000E+02  0.070732
  1 S  8.73771000E+01  0.240001
  1 S  2.56789000E+01  0.594797
  1 S  3.74004000E+00  0.280802
 
  2 S  4.21175000E+01  0.113889
  2 S  9.62837000E+00  0.920811
  2 S  2.85332000E+00 -0.003274
 
  3 P  4.21175000E+01  0.036511
  3 P  9.62837000E+00  0.237153
  3 P  2.85332000E+00  0.819702
 
  4 S  9.05661000E-01  1.000000
 
  5 P  9.05661000E-01  1.000000
 
  6 S  2.55611000E-01  1.000000
 
  7 P  2.55611000E-01  1.000000
 
  8 S  8.45000000E-02  1.000000
 
  9 P  8.45000000E-02  1.000000
 
 10 D  2.58400000E+00  1.000000
 
 11 D  6.46000000E-01  1.000000
 
  C (Carbon)
  ----------
            Exponent  Coefficients 
       -------------- ---------------------------------------------------------
  1 S  4.56324000E+03  0.001967
  1 S  6.82024000E+02  0.015231
  1 S  1.54973000E+02  0.076127
  1 S  4.44553000E+01  0.260801
  1 S  1.30290000E+01  0.616462
  1 S  1.82773000E+00  0.221006
 
  2 S  2.09642000E+01  0.114660
  2 S  4.80331000E+00  0.919999
  2 S  1.45933000E+00 -0.003031
 
  3 P  2.09642000E+01  0.040249
  3 P  4.80331000E+00  0.237594
  3 P  1.45933000E+00  0.815854
 
  4 S  4.83456000E-01  1.000000
 
  5 P  4.83456000E-01  1.000000
 
  6 S  1.45585000E-01  1.000000
 
  7 P  1.45585000E-01  1.000000
 
  8 S  4.38000000E-02  1.000000
 
  9 P  4.38000000E-02  1.000000
 
 10 D  1.25200000E+00  1.000000
 
 11 D  3.13000000E-01  1.000000
 
  H (Hydrogen)
  ------------
            Exponent  Coefficients 
       -------------- ---------------------------------------------------------
  1 S  3.38650000E+01  0.025494
  1 S  5.09479000E+00  0.190373
  1 S  1.15879000E+00  0.852161
 
  2 S  3.25840000E-01  1.000000
 
  3 S  1.02741000E-01  1.000000
 
  4 S  3.60000000E-02  1.000000
 
  5 P  1.50000000E+00  1.000000
 
  6 P  3.75000000E-01  1.000000
 
  N (Nitrogen)
  ------------
            Exponent  Coefficients 
       -------------- ---------------------------------------------------------
  1 S  6.29348000E+03  0.001970
  1 S  9.49044000E+02  0.014961
  1 S  2.18776000E+02  0.073501
  1 S  6.36916000E+01  0.248937
  1 S  1.88282000E+01  0.602460
  1 S  2.72023000E+00  0.256202
 
  2 S  3.06331000E+01  0.111906
  2 S  7.02614000E+00  0.921666
  2 S  2.11205000E+00 -0.002569
 
  3 P  3.06331000E+01  0.038312
  3 P  7.02614000E+00  0.237403
  3 P  2.11205000E+00  0.817592
 
  4 S  6.84009000E-01  1.000000
 
  5 P  6.84009000E-01  1.000000
 
  6 S  2.00878000E-01  1.000000
 
  7 P  2.00878000E-01  1.000000
 
  8 S  6.39000000E-02  1.000000
 
  9 P  6.39000000E-02  1.000000
 
 10 D  1.82600000E+00  1.000000
 
 11 D  4.56500000E-01  1.000000
 


 Summary of "ao basis" -> "ao basis" (cartesian)
 ------------------------------------------------------------------------------
       Tag                 Description            Shells   Functions and Types
 ---------------- ------------------------------  ------  ---------------------
 S                      6-311++G(2d,2p)             15       37   7s6p2d
 P                      6-311++G(2d,2p)             15       37   7s6p2d
 O                      6-311++G(2d,2p)             11       29   5s4p2d
 C                      6-311++G(2d,2p)             11       29   5s4p2d
 H                      6-311++G(2d,2p)              6       10   4s2p
 N                      6-311++G(2d,2p)             11       29   5s4p2d


 
 
 solvent parameters
 solvname_short: chcl3   
 solvname_long:  chloroform                         
 dielec:        4.7113
 dielecinf:     2.0906

          ---------------
          -cosmo- solvent
          ---------------
 Cosmo: York-Karplus, doi: 10.1021/jp992097l
 dielectric constant -eps-     =   4.71
 screen = (eps-1)/(eps    )    =   0.78774
 surface charge correction     = lagrangian
 -lineq- algorithm             =   0
 -bem- low  level              =   2
 -bem- from -octahedral-
 gaussian surface charge width =   0.98000
 degree of switching           =   1.00000
 switching function tolerance  =   0.00010
 atomic radii = 
 --------------
    1 16.000  2.160
    2 15.000  2.106
    3  8.000  1.720
    4  8.000  1.720
    5  6.000  2.000
    6  6.000  2.000
    7  6.000  2.000
    8  6.000  2.000
    9  6.000  2.000
   10  6.000  2.000
   11  1.000  1.300
   12  1.000  1.300
   13  1.000  1.300
   14  1.000  1.300
   15  1.000  1.300
   16  1.000  1.300
   17  1.000  1.300
   18  1.000  1.300
   19  1.000  1.300
   20  1.000  1.300
   21  1.000  1.300
   22  1.000  1.300
   23  6.000  2.000
   24  6.000  2.000
   25  7.000  1.830
   26  6.000  2.000
   27  6.000  2.000
   28  6.000  2.000
   29  6.000  2.000
   30  1.000  1.300
   31  1.000  1.300
   32  1.000  1.300
   33  1.000  1.300
   34  1.000  1.300
   35  1.000  1.300
   36  1.000  1.300
   37  1.000  1.300
   38  1.000  1.300
   39  1.000  1.300
   40  1.000  1.300
   41  1.000  1.300
   42  1.000  1.300
   43  1.000  1.300

 solvent accessible surface
 --------------------------

 ---------- ATOMIC COORDINATES (A.U.) ------------ VDWR(ANG.) --
     1    2.42197248   -0.09984172    1.12501165     2.160
     2   -0.24043770    1.89872760   -1.21795904     2.106
     3    1.25453702    4.42592824   -2.21356326     1.720
     4   -1.88358467    3.46078249    0.92087079     1.720
     5    0.95401516    6.57689580   -0.52638784     2.000
     6   -1.74021790    6.17641325    0.56314430     2.000
     7    3.00856766    6.47123321    1.47670759     2.000
     8    1.23074170    8.93766864   -2.11796980     2.000
     9   -3.81931045    6.92882347   -1.27290633     2.000
    10   -2.16103690    7.40011624    3.11473533     2.000
    11    2.99673770    8.18918266    2.61443716     1.300
    12    2.77990821    4.86277279    2.74346784     1.300
    13    4.84240746    6.32275336    0.55022600     1.300
    14   -0.00791223    8.89058227   -3.75950253     1.300
    15    0.77837280   10.60571428   -0.99212624     1.300
    16    3.17861064    9.11455321   -2.76730166     1.300
    17   -3.93395129    8.97713231   -1.46328949     1.300
    18   -3.50982045    6.11373122   -3.14144892     1.300
    19   -5.62286478    6.24470724   -0.54901498     1.300
    20   -1.88998949    9.44020238    2.97060679     1.300
    21   -4.09324723    7.05225179    3.74036839     1.300
    22   -0.86805153    6.65880565    4.53224487     1.300
    23    1.93060426   -3.23294115   -0.24304798     2.000
    24   -0.26983802   -4.61609983    0.97231532     2.000
    25   -0.52949968   -7.17087991   -0.00264442     1.830
    26    1.45307960   -8.86478988    0.94764620     2.000
    27    2.97416787  -10.13907800   -1.12776846     2.000
    28   -3.61038980  -10.57662961   -1.00919709     2.000
    29   -3.06658555   -8.15902740    0.43208063     2.000
    30    1.63916151   -3.03269461   -2.27373947     1.300
    31    3.71378458   -4.22550140    0.03819544     1.300
    32   -2.00243879   -3.57650324    0.54684592     1.300
    33   -0.04596124   -4.58164259    3.04361527     1.300
    34   -3.40023987   -8.48000688    2.46666752     1.300
    35   -4.40690092   -6.70748144   -0.16571483     1.300
    36   -3.37184807  -10.29718353   -3.03956226     1.300
    37   -5.55484680  -11.17272330   -0.66344375     1.300
    38   -2.37449881  -12.12024704   -0.42357135     1.300
    39    0.60634878  -10.30213503    2.17723557     1.300
    40    2.73775595   -7.78599074    2.15578420     1.300
    41    1.76687701  -11.28536951   -2.34413325     1.300
    42    4.42016547  -11.36838658   -0.31379431     1.300
    43    3.91354030   -8.73300466   -2.30991332     1.300
 number of segments per atom =         32
 number of   points per atom =         32
 atom (   nspa,  nppa )
 ----------------------
    1 (     15,     0 )       0
    2 (     15,     0 )       0
    3 (     10,     0 )       0
    4 (      9,     0 )       0
    5 (      2,     0 )       0
    6 (      2,     0 )       0
    7 (     14,     0 )       0
    8 (     15,     0 )       0
    9 (     12,     0 )       0
   10 (     13,     0 )       0
   11 (     12,     0 )       0
   12 (      9,     0 )       0
   13 (     14,     0 )       0
   14 (     13,     0 )       0
   15 (     15,     0 )       0
   16 (     13,     0 )       0
   17 (     14,     0 )       0
   18 (     14,     0 )       0
   19 (     14,     0 )       0
   20 (     16,     0 )       0
   21 (     13,     0 )       0
   22 (     12,     0 )       0
   23 (      9,     0 )       0
   24 (      7,     0 )       0
   25 (      5,     0 )       0
   26 (     10,     0 )       0
   27 (     18,     0 )       0
   28 (     13,     0 )       0
   29 (      9,     0 )       0
   30 (     15,     0 )       0
   31 (     13,     0 )       0
   32 (     14,     0 )       0
   33 (     16,     0 )       0
   34 (     14,     0 )       0
   35 (     14,     0 )       0
   36 (     16,     0 )       0
   37 (     13,     0 )       0
   38 (     13,     0 )       0
   39 (     12,     0 )       0
   40 (     13,     0 )       0
   41 (     15,     0 )       0
   42 (     15,     0 )       0
   43 (     16,     0 )       0
 number of -cosmo- surface points =      536
 molecular surface =    327.617 angstrom**2
 molecular volume  =    182.786 angstrom**3
 G(cav/disp)       =      2.498 kcal/mol
 ...... end of -cosmo- initialization ......


  Caching 1-el integrals 
 
 WARNING : Found     3 linear dependencies 
 S eigenvalue threshold:     1.00000E-05
 Smallest S eigenvalue :     2.90804E-06
 Largest  S eigenvalue :     7.16131E-06
 
   Time after variat. SCF:    260.3
   Time prior to 1st pass:    260.3
  Resetting Diis


         Total DFT energy =    -1418.021213781324
      One electron energy =    -5160.075115964725
           Coulomb energy =     2272.192283426157
    Exchange-Corr. energy =     -148.279221308462
 Nuclear repulsion energy =     1617.093358258623

             COSMO energy =        1.047481807083

 Numeric. integr. density =      152.000041627144

     Total iterative time =  10715.7s


                                   COSMO solvation results
                                   -----------------------

                 gas phase energy =     -1418.010169731687
                 sol phase energy =     -1418.021213781324
 (electrostatic) solvation energy =         0.011044049637 (    6.93 kcal/mol)


                         DFT ENERGY GRADIENTS

    atom               coordinates                        gradient
                 x          y          z           x          y          z
   1 S       2.421972  -0.099842   1.125012   -0.005658  -0.001808  -0.005648
   2 P      -0.240438   1.898728  -1.217959    0.003967   0.005698   0.006264
   3 O       1.254537   4.425928  -2.213563   -0.002939   0.001887   0.005017
   4 O      -1.883585   3.460782   0.920871    0.002929   0.004207  -0.002956
   5 C       0.954015   6.576896  -0.526388   -0.000442  -0.004227  -0.001333
   6 C      -1.740218   6.176413   0.563144    0.000915  -0.004227  -0.000808
   7 C       3.008568   6.471233   1.476708   -0.004228  -0.000084  -0.003685
   8 C       1.230742   8.937669  -2.117970   -0.000813  -0.004325   0.002826
   9 C      -3.819310   6.928823  -1.272906    0.004296  -0.001404   0.003117
  10 C      -2.161037   7.400116   3.114735    0.001107  -0.002199  -0.004639
  11 H       2.996738   8.189183   2.614437   -0.000462   0.000869   0.000340
  12 H       2.779908   4.862773   2.743468   -0.000771  -0.001476   0.000563
  13 H       4.842407   6.322753   0.550226    0.000517  -0.000072  -0.000706
  14 H      -0.007912   8.890582  -3.759503   -0.001011  -0.000438  -0.000627
  15 H       0.778373  10.605714  -0.992126   -0.000346   0.000299   0.000861
  16 H       3.178611   9.114553  -2.767302    0.000783  -0.000214   0.000031
  17 H      -3.933951   8.977132  -1.463289    0.000396   0.000949   0.000152
  18 H      -3.509820   6.113731  -3.141449    0.000774  -0.000708  -0.000877
  19 H      -5.622865   6.244707  -0.549015   -0.000457  -0.000393   0.000601
  20 H      -1.889989   9.440202   2.970607    0.000287   0.000688  -0.000548
  21 H      -4.093247   7.052252   3.740368   -0.000755  -0.000244  -0.000127
  22 H      -0.868052   6.658806   4.532245    0.001070  -0.000608   0.000367
  23 C       1.930604  -3.232941  -0.243048   -0.003458   0.003329   0.003893
  24 C      -0.269838  -4.616100   0.972315    0.002768  -0.004167  -0.002384
  25 N      -0.529500  -7.170880  -0.002644    0.000262  -0.000241   0.001852
  26 C       1.453080  -8.864790   0.947646   -0.002904   0.002113  -0.005353
  27 C       2.974168 -10.139078  -1.127768   -0.002527   0.002221   0.003194
  28 C      -3.610390 -10.576630  -1.009197    0.001559   0.004184   0.002113
  29 C      -3.066586  -8.159027   0.432081    0.005434  -0.001521  -0.001687
  30 H       1.639162  -3.032695  -2.273739   -0.000299   0.000541  -0.001147
  31 H       3.713785  -4.225501   0.038195    0.001192  -0.000593   0.000423
  32 H      -2.002439  -3.576503   0.546846   -0.001073   0.000641  -0.000495
  33 H      -0.045961  -4.581643   3.043615    0.000270   0.000123   0.000647
  34 H      -3.400240  -8.480007   2.466668    0.000111  -0.000102   0.000444
  35 H      -4.406901  -6.707481  -0.165715   -0.000376   0.000912  -0.000403
  36 H      -3.371848 -10.297184  -3.039562    0.000160   0.000231  -0.000606
  37 H      -5.554847 -11.172723  -0.663444   -0.000453   0.000014   0.000203
  38 H      -2.374499 -12.120247  -0.423571    0.000869  -0.000454   0.000456
  39 H       0.606349 -10.302135   2.177236   -0.000809  -0.000564   0.000438
  40 H       2.737756  -7.785991   2.155784    0.000497   0.001027   0.000568
  41 H       1.766877 -11.285370  -2.344133   -0.000803  -0.000357  -0.000345
  42 H       4.420165 -11.368387  -0.313794    0.000245  -0.000215   0.000295
  43 H       3.913540  -8.733005  -2.309913    0.000178   0.000704  -0.000290
 
  no constraints, skipping   0.000000000000000E+000

@ Step       Energy      Delta E   Gmax     Grms     Xrms     Xmax   Walltime
@ ---- ---------------- -------- -------- -------- -------- -------- --------
@    0   -1418.02121378  0.0D+00  0.00873  0.00198  0.00000  0.00000  11799.0
                                                                    

  no constraints, skipping   0.000000000000000E+000
  no constraints, skipping   0.000000000000000E+000
  no constraints, skipping   0.000000000000000E+000
  no constraints, skipping   0.000000000000000E+000
  no constraints, skipping   0.000000000000000E+000
  no constraints, skipping   0.000000000000000E+000
  no constraints, skipping   0.000000000000000E+000
  no constraints, skipping   0.000000000000000E+000
 
                                 NWChem DFT Module
                                 -----------------
 
 
                                       der1
 
 
 
 
 solvent parameters
 solvname_short: chcl3   
 solvname_long:  chloroform                         
 dielec:        4.7113
 dielecinf:     2.0906

          ---------------
          -cosmo- solvent
          ---------------
 Cosmo: York-Karplus, doi: 10.1021/jp992097l
 dielectric constant -eps-     =   4.71
 screen = (eps-1)/(eps    )    =   0.78774
 surface charge correction     = lagrangian
 -lineq- algorithm             =   0
 -bem- low  level              =   2
 -bem- from -octahedral-
 gaussian surface charge width =   0.98000
 degree of switching           =   1.00000
 switching function tolerance  =   0.00010
 atomic radii = 
 --------------
    1 16.000  2.160
    2 15.000  2.106
    3  8.000  1.720
    4  8.000  1.720
    5  6.000  2.000
    6  6.000  2.000
    7  6.000  2.000
    8  6.000  2.000
    9  6.000  2.000
   10  6.000  2.000
   11  1.000  1.300
   12  1.000  1.300
   13  1.000  1.300
   14  1.000  1.300
   15  1.000  1.300
   16  1.000  1.300
   17  1.000  1.300
   18  1.000  1.300
   19  1.000  1.300
   20  1.000  1.300
   21  1.000  1.300
   22  1.000  1.300
   23  6.000  2.000
   24  6.000  2.000
   25  7.000  1.830
   26  6.000  2.000
   27  6.000  2.000
   28  6.000  2.000
   29  6.000  2.000
   30  1.000  1.300
   31  1.000  1.300
   32  1.000  1.300
   33  1.000  1.300
   34  1.000  1.300
   35  1.000  1.300
   36  1.000  1.300
   37  1.000  1.300
   38  1.000  1.300
   39  1.000  1.300
   40  1.000  1.300
   41  1.000  1.300
   42  1.000  1.300
   43  1.000  1.300

 solvent accessible surface
 --------------------------

 ---------- ATOMIC COORDINATES (A.U.) ------------ VDWR(ANG.) --
     1    2.42062137   -0.11225548    1.10637427     2.160
     2   -0.24045007    1.94424647   -1.22896663     2.106
     3    1.25795650    4.49232228   -2.21442604     1.720
     4   -1.88645585    3.52487034    0.91615322     1.720
     5    0.96326941    6.67503564   -0.52347728     2.000
     6   -1.75150743    6.26894013    0.57162425     2.000
     7    3.03910015    6.58252152    1.48114230     2.000
     8    1.25395854    9.04438876   -2.12693456     2.000
     9   -3.85215427    7.02338306   -1.26392325     2.000
    10   -2.18935278    7.49384724    3.13663568     2.000
    11    3.03554572    8.30395884    2.60881438     1.300
    12    2.82711533    4.98767181    2.76051539     1.300
    13    4.86784902    6.43134235    0.55004157     1.300
    14    0.02287148    9.00482752   -3.77032026     1.300
    15    0.80961182   10.71859853   -1.01125550     1.300
    16    3.20084980    9.21368351   -2.77467126     1.300
    17   -3.98070674    9.06877663   -1.44833594     1.300
    18   -3.55426266    6.22107365   -3.13604847     1.300
    19   -5.64971187    6.33112137   -0.53892468     1.300
    20   -1.92929389    9.53383322    3.00258570     1.300
    21   -4.11972574    7.13794558    3.75658991     1.300
    22   -0.90389693    6.76029210    4.56027748     1.300
    23    1.93812240   -3.27443757   -0.25598917     2.000
    24   -0.26389842   -4.68819338    0.95517646     2.000
    25   -0.52081288   -7.26912830   -0.01142353     1.830
    26    1.47860646   -8.97256936    0.95034747     2.000
    27    3.01667648  -10.26491706   -1.11864965     2.000
    28   -3.66163232  -10.68775030   -1.01036128     2.000
    29   -3.08128679   -8.25752283    0.42103600     2.000
    30    1.65174707   -3.08283587   -2.28465953     1.300
    31    3.72403804   -4.25216592    0.03070832     1.300
    32   -1.99802950   -3.66177211    0.52266806     1.300
    33   -0.04824400   -4.64899222    3.02525232     1.300
    34   -3.41796569   -8.56567473    2.45579909     1.300
    35   -4.41087811   -6.80336391   -0.18428580     1.300
    36   -3.42737853  -10.42451978   -3.04148735     1.300
    37   -5.61090493  -11.25819804   -0.65638295     1.300
    38   -2.44771392  -12.24436743   -0.42330703     1.300
    39    0.63405591  -10.40420180    2.18324388     1.300
    40    2.76062326   -7.89183190    2.15369287     1.300
    41    1.82098827  -11.42027138   -2.33366645     1.300
    42    4.45923455  -11.48708894   -0.29105329     1.300
    43    3.96130572   -8.86980220   -2.30592253     1.300
 number of segments per atom =         32
 number of   points per atom =         32
 atom (   nspa,  nppa )
 ----------------------
    1 (     17,     0 )       0
    2 (     15,     0 )       0
    3 (     10,     0 )       0
    4 (      9,     0 )       0
    5 (      2,     0 )       0
    6 (      2,     0 )       0
    7 (     16,     0 )       0
    8 (     15,     0 )       0
    9 (     12,     0 )       0
   10 (     13,     0 )       0
   11 (     12,     0 )       0
   12 (     10,     0 )       0
   13 (     15,     0 )       0
   14 (     13,     0 )       0
   15 (     15,     0 )       0
   16 (     13,     0 )       0
   17 (     14,     0 )       0
   18 (     13,     0 )       0
   19 (     14,     0 )       0
   20 (     16,     0 )       0
   21 (     13,     0 )       0
   22 (     12,     0 )       0
   23 (      9,     0 )       0
   24 (      8,     0 )       0
   25 (      5,     0 )       0
   26 (     10,     0 )       0
   27 (     19,     0 )       0
   28 (     13,     0 )       0
   29 (      9,     0 )       0
   30 (     15,     0 )       0
   31 (     13,     0 )       0
   32 (     14,     0 )       0
   33 (     16,     0 )       0
   34 (     14,     0 )       0
   35 (     14,     0 )       0
   36 (     16,     0 )       0
   37 (     13,     0 )       0
   38 (     14,     0 )       0
   39 (     12,     0 )       0
   40 (     13,     0 )       0
   41 (     15,     0 )       0
   42 (     15,     0 )       0
   43 (     16,     0 )       0
 number of -cosmo- surface points =      544
 molecular surface =    330.073 angstrom**2
 molecular volume  =    184.239 angstrom**3
 G(cav/disp)       =      2.510 kcal/mol
 ...... end of -cosmo- initialization ......


  Caching 1-el integrals 
 
 WARNING : Found     3 linear dependencies 
 S eigenvalue threshold:     1.00000E-05
 Smallest S eigenvalue :     3.11042E-06
 Largest  S eigenvalue :     7.52012E-06
 
   Time after variat. SCF:  11801.3
   Time prior to 1st pass:  11801.3


         Total DFT energy =    -1418.022663505487
      One electron energy =    -5132.634699375890
           Coulomb energy =     2258.450256537068
    Exchange-Corr. energy =     -148.212815401964
 Nuclear repulsion energy =     1603.282516396457

             COSMO energy =        1.092078338842

 Numeric. integr. density =      152.000042826785

     Total iterative time =   4102.5s


                                   COSMO solvation results
                                   -----------------------

                 gas phase energy =     -1418.011258160400
                 sol phase energy =     -1418.022663505487
 (electrostatic) solvation energy =         0.011405345087 (    7.16 kcal/mol)
 Line search: 
     step= 1.00 grad=-2.9D-03 hess= 1.5D-03 energy=  -1418.022664 mode=accept  
 new step= 1.00                   predicted energy=  -1418.022664
  no constraints, skipping   0.000000000000000E+000
  no constraints, skipping   0.000000000000000E+000
  no constraints, skipping   0.000000000000000E+000
  no constraints, skipping   0.000000000000000E+000
  no constraints, skipping   0.000000000000000E+000
  no constraints, skipping   0.000000000000000E+000
  no constraints, skipping   0.000000000000000E+000
  no constraints, skipping   0.000000000000000E+000

          --------
          Step   1
          --------
 
                                 NWChem DFT Module
                                 -----------------
 
 
                                       der1
 
 
 
 
 solvent parameters
 solvname_short: chcl3   
 solvname_long:  chloroform                         
 dielec:        4.7113
 dielecinf:     2.0906

          ---------------
          -cosmo- solvent
          ---------------
 Cosmo: York-Karplus, doi: 10.1021/jp992097l
 dielectric constant -eps-     =   4.71
 screen = (eps-1)/(eps    )    =   0.78774
 surface charge correction     = lagrangian
 -lineq- algorithm             =   0
 -bem- low  level              =   2
 -bem- from -octahedral-
 gaussian surface charge width =   0.98000
 degree of switching           =   1.00000
 switching function tolerance  =   0.00010
 atomic radii = 
 --------------
    1 16.000  2.160
    2 15.000  2.106
    3  8.000  1.720
    4  8.000  1.720
    5  6.000  2.000
    6  6.000  2.000
    7  6.000  2.000
    8  6.000  2.000
    9  6.000  2.000
   10  6.000  2.000
   11  1.000  1.300
   12  1.000  1.300
   13  1.000  1.300
   14  1.000  1.300
   15  1.000  1.300
   16  1.000  1.300
   17  1.000  1.300
   18  1.000  1.300
   19  1.000  1.300
   20  1.000  1.300
   21  1.000  1.300
   22  1.000  1.300
   23  6.000  2.000
   24  6.000  2.000
   25  7.000  1.830
   26  6.000  2.000
   27  6.000  2.000
   28  6.000  2.000
   29  6.000  2.000
   30  1.000  1.300
   31  1.000  1.300
   32  1.000  1.300
   33  1.000  1.300
   34  1.000  1.300
   35  1.000  1.300
   36  1.000  1.300
   37  1.000  1.300
   38  1.000  1.300
   39  1.000  1.300
   40  1.000  1.300
   41  1.000  1.300
   42  1.000  1.300
   43  1.000  1.300

 solvent accessible surface
 --------------------------

 ---------- ATOMIC COORDINATES (A.U.) ------------ VDWR(ANG.) --
     1    2.42062137   -0.11225548    1.10637427     2.160
     2   -0.24045007    1.94424647   -1.22896663     2.106
     3    1.25795650    4.49232228   -2.21442604     1.720
     4   -1.88645585    3.52487034    0.91615322     1.720
     5    0.96326941    6.67503564   -0.52347728     2.000
     6   -1.75150743    6.26894013    0.57162425     2.000
     7    3.03910015    6.58252152    1.48114230     2.000
     8    1.25395854    9.04438876   -2.12693456     2.000
     9   -3.85215427    7.02338306   -1.26392325     2.000
    10   -2.18935278    7.49384724    3.13663568     2.000
    11    3.03554572    8.30395884    2.60881438     1.300
    12    2.82711533    4.98767181    2.76051539     1.300
    13    4.86784902    6.43134235    0.55004157     1.300
    14    0.02287148    9.00482752   -3.77032026     1.300
    15    0.80961182   10.71859853   -1.01125550     1.300
    16    3.20084980    9.21368351   -2.77467126     1.300
    17   -3.98070674    9.06877663   -1.44833594     1.300
    18   -3.55426266    6.22107365   -3.13604847     1.300
    19   -5.64971187    6.33112137   -0.53892468     1.300
    20   -1.92929389    9.53383322    3.00258570     1.300
    21   -4.11972574    7.13794558    3.75658991     1.300
    22   -0.90389693    6.76029210    4.56027748     1.300
    23    1.93812240   -3.27443757   -0.25598917     2.000
    24   -0.26389842   -4.68819338    0.95517646     2.000
    25   -0.52081288   -7.26912830   -0.01142353     1.830
    26    1.47860646   -8.97256936    0.95034747     2.000
    27    3.01667648  -10.26491706   -1.11864965     2.000
    28   -3.66163232  -10.68775030   -1.01036128     2.000
    29   -3.08128679   -8.25752283    0.42103600     2.000
    30    1.65174707   -3.08283587   -2.28465953     1.300
    31    3.72403804   -4.25216592    0.03070832     1.300
    32   -1.99802950   -3.66177211    0.52266806     1.300
    33   -0.04824400   -4.64899222    3.02525232     1.300
    34   -3.41796569   -8.56567473    2.45579909     1.300
    35   -4.41087811   -6.80336391   -0.18428580     1.300
    36   -3.42737853  -10.42451978   -3.04148735     1.300
    37   -5.61090493  -11.25819804   -0.65638295     1.300
    38   -2.44771392  -12.24436743   -0.42330703     1.300
    39    0.63405591  -10.40420180    2.18324388     1.300
    40    2.76062326   -7.89183190    2.15369287     1.300
    41    1.82098827  -11.42027138   -2.33366645     1.300
    42    4.45923455  -11.48708894   -0.29105329     1.300
    43    3.96130572   -8.86980220   -2.30592253     1.300
 number of segments per atom =         32
 number of   points per atom =         32
 atom (   nspa,  nppa )
 ----------------------
    1 (     17,     0 )       0
    2 (     15,     0 )       0
    3 (     10,     0 )       0
    4 (      9,     0 )       0
    5 (      2,     0 )       0
    6 (      2,     0 )       0
    7 (     16,     0 )       0
    8 (     15,     0 )       0
    9 (     12,     0 )       0
   10 (     13,     0 )       0
   11 (     12,     0 )       0
   12 (     10,     0 )       0
   13 (     15,     0 )       0
   14 (     13,     0 )       0
   15 (     15,     0 )       0
   16 (     13,     0 )       0
   17 (     14,     0 )       0
   18 (     13,     0 )       0
   19 (     14,     0 )       0
   20 (     16,     0 )       0
   21 (     13,     0 )       0
   22 (     12,     0 )       0
   23 (      9,     0 )       0
   24 (      8,     0 )       0
   25 (      5,     0 )       0
   26 (     10,     0 )       0
   27 (     19,     0 )       0
   28 (     13,     0 )       0
   29 (      9,     0 )       0
   30 (     15,     0 )       0
   31 (     13,     0 )       0
   32 (     14,     0 )       0
   33 (     16,     0 )       0
   34 (     14,     0 )       0
   35 (     14,     0 )       0
   36 (     16,     0 )       0
   37 (     13,     0 )       0
   38 (     14,     0 )       0
   39 (     12,     0 )       0
   40 (     13,     0 )       0
   41 (     15,     0 )       0
   42 (     15,     0 )       0
   43 (     16,     0 )       0
 number of -cosmo- surface points =      544
 molecular surface =    330.073 angstrom**2
 molecular volume  =    184.239 angstrom**3
 G(cav/disp)       =      2.510 kcal/mol
 ...... end of -cosmo- initialization ......



  The DFT is already converged 

         Total DFT energy =  -1418.022663505487



                         DFT ENERGY GRADIENTS

    atom               coordinates                        gradient
                 x          y          z           x          y          z
   1 S       2.420621  -0.112255   1.106374   -0.003399  -0.000382  -0.004405
   2 P      -0.240450   1.944246  -1.228967    0.003809  -0.001723   0.003890
   3 O       1.257956   4.492322  -2.214426   -0.002779  -0.000345   0.001025
   4 O      -1.886456   3.524870   0.916153    0.001475   0.000573  -0.002040
   5 C       0.963269   6.675036  -0.523477    0.000844  -0.000887  -0.001285
   6 C      -1.751507   6.268940   0.571624   -0.000606  -0.001486   0.000660
   7 C       3.039100   6.582522   1.481142   -0.000467   0.000531  -0.000512
   8 C       1.253959   9.044389  -2.126935    0.000306   0.000183   0.001348
   9 C      -3.852154   7.023383  -1.263923    0.000425   0.000244   0.000825
  10 C      -2.189353   7.493847   3.136636   -0.000095   0.000851  -0.000997
  11 H       3.035546   8.303959   2.608814    0.000168  -0.000235   0.000169
  12 H       2.827115   4.987672   2.760515    0.000131   0.000282  -0.000038
  13 H       4.867849   6.431342   0.550042    0.000123  -0.000051   0.000171
  14 H       0.022871   9.004828  -3.770320    0.000153   0.000020   0.000186
  15 H       0.809612  10.718599  -1.011255    0.000060   0.000283  -0.000223
  16 H       3.200850   9.213684  -2.774671    0.000041   0.000182  -0.000028
  17 H      -3.980707   9.068777  -1.448336   -0.000207  -0.000137  -0.000204
  18 H      -3.554263   6.221074  -3.136048   -0.000066  -0.000030  -0.000059
  19 H      -5.649712   6.331121  -0.538925   -0.000130   0.000025  -0.000144
  20 H      -1.929294   9.533833   3.002586   -0.000087   0.000124   0.000370
  21 H      -4.119726   7.137946   3.756590   -0.000033   0.000120   0.000102
  22 H      -0.903897   6.760292   4.560277   -0.000181   0.000098  -0.000120
  23 C       1.938122  -3.274438  -0.255989    0.000082   0.002924   0.002534
  24 C      -0.263898  -4.688193   0.955176    0.001313  -0.001058  -0.001523
  25 N      -0.520813  -7.269128  -0.011424   -0.001062   0.000489   0.000871
  26 C       1.478606  -8.972569   0.950347    0.000188   0.000065  -0.001754
  27 C       3.016676 -10.264917  -1.118650   -0.000132   0.000060   0.001292
  28 C      -3.661632 -10.687750  -1.010361   -0.000764   0.000814   0.000984
  29 C      -3.081287  -8.257523   0.421036    0.001100  -0.000933  -0.001440
  30 H       1.651747  -3.082836  -2.284660   -0.000021   0.000019  -0.000013
  31 H       3.724038  -4.252166   0.030708   -0.000134  -0.000415  -0.000099
  32 H      -1.998030  -3.661772   0.522668   -0.000041   0.000422  -0.000154
  33 H      -0.048244  -4.648992   3.025252    0.000015   0.000196   0.000451
  34 H      -3.417966  -8.565675   2.455799   -0.000082  -0.000054   0.000485
  35 H      -4.410878  -6.803364  -0.184286   -0.000262   0.000040  -0.000167
  36 H      -3.427379 -10.424520  -3.041487    0.000020  -0.000044   0.000019
  37 H      -5.610905 -11.258198  -0.656383   -0.000043  -0.000414  -0.000160
  38 H      -2.447714 -12.244367  -0.423307   -0.000144   0.000019  -0.000082
  39 H       0.634056 -10.404202   2.183244    0.000068  -0.000138   0.000270
  40 H       2.760623  -7.891832   2.153693    0.000168  -0.000146   0.000173
  41 H       1.820988 -11.420271  -2.333666    0.000117   0.000108  -0.000035
  42 H       4.459235 -11.487089  -0.291053    0.000191  -0.000171  -0.000270
  43 H       3.961306  -8.869802  -2.305923   -0.000061  -0.000022  -0.000075
 
  no constraints, skipping   0.000000000000000E+000

  Step       Energy      Delta E   Gmax     Grms     Xrms     Xmax   Walltime
  ---- ---------------- -------- -------- -------- -------- -------- --------
@    1   -1418.02266351 -1.4D-03  0.00427  0.00040  0.05985  0.13689  16615.0
                                                                    

  no constraints, skipping   0.000000000000000E+000
  no constraints, skipping   0.000000000000000E+000
  no constraints, skipping   0.000000000000000E+000
  no constraints, skipping   0.000000000000000E+000
  no constraints, skipping   0.000000000000000E+000
  no constraints, skipping   0.000000000000000E+000
  no constraints, skipping   0.000000000000000E+000
  no constraints, skipping   0.000000000000000E+000
 
                                 NWChem DFT Module
                                 -----------------
 
 
                                       der1
 
 
 
 
 solvent parameters
 solvname_short: chcl3   
 solvname_long:  chloroform                         
 dielec:        4.7113
 dielecinf:     2.0906

          ---------------
          -cosmo- solvent
          ---------------
 Cosmo: York-Karplus, doi: 10.1021/jp992097l
 dielectric constant -eps-     =   4.71
 screen = (eps-1)/(eps    )    =   0.78774
 surface charge correction     = lagrangian
 -lineq- algorithm             =   0
 -bem- low  level              =   2
 -bem- from -octahedral-
 gaussian surface charge width =   0.98000
 degree of switching           =   1.00000
 switching function tolerance  =   0.00010
 atomic radii = 
 --------------
    1 16.000  2.160
    2 15.000  2.106
    3  8.000  1.720
    4  8.000  1.720
    5  6.000  2.000
    6  6.000  2.000
    7  6.000  2.000
    8  6.000  2.000
    9  6.000  2.000
   10  6.000  2.000
   11  1.000  1.300
   12  1.000  1.300
   13  1.000  1.300
   14  1.000  1.300
[...]
   28 Stretch                 24    32                       1.08998   -0.00270
   29 Stretch                 24    33                       1.10032   -0.00230
   30 Stretch                 25    26                       1.47982    0.01112
   31 Stretch                 25    29                       1.47027    0.01121
   32 Stretch                 26    27                       1.52785    0.00838
   33 Stretch                 26    39                       1.09475   -0.00192
   34 Stretch                 26    40                       1.09182   -0.00215
   35 Stretch                 27    41                       1.08968   -0.00138
   36 Stretch                 27    42                       1.09208   -0.00073
   37 Stretch                 27    43                       1.09054   -0.00127
   38 Stretch                 28    29                       1.52526    0.00828
   39 Stretch                 28    36                       1.09076   -0.00111
   40 Stretch                 28    37                       1.09091   -0.00076
   41 Stretch                 28    38                       1.08981   -0.00152
   42 Stretch                 29    34                       1.10247   -0.00171
   43 Stretch                 29    35                       1.09026   -0.00205
   44 Bend                     1     2     3               105.66664    0.02424
   45 Bend                     1     2     4               101.25026   -0.04596
   46 Bend                     1    23    24               112.53135    0.28277
   47 Bend                     1    23    30               108.69402   -0.10265
   48 Bend                     1    23    31               104.81129   -0.24912
   49 Bend                     2     1    23                98.06488    0.92267
   50 Bend                     2     3     5               113.53014    0.71121
   51 Bend                     2     4     6               113.04006    0.75939
   52 Bend                     3     2     4                93.63706   -0.14999
   53 Bend                     3     5     6               102.91461    0.12187
   54 Bend                     3     5     7               108.40509   -0.31822
   55 Bend                     3     5     8               106.77114   -0.30025
   56 Bend                     4     6     5               103.54504    0.15377
   57 Bend                     4     6     9               107.45764   -0.28308
   58 Bend                     4     6    10               107.11129   -0.31468
   59 Bend                     5     6     9               113.47708    0.43706
   60 Bend                     5     6    10               114.28075    0.20626
   61 Bend                     5     7    11               110.53013    0.01871
   62 Bend                     5     7    12               112.42099    0.19447
   63 Bend                     5     7    13               108.96777   -0.05156
   64 Bend                     5     8    14               111.70404    0.18139
   65 Bend                     5     8    15               110.10977    0.08118
   66 Bend                     5     8    16               109.65334   -0.07573
   67 Bend                     6     5     7               113.61422    0.47136
   68 Bend                     6     5     8               114.28684    0.19889
   69 Bend                     6     9    17               111.01253   -0.06047
   70 Bend                     6     9    18               111.78469    0.26279
   71 Bend                     6     9    19               108.76701   -0.00939
   72 Bend                     6    10    20               110.04117    0.08328
   73 Bend                     6    10    21               109.59799   -0.06644
   74 Bend                     6    10    22               111.75519    0.16176
   75 Bend                     7     5     8               110.21089   -0.23294
   76 Bend                     9     6    10               110.31829   -0.25355
   77 Bend                    11     7    12               108.12084    0.01385
   78 Bend                    11     7    13               108.19203   -0.08056
   79 Bend                    12     7    13               108.50157   -0.10624
   80 Bend                    14     8    15               108.75141   -0.03449
   81 Bend                    14     8    16               108.53026   -0.11342
   82 Bend                    15     8    16               108.00241   -0.04824
   83 Bend                    17     9    18               108.45536   -0.06315
   84 Bend                    17     9    19               108.22711   -0.06536
   85 Bend                    18     9    19               108.49968   -0.07435
   86 Bend                    20    10    21               108.10438   -0.03636
   87 Bend                    20    10    22               108.71581   -0.06525
   88 Bend                    21    10    22               108.54025   -0.08497
   89 Bend                    23    24    25               111.84690    0.09902
   90 Bend                    23    24    32               108.33144    0.05977
   91 Bend                    23    24    33               109.37672    0.06494
   92 Bend                    24    23    30               110.82676   -0.01018
   93 Bend                    24    23    31               111.90812   -0.03840
   94 Bend                    24    25    26               112.40589    0.15886
   95 Bend                    24    25    29               111.48585    0.11793
   96 Bend                    25    24    32               108.31340   -0.09667
   97 Bend                    25    24    33               111.97707   -0.25625
   98 Bend                    25    26    27               113.85949    0.16966
   99 Bend                    25    26    39               109.53794   -0.00971
  100 Bend                    25    26    40               108.92668   -0.06970
  101 Bend                    25    29    28               113.69645    0.27275
  102 Bend                    25    29    34               110.81743   -0.03765
  103 Bend                    25    29    35               107.35698   -0.08871
  104 Bend                    26    25    29               112.85569    0.23764
  105 Bend                    26    27    41               111.39957    0.11799
  106 Bend                    26    27    42               110.28735   -0.21284
  107 Bend                    26    27    43               110.74780    0.08438
  108 Bend                    27    26    39               109.59789   -0.12601
  109 Bend                    27    26    40               108.79728   -0.15564
  110 Bend                    28    29    34               109.19617   -0.08311
  111 Bend                    28    29    35               108.75517   -0.16621
  112 Bend                    29    28    36               111.04633    0.03291
  113 Bend                    29    28    37               109.60712   -0.16159
  114 Bend                    29    28    38               112.11477    0.10374
  115 Bend                    30    23    31               107.77880    0.09959
  116 Bend                    32    24    33               106.79748    0.13941
  117 Bend                    34    29    35               106.75293    0.09053
  118 Bend                    36    28    37               108.20835   -0.03327
  119 Bend                    36    28    38               108.19306    0.04244
  120 Bend                    37    28    38               107.52989    0.01333
  121 Bend                    39    26    40               105.80385    0.19360
  122 Bend                    41    27    42               108.12245   -0.03227
  123 Bend                    41    27    43               107.97560    0.06923
  124 Bend                    42    27    43               108.19604   -0.02672
  125 Torsion                  1     2     3     5         -90.25245   -0.39520
  126 Torsion                  1     2     4     6         119.12328   -0.80207
  127 Torsion                  1    23    24    25        -174.96707    0.92233
  128 Torsion                  1    23    24    32          65.72779    0.94338
  129 Torsion                  1    23    24    33         -50.32800    0.70972
  130 Torsion                  2     1    23    24         -88.40381   -2.66180
  131 Torsion                  2     1    23    30          34.73951   -2.55749
  132 Torsion                  2     1    23    31         149.75725   -2.61393
  133 Torsion                  2     3     5     6         -30.86249    1.50186
  134 Torsion                  2     3     5     7          89.76324    1.96149
  135 Torsion                  2     3     5     8        -151.51493    1.34999
  136 Torsion                  2     4     6     5         -30.87881    1.71480
  137 Torsion                  2     4     6     9          89.47438    2.16291
  138 Torsion                  2     4     6    10        -151.99186    1.54721
  139 Torsion                  3     2     1    23        -132.20815    0.43507
  140 Torsion                  3     2     4     6          12.35329   -0.78695
  141 Torsion                  3     5     6     4          36.45690   -2.28640
  142 Torsion                  3     5     6     9         -79.71527   -2.25065
  143 Torsion                  3     5     6    10         152.60506   -2.46819
  144 Torsion                  3     5     7    11         172.39959    0.14137
  145 Torsion                  3     5     7    12         -66.68406    0.30463
  146 Torsion                  3     5     7    13          53.63401    0.26059
  147 Torsion                  3     5     8    14          52.44807    0.60186
  148 Torsion                  3     5     8    15         173.39134    0.73368
  149 Torsion                  3     5     8    16         -67.90744    0.67752
  150 Torsion                  4     2     1    23         130.72873    0.60322
  151 Torsion                  4     2     3     5          12.50700   -0.48546
  152 Torsion                  4     6     5     7         -80.52936   -2.20599
  153 Torsion                  4     6     5     8         151.81352   -2.47748
  154 Torsion                  4     6     9    17         173.68845   -0.31523
  155 Torsion                  4     6     9    18         -65.06560   -0.25669
  156 Torsion                  4     6     9    19          54.71552   -0.19257
  157 Torsion                  4     6    10    20         175.23784    0.64299
  158 Torsion                  4     6    10    21         -66.01151    0.60838
  159 Torsion                  4     6    10    22          54.35249    0.56179
  160 Torsion                  5     6     9    17         -72.46617   -0.06708
  161 Torsion                  5     6     9    18          48.77978   -0.00855
  162 Torsion                  5     6     9    19         168.56090    0.05557
  163 Torsion                  5     6    10    20          61.17642    0.54187
  164 Torsion                  5     6    10    21         179.92707    0.50726
  165 Torsion                  5     6    10    22         -59.70893    0.46067
  166 Torsion                  6     5     7    11         -73.86278    0.35544
  167 Torsion                  6     5     7    12          47.05357    0.51870
  168 Torsion                  6     5     7    13         167.37164    0.47466
  169 Torsion                  6     5     8    14         -60.63603    0.53557
  170 Torsion                  6     5     8    15          60.30724    0.66739
  171 Torsion                  6     5     8    16         179.00845    0.61122
  172 Torsion                  7     5     6     9         163.29847   -2.17024
  173 Torsion                  7     5     6    10          35.61880   -2.38778
  174 Torsion                  7     5     8    14         169.98647   -0.07853
  175 Torsion                  7     5     8    15         -69.07026    0.05329
  176 Torsion                  7     5     8    16          49.63095   -0.00287
  177 Torsion                  8     5     6     9          35.64135   -2.44173
  178 Torsion                  8     5     6    10         -92.03833   -2.65927
  179 Torsion                  8     5     7    11          55.87641    0.82130
  180 Torsion                  8     5     7    12         176.79276    0.98456
  181 Torsion                  8     5     7    13         -62.88917    0.94052
  182 Torsion                  9     6    10    20         -68.10099   -0.01349
  183 Torsion                  9     6    10    21          50.64966   -0.04810
  184 Torsion                  9     6    10    22         171.01366   -0.09470
  185 Torsion                 10     6     9    17          57.24295    0.36301
  186 Torsion                 10     6     9    18         178.48890    0.42155
  187 Torsion                 10     6     9    19         -61.72999    0.48566
  188 Torsion                 23    24    25    26          74.24499    1.07190
  189 Torsion                 23    24    25    29        -157.89080    1.61877
  190 Torsion                 24    25    26    27        -123.39359    0.05124
  191 Torsion                 24    25    26    39         113.50501    0.10221
  192 Torsion                 24    25    26    40          -1.78392   -0.08496
  193 Torsion                 24    25    29    28         166.96956   -1.06265
  194 Torsion                 24    25    29    34         -69.59270   -0.99870
  195 Torsion                 24    25    29    35          46.63418   -0.96186
  196 Torsion                 25    24    23    30          63.09036    0.86290
  197 Torsion                 25    24    23    31         -57.24760    0.76915
  198 Torsion                 25    26    27    41         -60.07961   -0.09034
  199 Torsion                 25    26    27    42         179.85149    0.01486
  200 Torsion                 25    26    27    43          60.11280    0.13183
  201 Torsion                 25    29    28    36         -58.03821    0.06411
  202 Torsion                 25    29    28    37        -177.54252    0.18896
  203 Torsion                 25    29    28    38          63.12420    0.21368
  204 Torsion                 26    25    24    32        -166.43922    1.14330
  205 Torsion                 26    25    24    33         -48.93393    1.10338
  206 Torsion                 26    25    29    28         -65.40847   -0.55634
  207 Torsion                 26    25    29    34          58.02926   -0.49239
  208 Torsion                 26    25    29    35         174.25615   -0.45555
  209 Torsion                 27    26    25    29         109.46968   -0.43864
  210 Torsion                 29    25    24    32         -38.57501    1.69017
  211 Torsion                 29    25    24    33          78.93028    1.65024
  212 Torsion                 29    25    26    39         -13.63172   -0.38766
  213 Torsion                 29    25    26    40        -128.92065   -0.57484
  214 Torsion                 30    23    24    32         -56.21478    0.88394
  215 Torsion                 30    23    24    33        -172.27058    0.65028
  216 Torsion                 31    23    24    32        -176.55275    0.79020
  217 Torsion                 31    23    24    33          67.39146    0.55654
  218 Torsion                 34    29    28    36         177.64479   -0.01931
  219 Torsion                 34    29    28    37          58.14048    0.10554
  220 Torsion                 34    29    28    38         -61.19279    0.13026
  221 Torsion                 35    29    28    36          61.50574    0.01090
  222 Torsion                 35    29    28    37         -57.99858    0.13574
  223 Torsion                 35    29    28    38        -177.33185    0.16046
  224 Torsion                 39    26    27    41          62.98907   -0.07758
  225 Torsion                 39    26    27    42         -57.07983    0.02762
  226 Torsion                 39    26    27    43        -176.81852    0.14459
  227 Torsion                 40    26    27    41         178.23899   -0.00173
  228 Torsion                 40    26    27    42          58.17009    0.10347
  229 Torsion                 40    26    27    43         -61.56860    0.22044
 
 
 
                                NWChem Input Module
                                -------------------
 
 
 
 
                                     CITATION
                                     --------
                Please cite the following reference when publishing
                           results obtained with NWChem:
 
          E. Apra, E. J. Bylaska, W. A. de Jong, N. Govind, K. Kowalski,
       T. P. Straatsma, M. Valiev, H. J. J. van Dam, Y. Alexeev, J. Anchell,
       V. Anisimov, F. W. Aquino, R. Atta-Fynn, J. Autschbach, N. P. Bauman,
     J. C. Becca, D. E. Bernholdt, K. Bhaskaran-Nair, S. Bogatko, P. Borowski,
         J. Boschen, J. Brabec, A. Bruner, E. Cauet, Y. Chen, G. N. Chuev,
      C. J. Cramer, J. Daily, M. J. O. Deegan, T. H. Dunning Jr., M. Dupuis,
   K. G. Dyall, G. I. Fann, S. A. Fischer, A. Fonari, H. Fruchtl, L. Gagliardi,
      J. Garza, N. Gawande, S. Ghosh, K. Glaesemann, A. W. Gotz, J. Hammond,
       V. Helms, E. D. Hermes, K. Hirao, S. Hirata, M. Jacquelin, L. Jensen,
   B. G. Johnson, H. Jonsson, R. A. Kendall, M. Klemm, R. Kobayashi, V. Konkov,
      S. Krishnamoorthy, M. Krishnan, Z. Lin, R. D. Lins, R. J. Littlefield,
      A. J. Logsdail, K. Lopata, W. Ma, A. V. Marenich, J. Martin del Campo,
   D. Mejia-Rodriguez, J. E. Moore, J. M. Mullin, T. Nakajima, D. R. Nascimento,
    J. A. Nichols, P. J. Nichols, J. Nieplocha, A. Otero-de-la-Roza, B. Palmer,
    A. Panyala, T. Pirojsirikul, B. Peng, R. Peverati, J. Pittner, L. Pollack,
   R. M. Richard, P. Sadayappan, G. C. Schatz, W. A. Shelton, D. W. Silverstein,
   D. M. A. Smith, T. A. Soares, D. Song, M. Swart, H. L. Taylor, G. S. Thomas,
            V. Tipparaju, D. G. Truhlar, K. Tsemekhman, T. Van Voorhis,
      A. Vazquez-Mayagoitia, P. Verma, O. Villa, A. Vishnu, K. D. Vogiatzis,
        D. Wang, J. H. Weare, M. J. Williamson, T. L. Windus, K. Wolinski,
        A. T. Wong, Q. Wu, C. Yang, Q. Yu, M. Zacharias, Z. Zhang, Y. Zhao,
                                and R. J. Harrison
                        "NWChem: Past, present, and future
                         J. Chem. Phys. 152, 184102 (2020)
                               doi:10.1063/5.0004997
 
                                      AUTHORS
                                      -------
     E. Apra, E. J. Bylaska, N. Govind, K. Kowalski, M. Valiev, W. A. de Jong,
      T. P. Straatsma, H. J. J. van Dam, D. Wang, T. L. Windus, N. P. Bauman,
       A. Panyala, J. Hammond, J. Autschbach, K. Bhaskaran-Nair, J. Brabec,
    K. Lopata, S. A. Fischer, S. Krishnamoorthy, M. Jacquelin, W. Ma, M. Klemm,
       O. Villa, Y. Chen, V. Anisimov, F. Aquino, S. Hirata, M. T. Hackler,
           Eric Hermes, L. Jensen, J. E. Moore, J. C. Becca, V. Konjkov,
            D. Mejia-Rodriguez, T. Risthaus, M. Malagoli, A. Marenich,
   A. Otero-de-la-Roza, J. Mullin, P. Nichols, R. Peverati, J. Pittner, Y. Zhao,
        P.-D. Fan, A. Fonari, M. J. Williamson, R. J. Harrison, J. R. Rehr,
      M. Dupuis, D. Silverstein, D. M. A. Smith, J. Nieplocha, V. Tipparaju,
      M. Krishnan, B. E. Van Kuiken, A. Vazquez-Mayagoitia, M. Swart, Q. Wu,
   T. Van Voorhis, A. A. Auer, M. Nooijen, L. D. Crosby, E. Brown, G. Cisneros,
     G. I. Fann, H. Fruchtl, J. Garza, K. Hirao, R. A. Kendall, J. A. Nichols,
       K. Tsemekhman, K. Wolinski, J. Anchell, D. E. Bernholdt, P. Borowski,
       T. Clark, D. Clerc, H. Dachsel, M. J. O. Deegan, K. Dyall, D. Elwood,
      E. Glendening, M. Gutowski, A. C. Hess, J. Jaffe, B. G. Johnson, J. Ju,
        R. Kobayashi, R. Kutteh, Z. Lin, R. Littlefield, X. Long, B. Meng,
      T. Nakajima, S. Niu, L. Pollack, M. Rosing, K. Glaesemann, G. Sandrone,
      M. Stave, H. Taylor, G. Thomas, J. H. van Lenthe, A. T. Wong, Z. Zhang.

 Total times  cpu:   511747.6s     wall:   511924.4s
