

 Parallel Execution: Process Information
 ==============================================================================
 Rank   Node Name                              NodeID   MyNodeRank  NodeMaster
    0   adf1                                      0          0          0
    1   adf1                                      0          1         -1
    2   adf1                                      0          2         -1
    3   adf1                                      0          3         -1
    4   adf1                                      0          4         -1
    5   adf1                                      0          5         -1
    6   adf1                                      0          6         -1
    7   adf1                                      0          7         -1
    8   adf1                                      0          8         -1
    9   adf1                                      0          9         -1
   10   adf1                                      0         10         -1
   11   adf1                                      0         11         -1
 ==============================================================================


May use up to 22932MB of RAM as shared memory on node 0

 *******************************************************************************
 *                                                                             *
 *  --------------------------------                                           *
 *   Amsterdam Modeling Suite (AMS)              2020.202                      *
 *  --------------------------------                                           *
 *                                               r90167 2020-12-05             *
 *                                                                             *
 *                                                                             *
 *                              =================                              *
 *                              |               |                              *
 *                              |     A M S     |                              *
 *                              |               |                              *
 *                              =================                              *
 *                                                                             *
 *                                                                             *
 *   Online information and documentation:  https://www.scm.com/support/       *
 *   E-mail:  support@scm.com   info@scm.com                                   *
 *                                                                             *
 *   Scientific publications using AMS results must be properly referenced     *
 *   See the User Manuals (or the web site) for recommended citations          *
 *   The terms and conditions of the End User License Agreement apply to       *
 *   the use of AMS, https://www.scm.com/license-terms/                        *
 *                                                                             *
 **********************  x86_64_linux_intel / intelmpi  ************************
 
 Licensed to: Dr. Miroslav Ilias / Matej Bel University, Department Chemistry, Fac. Natural Sciences / Banska Bystrica / SLOVAKIA
 SCM User ID: u17848
  
 AMS 2020.202  RunTime: Jan14-2021 10:45:05  Nodes: 1  Procs: 12

 AMS jobname: ams
 AMS jobid  : 2015675496

 Start   directory: /home/milias/Work/projects/open-collection/theoretical_chemistry/projects/nmr_diplomovky/reference_compounds/phosphoric_acid/tmp.milias.3365.0.noindex/
 Results directory: /home/milias/Work/projects/open-collection/theoretical_chemistry/projects/nmr_diplomovky/reference_compounds/phosphoric_acid/phosporic_acid.geopt_freq_blyp_tz2p.results/
 Scratch directory: /tmp/amstmp_ams_kid0.2015675496/


 Communication costs MPI_COMM_WORLD:      2.763 usec per message,   0.0271 usec per 8-byte item
 Communication costs for intra-node:      2.736 usec per message,   0.0272 usec per 8-byte item

 RNG seed: -596499459 -162323398 -2085031891 -285236710 -321550856 189767074 1295213291 -570639491



                       *********************************************************************
                       *  ADF 2020.202  RunTime: Jan14-2021 10:45:06  Nodes: 1  Procs: 12  *
                       *********************************************************************
  
       ***************************
       *  GEOMETRY OPTIMIZATION  *
       ***************************

Optimization Method                    Quasi Newton
Optimization Coordinates               Delocalized Coordinates
Optimize lattice                       F
 
 ------------------------------------------------------
 Convergence criteria (Hartree,Angstrom)
 ------------------------------------------------------
 Maximum gradient               0.001000000000
 Maximum rms gradient           0.000666666667
 Maximum step allowed           0.001000000000
 Maximum rms step allowed       0.000666666667
 Maximum energy change allowe   0.000080000000
 Maximum stress energy allowe   0.000500000000
 
Initial model Hessian                  Automatic Hessian
 
------------------------------------
Quasi-Newton Optimizer Parameters
------------------------------------
Hessian Update Method                  BFGS
Maximum number of steps                  250
First GDIIS cycle                          0
Maximum GDIIS vectors                      0
Trust radius (bohr)                        0.200000
Trust radius varies                        T
Constraints converged at all steps         T
Use projector                              T
 
 Rigid motions settings for: old optimizer
 Atomic rotations (x,y,z):     T T T
 Atomic translations (x,y,z):  T T T
 Tolerance:                   1.000000000000000E-006
 
--------
Geometry
--------
Atoms
  Index Symbol   x (angstrom)   y (angstrom)   z (angstrom)
      1      P    -0.01026000    -0.01452000    -0.02516000
      2      O     1.72508000    -0.06283000    -0.05917000
      3      O    -0.59369000     1.61981000    -0.08400000
      4      O    -0.63424000    -0.85396000     1.36079000
      5      O    -0.52788000    -0.74654000    -1.29306000
      6      H     1.94929000    -1.02275000    -0.15506000
      7      H    -0.29421000     1.96350000    -0.96327000
      8      H    -1.61400000    -0.88271000     1.21882000
 
Total System Charge             0.00000
Bonding info available!
 
 
----------------
ADF Engine Input
----------------
 
 Basis
 Type TZ2P
 Core None
 End
 XC
 GGA BLYP
 End
 Relativity
 Level None
 End
 

 Title: *** (NO TITLE) ***

 Using automatic Hessian for delocalized coordinates.
 *** GOStep1 ***

 Energy gradients wrt nuclear displacements
 ==========================================

     Atom      Cartesian (a.u./angstrom)
                 X         Y         Z
 ----------------------------------------
     1 P     0.055218  0.075468  0.130415
     2 O     0.088463 -0.010720 -0.043400
     3 O    -0.060372  0.073308 -0.031084
     4 O    -0.040098 -0.077850  0.047902
     5 O    -0.038348 -0.054002 -0.093635
     6 H     0.005698 -0.016131  0.001733
     7 H     0.006733  0.008637 -0.013078
     8 H    -0.017294  0.001290  0.001147
 ----------------------------------------
 Mulliken charges used for AMS results%charges...
 
----------------------------------------------------------------------
Geometry Convergence after Step   1       (Hartree/Angstrom,Angstrom)
----------------------------------------------------------------------
current energy                               -1.58033776 Hartree
energy change                      -1.58033776     0.00008000    F
constrained gradient max            0.13041544     0.00100000    F
constrained gradient rms            0.05383902     0.00066667    F
gradient max                        0.13041544
gradient rms                        0.05383902
cart. step max                      0.04885583     0.00100000    F
cart. step rms                      0.02646149     0.00066667    F
 
 
--------
Geometry
--------
Atoms
  Index Symbol   x (angstrom)   y (angstrom)   z (angstrom)
      1      P    -0.02736579    -0.03802793    -0.06562697
      2      O     1.67622417    -0.04774626    -0.04406365
      3      O    -0.57177767     1.57604065    -0.06365007
      4      O    -0.60416217    -0.82062189     1.33304605
      5      O    -0.53265622    -0.75290722    -1.30367473
      6      H     1.91959093    -0.99768255    -0.13533354
      7      H    -0.27897058     1.93667740    -0.93212910
      8      H    -1.58079266    -0.85573218     1.21132200
 
Total System Charge             0.00000
Bonding info available!
 
 *** GOStep2 ***

 Energy gradients wrt nuclear displacements
 ==========================================

     Atom      Cartesian (a.u./angstrom)
                 X         Y         Z
 ----------------------------------------
     1 P     0.030660  0.041242  0.071089
     2 O     0.079036 -0.007721 -0.034804
     3 O    -0.051485  0.066053 -0.024172
     4 O    -0.034016 -0.066359  0.045175
     5 O    -0.020976 -0.029464 -0.051036
     6 H    -0.001521 -0.009484  0.002903
     7 H     0.006897  0.001078 -0.006799
     8 H    -0.008595  0.004655 -0.002354
 ----------------------------------------
 Mulliken charges used for AMS results%charges...

 dE(predicted):    -0.17752E-01, dE(actual):    -0.20561E-01, Trust radius:    0.400000, all in a.u.
 
----------------------------------------------------------------------
Geometry Convergence after Step   2       (Hartree/Angstrom,Angstrom)
----------------------------------------------------------------------
current energy                               -1.60089897 Hartree
energy change                      -0.02056121     0.00008000    F
constrained gradient max            0.07903617     0.00100000    F
constrained gradient rms            0.03798066     0.00066667    F
gradient max                        0.07903617
gradient rms                        0.03798066
cart. step max                      0.11208557     0.00100000    F
cart. step rms                      0.05429113     0.00066667    F
 
 
--------
Geometry
--------
Atoms
  Index Symbol   x (angstrom)   y (angstrom)   z (angstrom)
      1      P    -0.06095191    -0.08333093    -0.14360669
      2      O     1.56413860    -0.02473415    -0.01135243
      3      O    -0.51737794     1.47783223    -0.02848865
      4      O    -0.54659168    -0.74442387     1.26545378
      5      O    -0.54946386    -0.77532751    -1.34225526
      6      H     1.88329671    -0.94615217    -0.09118351
      7      H    -0.25141868     1.90584822    -0.86732497
      8      H    -1.52154124    -0.80971182     1.21864773
 
Total System Charge             0.00000
Bonding info available!
 
 *** GOStep3 ***

 Energy gradients wrt nuclear displacements
 ==========================================

     Atom      Cartesian (a.u./angstrom)
                 X         Y         Z
 ----------------------------------------
     1 P    -0.005892 -0.009825 -0.014428
     2 O     0.024432  0.004584 -0.013724
     3 O    -0.021291  0.018437 -0.003055
     4 O    -0.004359 -0.024329  0.013785
     5 O     0.009714  0.013809  0.023576
     6 H    -0.010187 -0.003449  0.003362
     7 H     0.007470 -0.007724 -0.001692
     8 H     0.000113  0.008496 -0.007824
 ----------------------------------------
 Mulliken charges used for AMS results%charges...

 dE(predicted):    -0.26632E-01, dE(actual):    -0.23172E-01, Trust radius:    0.800000, all in a.u.
 
----------------------------------------------------------------------
Geometry Convergence after Step   3       (Hartree/Angstrom,Angstrom)
----------------------------------------------------------------------
current energy                               -1.62407124 Hartree
energy change                      -0.02317228     0.00008000    F
constrained gradient max            0.02443212     0.00100000    F
constrained gradient rms            0.01285877     0.00066667    F
gradient max                        0.02443212
gradient rms                        0.01285877
cart. step max                      0.07739799     0.00100000    F
cart. step rms                      0.03405555     0.00066667    F
 
 
--------
Geometry
--------
Atoms
  Index Symbol   x (angstrom)   y (angstrom)   z (angstrom)
      1      P    -0.07927685    -0.10498309    -0.18491051
      2      O     1.51547838    -0.04081276     0.04620283
      3      O    -0.44752187     1.45456038    -0.01548611
      4      O    -0.54577693    -0.66702588     1.25190860
      5      O    -0.57095710    -0.80347676    -1.39004438
      6      H     1.90864325    -0.92395696    -0.09819929
      7      H    -0.27302312     1.92664824    -0.85325985
      8      H    -1.50747576    -0.84095317     1.24367870
 
Total System Charge             0.00000
Bonding info available!
 
 *** GOStep4 ***

 Energy gradients wrt nuclear displacements
 ==========================================

     Atom      Cartesian (a.u./angstrom)
                 X         Y         Z
 ----------------------------------------
     1 P    -0.008935 -0.011220 -0.017758
     2 O    -0.005274  0.012447  0.005907
     3 O     0.001028 -0.005167  0.013095
     4 O     0.013669  0.005319  0.002114
     5 O     0.001171  0.001127  0.001721
     6 H    -0.005706 -0.003074  0.001719
     7 H     0.005060 -0.004704 -0.001827
     8 H    -0.001012  0.005271 -0.004972
 ----------------------------------------
 Mulliken charges used for AMS results%charges...

 dE(predicted):    -0.38895E-02, dE(actual):    -0.34115E-02, Trust radius:    0.800000, all in a.u.
 
----------------------------------------------------------------------
Geometry Convergence after Step   4       (Hartree/Angstrom,Angstrom)
----------------------------------------------------------------------
current energy                               -1.62748270 Hartree
energy change                      -0.00341145     0.00008000    F
constrained gradient max            0.01776102     0.00100000    F
constrained gradient rms            0.00739379     0.00066667    F
gradient max                        0.01776102
gradient rms                        0.00739379
cart. step max                      0.05082165     0.00100000    F
cart. step rms                      0.02544631     0.00066667    F
 
 
--------
Geometry
--------
Atoms
  Index Symbol   x (angstrom)   y (angstrom)   z (angstrom)
      1      P    -0.06694573    -0.08721425    -0.15792664
      2      O     1.53181602    -0.07065933     0.06940733
      3      O    -0.41969965     1.48212591    -0.02887660
      4      O    -0.57767469    -0.64655121     1.26763344
      5      O    -0.56060612    -0.78650648    -1.36140010
      6      H     1.92963243    -0.93817577    -0.13880658
      7      H    -0.31377478     1.93875595    -0.88579931
      8      H    -1.52265747    -0.89177482     1.23565845
 
Total System Charge             0.00000
Bonding info available!
 
 *** GOStep5 ***

 Energy gradients wrt nuclear displacements
 ==========================================

     Atom      Cartesian (a.u./angstrom)
                 X         Y         Z
 ----------------------------------------
     1 P    -0.004416 -0.004554 -0.009533
     2 O     0.000132  0.003324  0.000521
     3 O    -0.001861 -0.000075  0.002980
     4 O     0.003891 -0.000829  0.000966
     5 O     0.002256  0.002708  0.005261
     6 H    -0.000552 -0.001950  0.001275
     7 H     0.002347 -0.000257 -0.001030
     8 H    -0.001797  0.001632 -0.000440
 ----------------------------------------
 Mulliken charges used for AMS results%charges...

 dE(predicted):    -0.10926E-02, dE(actual):    -0.14299E-02, Trust radius:    0.800000, all in a.u.
 
----------------------------------------------------------------------
Geometry Convergence after Step   5       (Hartree/Angstrom,Angstrom)
----------------------------------------------------------------------
current energy                               -1.62891260 Hartree
energy change                      -0.00142990     0.00008000    F
constrained gradient max            0.00953151     0.00100000    F
constrained gradient rms            0.00309398     0.00066667    F
gradient max                        0.00953151
gradient rms                        0.00309398
cart. step max                      0.03358406     0.00100000    F
cart. step rms                      0.01824012     0.00066667    F
 
 
--------
Geometry
--------
Atoms
  Index Symbol   x (angstrom)   y (angstrom)   z (angstrom)
      1      P    -0.05888840    -0.07928542    -0.14199159
      2      O     1.53706684    -0.09207330     0.09449417
      3      O    -0.38780076     1.49521745    -0.03304420
      4      O    -0.60097129    -0.61976317     1.27782256
      5      O    -0.55505830    -0.77865118    -1.34879392
      6      H     1.93978734    -0.93983977    -0.17156526
      7      H    -0.34735884     1.93723241    -0.90188362
      8      H    -1.52668659    -0.92283702     1.22485186
 
Total System Charge             0.00000
Bonding info available!
 
 *** GOStep6 ***

 Energy gradients wrt nuclear displacements
 ==========================================

     Atom      Cartesian (a.u./angstrom)
                 X         Y         Z
 ----------------------------------------
     1 P     0.000684  0.001107  0.000843
     2 O    -0.000119 -0.000963 -0.000966
     3 O    -0.000754 -0.001127 -0.001149
     4 O    -0.000767 -0.000436 -0.001566
     5 O    -0.000006  0.000075  0.000113
     6 H     0.000985  0.000011  0.001120
     7 H     0.000457  0.001072  0.000186
     8 H    -0.000480  0.000260  0.001418
 ----------------------------------------
 Mulliken charges used for AMS results%charges...

 dE(predicted):    -0.24664E-03, dE(actual):    -0.29366E-03, Trust radius:    0.800000, all in a.u.
 
----------------------------------------------------------------------
Geometry Convergence after Step   6       (Hartree/Angstrom,Angstrom)
----------------------------------------------------------------------
current energy                               -1.62920626 Hartree
energy change                      -0.00029366     0.00008000    F
constrained gradient max            0.00154293     0.00100000    F
constrained gradient rms            0.00082213     0.00066667    F
gradient max                        0.00154293
gradient rms                        0.00082213
cart. step max                      0.01334010     0.00100000    F
cart. step rms                      0.00652864     0.00066667    F
 
 
--------
Geometry
--------
Atoms
  Index Symbol   x (angstrom)   y (angstrom)   z (angstrom)
      1      P    -0.05714034    -0.07622397    -0.13526215
      2      O     1.53783390    -0.09687710     0.10430435
      3      O    -0.37643090     1.50081741    -0.03324751
      4      O    -0.60748780    -0.61138456     1.28324682
      5      O    -0.55281993    -0.77653740    -1.34281114
      6      H     1.93734674    -0.93838656    -0.18490537
      7      H    -0.35549581     1.93190784    -0.90802636
      8      H    -1.52571587    -0.93331565     1.21659135
 
Total System Charge             0.00000
Bonding info available!
 
 *** GOStep7 ***

 Energy gradients wrt nuclear displacements
 ==========================================

     Atom      Cartesian (a.u./angstrom)
                 X         Y         Z
 ----------------------------------------
     1 P     0.000890  0.001601  0.002739
     2 O    -0.000400 -0.001076 -0.000919
     3 O    -0.000022 -0.000659 -0.001725
     4 O    -0.001116 -0.000474 -0.001227
     5 O    -0.000224 -0.000615 -0.001104
     6 H     0.000706  0.000257  0.000827
     7 H     0.000162  0.000743  0.000375
     8 H     0.000004  0.000221  0.001035
 ----------------------------------------
 Mulliken charges used for AMS results%charges...

 dE(predicted):    -0.29512E-04, dE(actual):    -0.35283E-04, Trust radius:    0.800000, all in a.u.
 
----------------------------------------------------------------------
Geometry Convergence after Step   7       (Hartree/Angstrom,Angstrom)
----------------------------------------------------------------------
current energy                               -1.62924155 Hartree
energy change                      -0.00003528     0.00008000    T
constrained gradient max            0.00273798     0.00100000    F
constrained gradient rms            0.00099385     0.00066667    F
gradient max                        0.00273798
gradient rms                        0.00099385
cart. step max                      0.01044865     0.00100000    F
cart. step rms                      0.00524844     0.00066667    F
 
 
--------
Geometry
--------
Atoms
  Index Symbol   x (angstrom)   y (angstrom)   z (angstrom)
      1      P    -0.05501364    -0.07382265    -0.13053256
      2      O     1.53945623    -0.09999809     0.11231404
      3      O    -0.36909181     1.50485861    -0.03166269
      4      O    -0.61126698    -0.60427403     1.28754394
      5      O    -0.55129390    -0.77498196    -1.33731961
      6      H     1.93347523    -0.93774638    -0.19535401
      7      H    -0.36218698     1.92511046    -0.91210854
      8      H    -1.52398815    -0.93914596     1.20700943
 
Total System Charge             0.00000
Bonding info available!
 
 *** GOStep8 ***

 Energy gradients wrt nuclear displacements
 ==========================================

     Atom      Cartesian (a.u./angstrom)
                 X         Y         Z
 ----------------------------------------
     1 P     0.000646  0.000854  0.001457
     2 O    -0.000238 -0.000504 -0.000163
     3 O     0.000156 -0.000266 -0.000688
     4 O    -0.000496  0.000139 -0.000546
     5 O    -0.000232 -0.000569 -0.000715
     6 H     0.000140  0.000064  0.000452
     7 H     0.000099  0.000064  0.000008
     8 H    -0.000075  0.000218  0.000196
 ----------------------------------------
 Mulliken charges used for AMS results%charges...

 dE(predicted):    -0.16891E-04, dE(actual):    -0.11580E-04, Trust radius:    0.800000, all in a.u.
 
----------------------------------------------------------------------
Geometry Convergence after Step   8       (Hartree/Angstrom,Angstrom)
----------------------------------------------------------------------
current energy                               -1.62925313 Hartree
energy change                      -0.00001158     0.00008000    T
constrained gradient max            0.00145449     0.00100000    F
constrained gradient rms            0.00047734     0.00066667    T
gradient max                        0.00145449
gradient rms                        0.00047734
cart. step max                      0.00141034     0.00100000    F
cart. step rms                      0.00072892     0.00066667    F
 
 
--------
Geometry
--------
Atoms
  Index Symbol   x (angstrom)   y (angstrom)   z (angstrom)
      1      P    -0.05528500    -0.07367923    -0.13002592
      2      O     1.53935712    -0.09947751     0.11312209
      3      O    -0.36907003     1.50537934    -0.03141086
      4      O    -0.61123577    -0.60414421     1.28848831
      5      O    -0.55115399    -0.77482198    -1.33658371
      6      H     1.93206489    -0.93721130    -0.19669297
      7      H    -0.36102186     1.92388209    -0.91284791
      8      H    -1.52356536    -0.93992721     1.20584099
 
Total System Charge             0.00000
Bonding info available!
 
 *** GOStep9 ***

 Energy gradients wrt nuclear displacements
 ==========================================

     Atom      Cartesian (a.u./angstrom)
                 X         Y         Z
 ----------------------------------------
     1 P     0.000076  0.000114  0.000363
     2 O    -0.000122 -0.000101  0.000122
     3 O     0.000203  0.000020 -0.000319
     4 O    -0.000181  0.000119 -0.000028
     5 O     0.000039 -0.000213 -0.000185
     6 H    -0.000026 -0.000117  0.000330
     7 H     0.000168 -0.000060 -0.000228
     8 H    -0.000157  0.000238 -0.000054
 ----------------------------------------
 Mulliken charges used for AMS results%charges...
 
---------------------------------------------------------
Geometry Convergence after Step   9       ** CONVERGED **
---------------------------------------------------------
current energy                               -1.62925231 Hartree
energy change                       0.00000082     0.00008000    T
constrained gradient max            0.00036009     0.00100000    T
constrained gradient rms            0.00010323     0.00066667    T
gradient max                        0.00036009
gradient rms                        0.00010323
cart. step max                      0.00064041     0.00100000    T
cart. step rms                      0.00022029     0.00066667    T
 
Geometry optimization converged

Optimized geometry:
 
--------
Geometry
--------
Atoms
  Index Symbol   x (angstrom)   y (angstrom)   z (angstrom)
      1      P    -0.05528500    -0.07367923    -0.13002592
      2      O     1.53935712    -0.09947751     0.11312209
      3      O    -0.36907003     1.50537934    -0.03141086
      4      O    -0.61123577    -0.60414421     1.28848831
      5      O    -0.55115399    -0.77482198    -1.33658371
      6      H     1.93206489    -0.93721130    -0.19669297
      7      H    -0.36102186     1.92388209    -0.91284791
      8      H    -1.52356536    -0.93992721     1.20584099
 
Total System Charge             0.00000
Bonding info available!
 
Performing a single point calculation on the final geometry ...

 *** adf ***



 ===========================
 A T T A C H E D   F I L E S
 ===========================
  
 Restart/tmp/amstmp_ams_kid0.2015675496/GOStep9.rkf*** GOStep9 ***



 ===============================
 M O D E L   P A R A M E T E R S
 ===============================
  
 DENSITY FUNCTIONAL POTENTIAL (scf)
    LDA:                               Exchange only                           == Not Default ==
    Gradient Corrections:              Becke88 LYP                             == Not Default ==

 SPIN  (restricted / unrestr.)
    Molecule:                          Restricted                               
    Fragments:                         Restricted                               

 OTHER ASPECTS
    Relativistic Corrections:          ---                                     == Not Default ==

    Nuclear Charge Density Model:      Point Charge Nuclei                      
    Core Treatment:                    Frozen Orbital(s)                        

    Hyperfine or Zeeman Interaction:   ---                                      



 ===============
 G E O M E T R Y  ***  3D  Molecule  ***
 ===============
  

 ATOMS
 =====                            X Y Z                    CHARGE
                                (Angstrom)             Nucl     +Core       At.Mass
                       --------------------------    ----------------       -------
    1  P              -0.0553   -0.0737   -0.1300     15.00     15.00       30.9738
    2  O               1.5394   -0.0995    0.1131      8.00      8.00       15.9949
    3  O              -0.3691    1.5054   -0.0314      8.00      8.00       15.9949
    4  O              -0.6112   -0.6041    1.2885      8.00      8.00       15.9949
    5  O              -0.5512   -0.7748   -1.3366      8.00      8.00       15.9949
    6  H               1.9321   -0.9372   -0.1967      1.00      1.00        1.0078
    7  H              -0.3610    1.9239   -0.9128      1.00      1.00        1.0078
    8  H              -1.5236   -0.9399    1.2058      1.00      1.00        1.0078


 FRAGMENTS
 =========                                     Atoms in this Fragment     Cart. coord.s (Angstrom)
                                               -------------------------------------------------------
    1  P                                                 1  P           -0.0553   -0.0737   -0.1300
    2  O                                                 2  O            1.5394   -0.0995    0.1131
    3  O                                                 3  O           -0.3691    1.5054   -0.0314
    4  O                                                 4  O           -0.6112   -0.6041    1.2885
    5  O                                                 5  O           -0.5512   -0.7748   -1.3366
    6  H                                                 6  H            1.9321   -0.9372   -0.1967
    7  H                                                 7  H           -0.3610    1.9239   -0.9128
    8  H                                                 8  H           -1.5236   -0.9399    1.2058


 Interatomic Distance Matrix (Angstrom)
 --------------------------------------

   1)     0.000
   2)     1.613   0.000
   3)     1.613   2.498   0.000
   4)     1.613   2.502   2.500   0.000
   5)     1.481   2.632   2.634   2.631   0.000
   6)     2.168   0.976   3.360   2.964   2.737   0.000
   7)     2.167   2.959   0.976   3.361   2.738   3.736   0.000
   8)     2.166   3.359   2.974   0.976   2.727   3.729   3.747   0.000

 Min. Distance =    0.9757
 Max. Distance =    3.7472



 =====================================
 S Y M M E T R Y ,   E L E C T R O N S
 =====================================
  
 Symmetry: NOSYM

 Irreducible Representations, including subspecies
 -------------------------------------------------
 A


 Configuration of Valence Electrons
 ==================================
 ( determined in the SCF procedure )

 Total:   50

 Net Charge: 0 (Nuclei minus Electrons)

 Aufbau principle for MO occupations will be applied through SCF cycle no.     150
 Thereafter, the program will assign electrons to MOs that are spatially
 similar to the occupied MOs in a "reference" cycle ("KeepOrbitals").
 The reference cycle is always the PREVIOUS cycle: it will evolve with
 the SCF procedure.
1
 ***************************************************************************************************



                                      ****************************************
                                      *  B U I L D : (Fragments, Functions)  *
                                      ****************************************
  



 =======
 S F O s  ***  (Symmetrized Fragment Orbitals)  ***
 =======
  
 SFOs are linear combinations of (valence) Fragment Orbitals (FOs), such that the SFOs transform as the
 irreducible representations of the (molecular) symmetry group. Each SFO is therefore characterized by
 an irrep of the molecule and by a few (or only one) generating FOs.
 The SFOs constitute a symmetry-adapted basis for the Fock matrix. The MO eigenvector coefficients in
 this basis provide a direct interpretation of the MOs in terms of Frontier Orbital Theory.

 The SFOs are combined with auxiliary Core Functions (CFs) to ensure orthogonalization on the (frozen)
 Core Orbitals (COs). The Core-orthogonalized SFOs (CSFOs) constitute the true Fock basis.

 The FOs, and hence also the (C)SFOs are combinations of the elementary basis functions (BAS). The basis
 functions that participate in the description of the SFOs depend on the irrep. The indices of the
 involved functions are printed below for each irrep.
 (The complete list of primitive basis functions is printed in another section)

 Total nr. of (C)SFOs (summation over all irreps) :   171

 NOTE: a (C)SFO that is defined as a combination of more than one FO is usually NOT normalized.



                                       === A ===
 Nr. of SFOs :  171
 Cartesian basis functions that participate in this irrep (total number =   194) :
      1     2     3     4    11    12    13     5     8    14
     17    20     6     9    15    18    21     7    10    16
     19    22    23    24    25    26    27    28    29    30
     31    32    33    34    35    36    37    38    39    40
     41    42    43    44    47    50    45    48    51    46
     49    52    53    54    55    56    57    58    59    60
     61    62    63    64    65    66    67    68    69    70
     71    72    73    74    77    80    75    78    81    76
     79    82    83    84    85    86    87    88    89    90
     91    92    93    94    95    96    97    98    99   100
    101   102   103   104   107   110   105   108   111   106
    109   112   113   114   115   116   117   118   119   120
    121   122   123   124   125   126   127   128   129   130
    131   132   133   134   137   140   135   138   141   136
    139   142   143   144   145   146   147   148   149   150
    151   152   153   154   155   156   157   158   159   160
    161   162   163   164   165   166   167   168   169   170
    171   172   173   174   175   176   177   178   179   180
    181   182   183   184   185   186   187   188   189   190
    191   192   193   194

    SFO  (index         Fragment          Generating    Expansion in Fragment Orbitals
  indx  incl.CFs)   Occup   Orb.Energy   FragmentType  Coeff.   Orbital     on Fragment
 --------------------------------------------------------------------------------------
     1       1      2.000     -76.407 au  P             1.00      1 S               1
                        (   -2079.135 eV)
     2       2      2.000      -6.350 au  P             1.00      2 S               1
                        (    -172.797 eV)
     3       3      2.000      -0.506 au  P             1.00      3 S               1
                        (     -13.757 eV)
     4       4       --         0.112 au  P             1.00      4 S               1
                        (       3.050 eV)
     5       5       --         1.321 au  P             1.00      5 S               1
                        (      35.956 eV)
     6       6       --         9.347 au  P             1.00      6 S               1
                        (     254.341 eV)
     7       7       --       164.273 au  P             1.00      7 S               1
                        (    4470.099 eV)
     8       8      2.000      -4.570 au  P             1.00      1 P:x             1
                        (    -124.355 eV)
     9       9      1.000      -0.197 au  P             1.00      2 P:x             1
                        (      -5.364 eV)
    10      10       --         0.085 au  P             1.00      3 P:x             1
                        (       2.320 eV)
    11      11       --         0.860 au  P             1.00      4 P:x             1
                        (      23.398 eV)
    12      12       --        10.300 au  P             1.00      5 P:x             1
                        (     280.284 eV)
    13      13      2.000      -4.570 au  P             1.00      1 P:y             1
                        (    -124.355 eV)
    14      14      1.000      -0.197 au  P             1.00      2 P:y             1
                        (      -5.364 eV)
    15      15       --         0.085 au  P             1.00      3 P:y             1
                        (       2.320 eV)
    16      16       --         0.860 au  P             1.00      4 P:y             1
                        (      23.398 eV)
    17      17       --        10.300 au  P             1.00      5 P:y             1
                        (     280.284 eV)
    18      18      2.000      -4.570 au  P             1.00      1 P:z             1
                        (    -124.355 eV)
    19      19      1.000      -0.197 au  P             1.00      2 P:z             1
                        (      -5.364 eV)
    20      20       --         0.085 au  P             1.00      3 P:z             1
                        (       2.320 eV)
    21      21       --         0.860 au  P             1.00      4 P:z             1
                        (      23.398 eV)
    22      22       --        10.300 au  P             1.00      5 P:z             1
                        (     280.284 eV)
    23      23       --         0.385 au  P             1.00      1 D:z2            1
                        (      10.482 eV)
    24      24       --         0.385 au  P             1.00      1 D:x2-y2         1
                        (      10.482 eV)
    25      25       --         0.385 au  P             1.00      1 D:xy            1
                        (      10.482 eV)
    26      26       --         0.385 au  P             1.00      1 D:xz            1
                        (      10.482 eV)
    27      27       --         0.385 au  P             1.00      1 D:yz            1
                        (      10.482 eV)
    28      28       --         1.158 au  P             1.00      1 F:z3            1
                        (      31.504 eV)
    29      29       --         1.158 au  P             1.00      1 F:z             1
                        (      31.504 eV)
    30      30       --         1.158 au  P             1.00      1 F:xyz           1
                        (      31.504 eV)
    31      31       --         1.158 au  P             1.00      1 F:z2x           1
                        (      31.504 eV)
    32      32       --         1.158 au  P             1.00      1 F:z2y           1
                        (      31.504 eV)
    33      33       --         1.158 au  P             1.00      1 F:x             1
                        (      31.504 eV)
    34      34       --         1.158 au  P             1.00      1 F:y             1
                        (      31.504 eV)
    35      35      2.000     -18.927 au  O             1.00      1 S               2
                        (    -515.020 eV)
    36      36      2.000      -0.874 au  O             1.00      2 S               2
                        (     -23.792 eV)
    37      37       --         0.793 au  O             1.00      3 S               2
                        (      21.588 eV)
    38      38       --        13.460 au  O             1.00      4 S               2
                        (     366.259 eV)
    39      39       --       123.108 au  O             1.00      5 S               2
                        (    3349.933 eV)
    40      40      1.333      -0.332 au  O             1.00      1 P:x             2
                        (      -9.028 eV)
    41      41       --         0.347 au  O             1.00      2 P:x             2
                        (       9.435 eV)
    42      42       --         3.825 au  O             1.00      3 P:x             2
                        (     104.075 eV)
    43      43      1.333      -0.332 au  O             1.00      1 P:y             2
                        (      -9.028 eV)
    44      44       --         0.347 au  O             1.00      2 P:y             2
                        (       9.435 eV)
    45      45       --         3.825 au  O             1.00      3 P:y             2
                        (     104.075 eV)
    46      46      1.333      -0.332 au  O             1.00      1 P:z             2
                        (      -9.028 eV)
    47      47       --         0.347 au  O             1.00      2 P:z             2
                        (       9.435 eV)
    48      48       --         3.825 au  O             1.00      3 P:z             2
                        (     104.075 eV)
    49      49       --         1.070 au  O             1.00      1 D:z2            2
                        (      29.129 eV)
    50      50       --         1.070 au  O             1.00      1 D:x2-y2         2
                        (      29.129 eV)
    51      51       --         1.070 au  O             1.00      1 D:xy            2
                        (      29.129 eV)
    52      52       --         1.070 au  O             1.00      1 D:xz            2
                        (      29.129 eV)
    53      53       --         1.070 au  O             1.00      1 D:yz            2
                        (      29.129 eV)
    54      54       --         3.359 au  O             1.00      1 F:z3            2
                        (      91.415 eV)
    55      55       --         3.359 au  O             1.00      1 F:z             2
                        (      91.415 eV)
    56      56       --         3.359 au  O             1.00      1 F:xyz           2
                        (      91.415 eV)
    57      57       --         3.359 au  O             1.00      1 F:z2x           2
                        (      91.415 eV)
    58      58       --         3.359 au  O             1.00      1 F:z2y           2
                        (      91.415 eV)
    59      59       --         3.359 au  O             1.00      1 F:x             2
                        (      91.415 eV)
    60      60       --         3.359 au  O             1.00      1 F:y             2
                        (      91.415 eV)
    61      61      2.000     -18.927 au  O             1.00      1 S               3
                        (    -515.020 eV)
    62      62      2.000      -0.874 au  O             1.00      2 S               3
                        (     -23.792 eV)
    63      63       --         0.793 au  O             1.00      3 S               3
                        (      21.588 eV)
    64      64       --        13.460 au  O             1.00      4 S               3
                        (     366.259 eV)
    65      65       --       123.108 au  O             1.00      5 S               3
                        (    3349.933 eV)
    66      66      1.333      -0.332 au  O             1.00      1 P:x             3
                        (      -9.028 eV)
    67      67       --         0.347 au  O             1.00      2 P:x             3
                        (       9.435 eV)
    68      68       --         3.825 au  O             1.00      3 P:x             3
                        (     104.075 eV)
    69      69      1.333      -0.332 au  O             1.00      1 P:y             3
                        (      -9.028 eV)
    70      70       --         0.347 au  O             1.00      2 P:y             3
                        (       9.435 eV)
    71      71       --         3.825 au  O             1.00      3 P:y             3
                        (     104.075 eV)
    72      72      1.333      -0.332 au  O             1.00      1 P:z             3
                        (      -9.028 eV)
    73      73       --         0.347 au  O             1.00      2 P:z             3
                        (       9.435 eV)
    74      74       --         3.825 au  O             1.00      3 P:z             3
                        (     104.075 eV)
    75      75       --         1.070 au  O             1.00      1 D:z2            3
                        (      29.129 eV)
    76      76       --         1.070 au  O             1.00      1 D:x2-y2         3
                        (      29.129 eV)
    77      77       --         1.070 au  O             1.00      1 D:xy            3
                        (      29.129 eV)
    78      78       --         1.070 au  O             1.00      1 D:xz            3
                        (      29.129 eV)
    79      79       --         1.070 au  O             1.00      1 D:yz            3
                        (      29.129 eV)
    80      80       --         3.359 au  O             1.00      1 F:z3            3
                        (      91.415 eV)
    81      81       --         3.359 au  O             1.00      1 F:z             3
                        (      91.415 eV)
    82      82       --         3.359 au  O             1.00      1 F:xyz           3
                        (      91.415 eV)
    83      83       --         3.359 au  O             1.00      1 F:z2x           3
                        (      91.415 eV)
    84      84       --         3.359 au  O             1.00      1 F:z2y           3
                        (      91.415 eV)
    85      85       --         3.359 au  O             1.00      1 F:x             3
                        (      91.415 eV)
    86      86       --         3.359 au  O             1.00      1 F:y             3
                        (      91.415 eV)
    87      87      2.000     -18.927 au  O             1.00      1 S               4
                        (    -515.020 eV)
    88      88      2.000      -0.874 au  O             1.00      2 S               4
                        (     -23.792 eV)
    89      89       --         0.793 au  O             1.00      3 S               4
                        (      21.588 eV)
    90      90       --        13.460 au  O             1.00      4 S               4
                        (     366.259 eV)
    91      91       --       123.108 au  O             1.00      5 S               4
                        (    3349.933 eV)
    92      92      1.333      -0.332 au  O             1.00      1 P:x             4
                        (      -9.028 eV)
    93      93       --         0.347 au  O             1.00      2 P:x             4
                        (       9.435 eV)
    94      94       --         3.825 au  O             1.00      3 P:x             4
                        (     104.075 eV)
    95      95      1.333      -0.332 au  O             1.00      1 P:y             4
                        (      -9.028 eV)
    96      96       --         0.347 au  O             1.00      2 P:y             4
                        (       9.435 eV)
    97      97       --         3.825 au  O             1.00      3 P:y             4
                        (     104.075 eV)
    98      98      1.333      -0.332 au  O             1.00      1 P:z             4
                        (      -9.028 eV)
    99      99       --         0.347 au  O             1.00      2 P:z             4
                        (       9.435 eV)
   100     100       --         3.825 au  O             1.00      3 P:z             4
                        (     104.075 eV)
   101     101       --         1.070 au  O             1.00      1 D:z2            4
                        (      29.129 eV)
   102     102       --         1.070 au  O             1.00      1 D:x2-y2         4
                        (      29.129 eV)
   103     103       --         1.070 au  O             1.00      1 D:xy            4
                        (      29.129 eV)
   104     104       --         1.070 au  O             1.00      1 D:xz            4
                        (      29.129 eV)
   105     105       --         1.070 au  O             1.00      1 D:yz            4
                        (      29.129 eV)
   106     106       --         3.359 au  O             1.00      1 F:z3            4
                        (      91.415 eV)
   107     107       --         3.359 au  O             1.00      1 F:z             4
                        (      91.415 eV)
   108     108       --         3.359 au  O             1.00      1 F:xyz           4
                        (      91.415 eV)
   109     109       --         3.359 au  O             1.00      1 F:z2x           4
                        (      91.415 eV)
   110     110       --         3.359 au  O             1.00      1 F:z2y           4
                        (      91.415 eV)
   111     111       --         3.359 au  O             1.00      1 F:x             4
                        (      91.415 eV)
   112     112       --         3.359 au  O             1.00      1 F:y             4
                        (      91.415 eV)
   113     113      2.000     -18.927 au  O             1.00      1 S               5
                        (    -515.020 eV)
   114     114      2.000      -0.874 au  O             1.00      2 S               5
                        (     -23.792 eV)
   115     115       --         0.793 au  O             1.00      3 S               5
                        (      21.588 eV)
   116     116       --        13.460 au  O             1.00      4 S               5
                        (     366.259 eV)
   117     117       --       123.108 au  O             1.00      5 S               5
                        (    3349.933 eV)
   118     118      1.333      -0.332 au  O             1.00      1 P:x             5
                        (      -9.028 eV)
   119     119       --         0.347 au  O             1.00      2 P:x             5
                        (       9.435 eV)
   120     120       --         3.825 au  O             1.00      3 P:x             5
                        (     104.075 eV)
   121     121      1.333      -0.332 au  O             1.00      1 P:y             5
                        (      -9.028 eV)
   122     122       --         0.347 au  O             1.00      2 P:y             5
                        (       9.435 eV)
   123     123       --         3.825 au  O             1.00      3 P:y             5
                        (     104.075 eV)
   124     124      1.333      -0.332 au  O             1.00      1 P:z             5
                        (      -9.028 eV)
   125     125       --         0.347 au  O             1.00      2 P:z             5
                        (       9.435 eV)
   126     126       --         3.825 au  O             1.00      3 P:z             5
                        (     104.075 eV)
   127     127       --         1.070 au  O             1.00      1 D:z2            5
                        (      29.129 eV)
   128     128       --         1.070 au  O             1.00      1 D:x2-y2         5
                        (      29.129 eV)
   129     129       --         1.070 au  O             1.00      1 D:xy            5
                        (      29.129 eV)
   130     130       --         1.070 au  O             1.00      1 D:xz            5
                        (      29.129 eV)
   131     131       --         1.070 au  O             1.00      1 D:yz            5
                        (      29.129 eV)
   132     132       --         3.359 au  O             1.00      1 F:z3            5
                        (      91.415 eV)
   133     133       --         3.359 au  O             1.00      1 F:z             5
                        (      91.415 eV)
   134     134       --         3.359 au  O             1.00      1 F:xyz           5
                        (      91.415 eV)
   135     135       --         3.359 au  O             1.00      1 F:z2x           5
                        (      91.415 eV)
   136     136       --         3.359 au  O             1.00      1 F:z2y           5
                        (      91.415 eV)
   137     137       --         3.359 au  O             1.00      1 F:x             5
                        (      91.415 eV)
   138     138       --         3.359 au  O             1.00      1 F:y             5
                        (      91.415 eV)
   139     139      1.000      -0.240 au  H             1.00      1 S               6
                        (      -6.532 eV)
   140     140       --         0.088 au  H             1.00      2 S               6
                        (       2.394 eV)
   141     141       --         1.502 au  H             1.00      3 S               6
                        (      40.877 eV)
   142     142       --         0.406 au  H             1.00      1 P:x             6
                        (      11.052 eV)
   143     143       --         0.406 au  H             1.00      1 P:y             6
                        (      11.052 eV)
   144     144       --         0.406 au  H             1.00      1 P:z             6
                        (      11.052 eV)
   145     145       --         2.570 au  H             1.00      1 D:z2            6
                        (      69.925 eV)
   146     146       --         2.570 au  H             1.00      1 D:x2-y2         6
                        (      69.925 eV)
   147     147       --         2.570 au  H             1.00      1 D:xy            6
                        (      69.925 eV)
   148     148       --         2.570 au  H             1.00      1 D:xz            6
                        (      69.925 eV)
   149     149       --         2.570 au  H             1.00      1 D:yz            6
                        (      69.925 eV)
   150     150      1.000      -0.240 au  H             1.00      1 S               7
                        (      -6.532 eV)
   151     151       --         0.088 au  H             1.00      2 S               7
                        (       2.394 eV)
   152     152       --         1.502 au  H             1.00      3 S               7
                        (      40.877 eV)
   153     153       --         0.406 au  H             1.00      1 P:x             7
                        (      11.052 eV)
   154     154       --         0.406 au  H             1.00      1 P:y             7
                        (      11.052 eV)
   155     155       --         0.406 au  H             1.00      1 P:z             7
                        (      11.052 eV)
   156     156       --         2.570 au  H             1.00      1 D:z2            7
                        (      69.925 eV)
   157     157       --         2.570 au  H             1.00      1 D:x2-y2         7
                        (      69.925 eV)
   158     158       --         2.570 au  H             1.00      1 D:xy            7
                        (      69.925 eV)
   159     159       --         2.570 au  H             1.00      1 D:xz            7
                        (      69.925 eV)
   160     160       --         2.570 au  H             1.00      1 D:yz            7
                        (      69.925 eV)
   161     161      1.000      -0.240 au  H             1.00      1 S               8
                        (      -6.532 eV)
   162     162       --         0.088 au  H             1.00      2 S               8
                        (       2.394 eV)
   163     163       --         1.502 au  H             1.00      3 S               8
                        (      40.877 eV)
   164     164       --         0.406 au  H             1.00      1 P:x             8
                        (      11.052 eV)
   165     165       --         0.406 au  H             1.00      1 P:y             8
                        (      11.052 eV)
   166     166       --         0.406 au  H             1.00      1 P:z             8
                        (      11.052 eV)
   167     167       --         2.570 au  H             1.00      1 D:z2            8
                        (      69.925 eV)
   168     168       --         2.570 au  H             1.00      1 D:x2-y2         8
                        (      69.925 eV)
   169     169       --         2.570 au  H             1.00      1 D:xy            8
                        (      69.925 eV)
   170     170       --         2.570 au  H             1.00      1 D:xz            8
                        (      69.925 eV)
   171     171       --         2.570 au  H             1.00      1 D:yz            8
                        (      69.925 eV)



 ================================
 (Slater-type)  F U N C T I O N S  ***  (Basis and Fit)  ***
 ================================
  

 Atom Type    1  (P)
 ==============

 Valence Basis Sets:  14
 -----------------------
   1 S   18.000000
   1 S   13.350000
   2 S    5.600000
   2 S    4.050000
   2 P    7.450000
   2 P    4.100000
   3 S    2.700000
   3 S    1.850000
   3 S    1.300000
   3 P    2.300000
   3 P    1.350000
   3 P    0.850000
   3 D    1.900000
   4 F    2.000000

 Atom Type    2  (O)
 ==============

 Valence Basis Sets:  10
 -----------------------
   1 S    9.800000
   1 S    6.800000
   2 S    7.580000
   2 S    2.880000
   2 S    1.720000
   2 P    4.080000
   2 P    2.080000
   2 P    1.120000
   3 D    2.000000
   4 F    3.000000

 Atom Type    3  (H)
 ==============

 Valence Basis Sets:   5
 -----------------------
   1 S    0.690000
   1 S    0.920000
   1 S    1.580000
   2 P    1.250000
   3 D    2.500000


 BAS: List of all Elementary Cartesian Basis Functions
 =====================================================

 The numbering in the list below (to the right of the function characteristics) is referred
 to in print-outs of MO eigenvectors and Mulliken populations in the BAS representation
 (as contrasted to the SFO representation).

 Notes:
 1. The functions are characterized by a polynomial prefactor (powers of x,y,z and r) and
    an exponential decay factor alpha.
 2. Since the basis sets are specific for an atom TYPE, the individual functions occur on
    all atoms of that type.
 3. The word 'Core' in the left margin signals that it is a Core Function (CF) : not a
    degree of freedom in the valence set, but only used to ensure orthogonalization of
    the other valence basis functions on the frozen Core Orbitals.


 (power of) X  Y  Z  R     Alpha  on Atom
            ==========     =====     ==========

 P                                    1
                                  ---------------------------------------------------------------------------
            0  0  0  0    18.000      1
            0  0  0  0    13.350      2
            0  0  0  1     5.600      3
            0  0  0  1     4.050      4
            1  0  0  0     7.450      5
            0  1  0  0     7.450      6
            0  0  1  0     7.450      7
            1  0  0  0     4.100      8
            0  1  0  0     4.100      9
            0  0  1  0     4.100     10
            0  0  0  2     2.700     11
            0  0  0  2     1.850     12
            0  0  0  2     1.300     13
            1  0  0  1     2.300     14
            0  1  0  1     2.300     15
            0  0  1  1     2.300     16
            1  0  0  1     1.350     17
            0  1  0  1     1.350     18
            0  0  1  1     1.350     19
            1  0  0  1     0.850     20
            0  1  0  1     0.850     21
            0  0  1  1     0.850     22
            2  0  0  0     1.900     23
            1  1  0  0     1.900     24
            1  0  1  0     1.900     25
            0  2  0  0     1.900     26
            0  1  1  0     1.900     27
            0  0  2  0     1.900     28
            3  0  0  0     2.000     29
            2  1  0  0     2.000     30
            2  0  1  0     2.000     31
            1  2  0  0     2.000     32
            1  1  1  0     2.000     33
            1  0  2  0     2.000     34
            0  3  0  0     2.000     35
            0  2  1  0     2.000     36
            0  1  2  0     2.000     37
            0  0  3  0     2.000     38

 O                                    2    3    4    5
                                  ---------------------------------------------------------------------------
            0  0  0  0     9.800     39   69   99  129
            0  0  0  0     6.800     40   70  100  130
            0  0  0  1     7.580     41   71  101  131
            0  0  0  1     2.880     42   72  102  132
            0  0  0  1     1.720     43   73  103  133
            1  0  0  0     4.080     44   74  104  134
            0  1  0  0     4.080     45   75  105  135
            0  0  1  0     4.080     46   76  106  136
            1  0  0  0     2.080     47   77  107  137
            0  1  0  0     2.080     48   78  108  138
            0  0  1  0     2.080     49   79  109  139
            1  0  0  0     1.120     50   80  110  140
            0  1  0  0     1.120     51   81  111  141
            0  0  1  0     1.120     52   82  112  142
            2  0  0  0     2.000     53   83  113  143
            1  1  0  0     2.000     54   84  114  144
            1  0  1  0     2.000     55   85  115  145
            0  2  0  0     2.000     56   86  116  146
            0  1  1  0     2.000     57   87  117  147
            0  0  2  0     2.000     58   88  118  148
            3  0  0  0     3.000     59   89  119  149
            2  1  0  0     3.000     60   90  120  150
            2  0  1  0     3.000     61   91  121  151
            1  2  0  0     3.000     62   92  122  152
            1  1  1  0     3.000     63   93  123  153
            1  0  2  0     3.000     64   94  124  154
            0  3  0  0     3.000     65   95  125  155
            0  2  1  0     3.000     66   96  126  156
            0  1  2  0     3.000     67   97  127  157
            0  0  3  0     3.000     68   98  128  158

 H                                    6    7    8
                                  ---------------------------------------------------------------------------
            0  0  0  0     0.690    159  171  183
            0  0  0  0     0.920    160  172  184
            0  0  0  0     1.580    161  173  185
            1  0  0  0     1.250    162  174  186
            0  1  0  0     1.250    163  175  187
            0  0  1  0     1.250    164  176  188
            2  0  0  0     2.500    165  177  189
            1  1  0  0     2.500    166  178  190
            1  0  1  0     2.500    167  179  191
            0  2  0  0     2.500    168  180  192
            0  1  1  0     2.500    169  181  193
            0  0  2  0     2.500    170  182  194

 Total number of charge fitting functions (nprimf)       592
 Total number of Cartesian basis functions (naos)        194
 Total number of Cartesian core functions  (ncos)          0

1
 ***************************************************************************************************



                                              ***********************
                                              *  T E C H N I C A L  *
                                              ***********************
  



 =============================================================
 P A R A L L E L I Z A T I O N  and  V E C T O R I Z A T I O N
 =============================================================
  
 Nr of parallel processes:                               12
 Maximum vector length in NumInt loops:                 128



 =====================
 S C F   U P D A T E S
 =====================
  
 Max. nr. of cycles:                               300
 Convergence criterion:                              0.0000010000
   secondary criterion:                              0.0010000000

 Mix parameter (when DIIS does not apply):           0.2000000000
 Mixed ADIIS+SDIIS will be used                  
    Max number of expansion vectors:                10
    Pure ADIIS when Max([F,P]) is above              0.1000000000
    Pure SDIIS when Max([F,P]) is below              0.0010000000
 Automatic ElectronSmearing (in case of problematic SCF convergence) disabled



 =================
 P R E C I S I O N  ***  (General: NumInt, NeglectFunctionTails, ...)  ***
 =================
  

 NumInt:           Target precision:                 4.0000000000
 -------           Initial precision:                4.0000000000
                   Min. precision (optimization):    4.0000000000

 Neglect Functions:          Basis functions:        0.1000000000E-05
 ------------------          Fit functions:          0.1000000000E-05



 ===========================
 L I N E A R   S C A L I N G
 ===========================
  

 Cut-off radii density fit:                        0.1000000000E-07
 Overlap cut-off criterion AO matrix elements:     0.1000000000E-05
 Cut-offs for Coulomb potential and fitted density:0.1000000000E-07
 Cut-off criterion for Coulomb multipole terms:    0.1000000000E-07
 Progressive Convergence parameter:                 0.000000000    

 Number of elements of the density matrix on this node (used, total):      1821     18915



 ===========================================
 Numerical Integration : Fuzzy Cells (Becke)
 ===========================================
  
 Becke grid quality: NORMAL         
  
 Lebedev angular grid order:             min:  11 max:  23
 Nr. of radial points:                   min:  46 max:  64

 Total nr. of points:      53261
 Nr. of blocks:              417
 Block length:               128
 Nr. of dummy points:        115


 Test of Precision of the Numerical Integration Grid
 ===================================================

 Integral of the Total Core Density:                   0.00000000000000



 ========================
 Density Fitting (zlmFit)
 ========================
  
 ZlmFit Fit Quality: NORMAL         
  
 Max L-expansion:                        min:   6 max:   7
 Nr. of radial interpolation points:     min:  39 max:  63



 =====
 S C F  ***  ScaSCF  ***
 =====
  
 Initial density matrix is taken from previous geometry

 CYCLE    1
  ***********************************************************
  ** : orbital data taken from :/tmp/amstmp_ams_kid0.2015675496/GOStep9.rkf
  ***********************************************************
 SCF Error: norm([F,P])=      0.000000093370, max([F,P])=      0.000000015719
 orbitals (Q,E):
 ---------------
 A :16...35          ( 2.00    -0.5090)  ( 2.00    -0.4290)  ( 2.00    -0.3912)  ( 2.00    -0.3909)
                     ( 2.00    -0.3399)  ( 2.00    -0.3395)  ( 2.00    -0.3344)  ( 2.00    -0.3053)
                     ( 2.00    -0.2661)  ( 2.00    -0.2660)  ( 0.00    -0.0512)  ( 0.00    -0.0088)
                     ( 0.00    -0.0087)  ( 0.00     0.0647)  ( 0.00     0.0839)  ( 0.00     0.0846)
                     ( 0.00     0.0848)  ( 0.00     0.1126)  ( 0.00     0.1208)  ( 0.00     0.1212)

 CYCLE    2
   MIX coefficients:  0.8000  0.2000
 SCF Error: norm([F,P])=      0.000000099357, max([F,P])=      0.000000016712
 orbitals (Q,E):
 ---------------
 A :16...26          ( 2.00    -0.5090)  ( 2.00    -0.4290)  ( 2.00    -0.3912)  ( 2.00    -0.3909)
                     ( 2.00    -0.3399)  ( 2.00    -0.3395)  ( 2.00    -0.3344)  ( 2.00    -0.3053)
                     ( 2.00    -0.2661)  ( 2.00    -0.2660)  ( 0.00    -0.0512)

 SCF CONVERGED

 CYCLE    3
1
 ***************************************************************************************************



                                                *******************
                                                *  R E S U L T S  *
                                                *******************
  
 *** Using FIT density in Focky
   MIX coefficients:  0.8000  0.2000
 SCF Error: norm([F,P])=      0.000000054603, max([F,P])=      0.000000008158

 Orbital Energies, per Irrep and Spin:
 ======================================
                        Occup              E (au)              E (eV)       Diff (eV) with prev. cycle
                        -----      --------------------        ------       --------------------------
 A
              16        2.000     -0.50901448784644E+00       -13.851               3.26E-07
              17        2.000     -0.42899656656542E+00       -11.674               4.20E-07
              18        2.000     -0.39119199821615E+00       -10.645               3.52E-07
              19        2.000     -0.39088057827643E+00       -10.636               4.10E-07
              20        2.000     -0.33987660619733E+00        -9.249               3.29E-07
              21        2.000     -0.33949108085736E+00        -9.238               4.50E-07
              22        2.000     -0.33442878449703E+00        -9.100               5.11E-07
              23        2.000     -0.30528205703229E+00        -8.307               3.89E-07
              24        2.000     -0.26613416212264E+00        -7.242               5.85E-07
              25        2.000     -0.26599331513659E+00        -7.238               6.10E-07
              26        0.000     -0.51161783543374E-01        -1.392
              27        0.000     -0.88489243247818E-02        -0.241
              28        0.000     -0.87169561208502E-02        -0.237
              29        0.000      0.64747820612400E-01         1.762
              30        0.000      0.83852919004746E-01         2.282
              31        0.000      0.84636943903273E-01         2.303
              32        0.000      0.84802490282155E-01         2.308
              33        0.000      0.11263306083537E+00         3.065
              34        0.000      0.12084038095955E+00         3.288
              35        0.000      0.12119802605298E+00         3.298
  
 HOMO :       25 A                -0.26599331513659E+00
 LUMO :       26 A                -0.51161783543374E-01
  


 All Electron Calculation, thus no Orbital Energies of the Core Orbitals are calculated


 Fit test: (difference of exact and fit density, squared integrated, result summed over spins)
         Sum-of-Fragments:                             0.00000000262247
         Orthogonalized Fragments:                     0.00015824329411
         SCF:                                          0.00013290015044



 ==========================
 Electron Density at Nuclei
 ==========================
  
 The electron density is calculated at points on a small sphere around the center of a nucleus.
 The printed electron density is the average electron density on these points.
 The radius of the sphere is the printed approximate finite nuclear radius.

         Atom        Nuclear Radius (Angstrom)             Electron Density (a.u.)
         ----        -------------------------             -----------------------
     1)   P                 0.0000412627                             2178.04549
     2)   O                 0.0000345546                              311.20658
     3)   O                 0.0000345546                              311.20598
     4)   O                 0.0000345546                              311.20547
     5)   O                 0.0000345546                              311.57833
     6)   H                 0.0000181514                                0.46255
     7)   H                 0.0000181514                                0.46250
     8)   H                 0.0000181514                                0.46255



 =======================================
 M U L L I K E N   P O P U L A T I O N S
 =======================================
  
 The survey below gives for each atom:
 a) the total charge (Z minus electrons)
 b) the net spin polarization (nr of electrons spin-A minus spin-B)
 c) for each spin the atomic electron valence density (integrated) per L-value.

 Atom              Charge    Spin density          S         P         D         F
 ----              ------    ------------       ------    ------    ------    ------
 1 P               1.4880                       4.8272    7.7269    0.8105    0.1474
 2 O              -0.4889                       3.7477    4.6948    0.0425    0.0039
 3 O              -0.4886                       3.7476    4.6946    0.0425    0.0039
 4 O              -0.4894                       3.7479    4.6950    0.0425    0.0039
 5 O              -0.6595                       3.8219    4.7873    0.0464    0.0039
 6 H               0.2124                       0.6516    0.1237    0.0122    0.0000
 7 H               0.2128                       0.6512    0.1237    0.0122    0.0000
 8 H               0.2131                       0.6508    0.1238    0.0123    0.0000

 Populations of individual BAS functions
 ----------------------------------------
 1 P            0.5137  1.4499  1.3775  0.6414  0.7953  0.7956  0.7968  1.2041  1.2038  1.2024
                0.3840  0.6355 -0.1749  0.3686  0.3722  0.3858  0.2487  0.2389  0.2010 -0.0356
               -0.0319 -0.0187  0.1160  0.1211  0.1592  0.1282  0.1491  0.1369  0.0130  0.0084
                0.0185  0.0089  0.0130  0.0138  0.0143  0.0210  0.0145  0.0221
 2 O            0.6557  1.2995  0.0162  1.0118  0.7645  0.2571  0.2744  0.3153  0.8805  0.8943
                0.9640  0.2599  0.3533  0.4960  0.0258  0.0091  0.0080  0.0071  0.0055 -0.0131
                0.0107  0.0048  0.0089 -0.0021  0.0004 -0.0071  0.0016  0.0031 -0.0056 -0.0107
 3 O            0.6557  1.2994  0.0162  1.0119  0.7643  0.3190  0.2571  0.2707  0.9718  0.8827
                0.8842  0.5066  0.2543  0.3481 -0.0139  0.0071  0.0026  0.0255  0.0108  0.0104
               -0.0108 -0.0075 -0.0078  0.0094  0.0001  0.0023  0.0100  0.0043 -0.0008  0.0047
 4 O            0.6556  1.2996  0.0162  1.0118  0.7648  0.2580  0.3075  0.2813  0.8804  0.9562
                0.9018  0.2674  0.4591  0.3833  0.0182  0.0037  0.0085 -0.0082  0.0086  0.0117
                0.0063  0.0050 -0.0000 -0.0056  0.0003  0.0004 -0.0084 -0.0051  0.0050  0.0061
 5 O            0.6510  1.3046  0.0156  1.0311  0.8196  0.2887  0.2855  0.2738  0.8599  0.8534
                0.8293  0.5021  0.4835  0.4111 -0.0011  0.0050  0.0109  0.0030  0.0114  0.0172
               -0.0054 -0.0021 -0.0041 -0.0000  0.0006  0.0062 -0.0027 -0.0024  0.0056  0.0083
 6 H            0.0042  0.2744  0.3730  0.0329  0.0453  0.0455 -0.0018  0.0029  0.0012  0.0113
                0.0030 -0.0044
 7 H            0.0042  0.2738  0.3732  0.0456  0.0321  0.0460 -0.0069  0.0009  0.0032 -0.0015
                0.0033  0.0133
 8 H            0.0049  0.2725  0.3734  0.0405  0.0441  0.0392  0.0140  0.0035  0.0036 -0.0037
                0.0006 -0.0057

 Gross Charges per Atom (Z minus electrons)
 ==========================================
             1.4880   -0.4889   -0.4886   -0.4894   -0.6595    0.2124    0.2128    0.2131
 Net Total:  0.00000000


 Atom-Atom Population Matrix (off-diagonal elements not doubled)
 ===============================================================

     1 :    11.8384
     2 :     0.3652    7.8105
     3 :     0.3653   -0.0335    7.8098
     4 :     0.3651   -0.0332   -0.0332    7.8108
     5 :     0.7189   -0.0403   -0.0401   -0.0404    8.0763
     6 :    -0.0469    0.4193    0.0035   -0.0025   -0.0050    0.4170
     7 :    -0.0469   -0.0026    0.4194    0.0034   -0.0050    0.0011    0.4167
     8 :    -0.0469    0.0035   -0.0025    0.4194   -0.0050    0.0011    0.0011    0.4162



 =================================================
 H I R S H F E L D   C H A R G E   A N A L Y S I S
 =================================================
  
 For each fragment: the (numerical) integral of rho(scf) * rho(fragment)/rho(sum-of-fragments)
 (nuclear charges are included, electrons are counted negative)

 The fragments and their ordering are defined in the early G E O M E T R Y output section.
 If you use single-atom fragments, this usually implies that all atoms of the same
 chemical type are grouped together. This may not be the order in which you listed them
 in the input file!

    1  P                         0.5045
    2  O                        -0.2204
    3  O                        -0.2200
    4  O                        -0.2202
    5  O                        -0.3909
    6  H                         0.1823
    7  H                         0.1825
    8  H                         0.1823

 Sum of these charges (accuracy NumInt/Tails) =           0.00005448



 =============================
 V O R O N O I   C H A R G E S
 =============================
  
 For each atom: the (numerical) integral of the total electronic charge density in its Voronoi cell,
 i.e. the region of space that is closer to that atom than to any other atom.
 (cf. Wigner-Seitz cells in crystals)

 Within the Voronoi cell the subintegrals over the atomic sphere and the remaining part are evaluated
 separately to give the numbers of electrons (negative charge) in these regions.
 The net total charge in the cell (including the nuclear charge) is also given.

 Values are provided for
    a) the Initial (sum-of-fragments) density
    b) the Orthogonalized-Fragments density
    c) the SCF density
    d) the Voronoi Deformation Density (VDD): the difference SCF-Initial for the complete atomic cell


  Atom                Initial                    OrthFrag                   SCF
             Sphere RestCell NetTotal   Sphere RestCell NetTotal   Sphere RestCell NetTotal      VDD
 -----       ------------------------   ------------------------   ------------------------    -----
    1 P      -9.583   -3.648    1.769   -9.630   -3.876    1.494   -9.555   -3.199    2.246    0.477
    2 O      -2.831   -5.017    0.153   -2.995   -4.906    0.099   -2.856   -5.223   -0.080   -0.233
    3 O      -2.831   -5.004    0.165   -2.995   -4.897    0.108   -2.856   -5.209   -0.065   -0.230
    4 O      -2.831   -4.990    0.180   -2.995   -4.883    0.122   -2.856   -5.197   -0.053   -0.233
    5 O      -2.827   -5.629   -0.456   -2.947   -5.454   -0.402   -2.849   -6.060   -0.909   -0.453
    6 H      -0.081   -1.510   -0.591   -0.087   -1.377   -0.463   -0.101   -1.267   -0.367    0.224
    7 H      -0.082   -1.521   -0.603   -0.087   -1.386   -0.473   -0.101   -1.278   -0.380    0.224
    8 H      -0.082   -1.534   -0.616   -0.087   -1.398   -0.485   -0.102   -1.291   -0.392    0.223
 ---------------------------------------------------------------------------------------------------
 Total NetCharge:               0.000                      0.000                      0.000   -0.000
 (accuracy NumInt/Tails)

 Remark: the 'NetTotal' Voronoi charges often do not match the Mulliken and/or Hirshfeld charges very
 well. This is caused by the fact that chemically different atoms are not treated in accordance with
 their relative sizes. (Voronoi cells are defined by boundary planes halfway between the atoms.)
 However, the CHANGES in charge, comparing 'Initial' to 'SCF' for instance, do give a fair indication
 of the flow of charge caused by the relaxation from sum-of-fragments to self-consistency.

 Warning: the absolute accuracy of the VDD charges obtained using the Fuzzy Cells (Becke) integration
 scheme is much poorer than the one obtained with an 'equivalent' Voronoi integration grid. 



 =================================================================
 M U L T I P O L E   D E R I V E D   C H A R G E   A N A L Y S I S
 =================================================================

 This charge analysis uses the atomic multipoles (obtained from the fitted density) up to some level X,
 and reconstructs these multipoles exactly (up to level X) by distributing charges over all atoms.
 This is achieved by using Lagrange multipliers and a weight function to keep the multipoles local.

 Dummy atoms can be included (by setting INCDUM in MDC-block to 1) to obtain a fractional charge.
 This is generally useful and necessary only for small symmetrical molecules, when there are not
 enough degrees of freedom to reconstruct the multipoles.

 Since the atomic multipoles are reconstructed up to level X,
 the molecular multipoles are represented also up to level X.
 The recommended level is to reconstruct up to quadrupole : -> MDC-q charges.

 See: M. Swart, P.Th. van Duijnen, J.G. Snijders, J.Comput.Chem., (2001), p. 79-88.

 ------------------------------------------------------------- 
 Atomic electronic multipole moments from SCF equations (a.u.)
 ------------------------------------------------------------- 

   atom        charge        dip-x     dip-y     dip-z      quad-xx   quad-xy   quad-xz   quad-yy   quad-yz   quad-zz
 --------------------------------------------------------------------------------------------------------------------
    1 P      2.048390     0.060062  0.085971  0.146803    -0.057635  0.029682  0.047320 -0.028383  0.067814  0.086018
    2 O     -0.502028     0.202782 -0.315525 -0.071790     0.303209 -0.303363 -0.074433  0.226893  0.211039 -0.530101
    3 O     -0.501455     0.022587  0.222349 -0.309475    -0.596278 -0.124396 -0.004318  0.282870 -0.318755  0.313408
    4 O     -0.501399    -0.362029 -0.112580  0.035592     0.500788  0.334175 -0.102962 -0.378913 -0.151800 -0.121875
    5 O     -0.877622    -0.022152 -0.031689 -0.053552    -0.225453  0.108374  0.184857 -0.112506  0.261293  0.337960
    6 H      0.111317     0.087019 -0.077000 -0.020615    -0.018010 -0.072219 -0.025537  0.098792  0.051120 -0.080782
    7 H      0.111513    -0.009476  0.088838 -0.077208    -0.106153 -0.007108  0.000837 -0.014426 -0.079604  0.120579
[...]
    6       1          5       0.48512806D-04
    6       1          6       0.93616133D-05
*** CPKS converged.
----------------------------------------------
    6       2          1       0.17393585D-01
    6       2          2       0.23794946D-02
    6       2          3       0.10632706D-02
    6       2          4       0.16862614D-03
    6       2          5       0.12373681D-03
    6       2          6       0.14238315D-04
    6       2          7       0.33290539D-05
*** CPKS converged.
----------------------------------------------
    6       3          1       0.71355317D-02
    6       3          2       0.11281273D-02
    6       3          3       0.39243426D-03
    6       3          4       0.78136608D-04
    6       3          5       0.41997006D-04
    6       3          6       0.50378652D-05
*** CPKS converged.
----------------------------------------------

====================  end of solving CPKS equations  ====================

==========================
###### NUCLEUS:     7  H  
==========================

====================  solving CPKS equations  ====================

NUCLEUS  COORD.    ITERATION   ACCURACY
-------  ------    ---------   --------
    7       1          1       0.14496899D-02
    7       1          2       0.40344856D-03
    7       1          3       0.89094517D-04
    7       1          4       0.42691400D-04
    7       1          5       0.10737799D-04
    7       1          6       0.23562470D-05
*** CPKS converged.
----------------------------------------------
    7       2          1       0.67746508D-02
    7       2          2       0.14694608D-02
    7       2          3       0.62555837D-03
    7       2          4       0.11136468D-03
    7       2          5       0.51646444D-04
    7       2          6       0.99358160D-05
*** CPKS converged.
----------------------------------------------
    7       3          1       0.14747736D-01
    7       3          2       0.24001782D-02
    7       3          3       0.92566263D-03
    7       3          4       0.16881469D-03
    7       3          5       0.11688628D-03
    7       3          6       0.14765528D-04
    7       3          7       0.39372359D-05
*** CPKS converged.
----------------------------------------------

====================  end of solving CPKS equations  ====================

==========================
###### NUCLEUS:     8  H  
==========================

====================  solving CPKS equations  ====================

NUCLEUS  COORD.    ITERATION   ACCURACY
-------  ------    ---------   --------
    8       1          1       0.20184516D-01
    8       1          2       0.25910797D-02
    8       1          3       0.89818771D-03
    8       1          4       0.17290256D-03
    8       1          5       0.10651270D-03
    8       1          6       0.15328555D-04
    8       1          7       0.41881811D-05
*** CPKS converged.
----------------------------------------------
    8       2          1       0.80624961D-02
    8       2          2       0.12599067D-02
    8       2          3       0.41115091D-03
    8       2          4       0.93498748D-04
    8       2          5       0.40499201D-04
    8       2          6       0.75197978D-05
*** CPKS converged.
----------------------------------------------
    8       3          1       0.23858813D-02
    8       3          2       0.43646698D-03
    8       3          3       0.18015904D-03
    8       3          4       0.40390500D-04
    8       3          5       0.16217390D-04
    8       3          6       0.30114987D-05
*** CPKS converged.
----------------------------------------------

====================  end of solving CPKS equations  ====================


====================================================================
*** DONE CALCULATING ANALYTICAL SECOND DERIVATIVES OF THE ENERGY ***
====================================================================

 Mulliken charges used for AMS results%charges...
Scanning modes in range provided by user.


    =====================
     CALCULATION RESULTS
    =====================

Energy (hartree)            -1.62925231

Gradients (hartree/bohr)
  Index   Atom            d/dx            d/dy            d/dz
      1      P    0.0000399793    0.0000604550    0.0001918325
      2      O   -0.0000643783   -0.0000533262    0.0000644012
      3      O    0.0001075703    0.0000104489   -0.0001687445
      4      O   -0.0000958980    0.0000627904   -0.0000149941
      5      O    0.0000206867   -0.0001126309   -0.0000978823
      6      H   -0.0000137706   -0.0000620297    0.0001745686
      7      H    0.0000889710   -0.0000316433   -0.0001207212
      8      H   -0.0000831605    0.0001259358   -0.0000284603

 -----------------------
 Normal Mode Frequencies
 -----------------------

 Index   Frequency (cm-1)   Intensity (km/mol)
     7           150.9295              63.9793
     8           157.3905              63.0503
     9           297.6629              79.4412
    10           356.7964              41.4283
    11           358.1851              42.3940
    12           430.5424              10.7373
    13           434.1564              48.1411
    14           434.8315              48.1350
    15           782.3564              21.8741
    16           867.0146             316.8463
    17           867.1815             318.3234
    18          1016.0664              76.7336
    19          1019.2959              51.0776
    20          1019.8020              50.6327
    21          1261.2528             287.5747
    22          3667.3105             142.4418
    23          3667.7739             148.1273
    24          3669.2350              28.2935

 Zero-point energy (Hartree):     0.0466

 ------------
 Normal Modes
 ------------

 Number of removed rigid normal modes: 6
 
 Mode:     7      Frequency (cm-1):      150.9295     Intensity (km/mol):       63.9793
 Index  Atom      ---- Displacements (x/y/z) ----
     1     P      -0.004131   0.001855   0.000762
     2     O       0.015316   0.008322  -0.061915
     3     O      -0.025796  -0.010475   0.062238
     4     O      -0.068991   0.068429  -0.006031
     5     O       0.032050  -0.068280   0.026503
     6     H       0.025442   0.126567  -0.370716
     7     H       0.742624   0.228426   0.182432
     8     H       0.111513  -0.380207  -0.165173
 
 Mode:     8      Frequency (cm-1):      157.3905     Intensity (km/mol):       63.0503
 Index  Atom      ---- Displacements (x/y/z) ----
     1     P      -0.001410  -0.003961   0.002413
     2     O      -0.007817  -0.081841   0.028901
     3     O      -0.083789  -0.011974   0.008627
     4     O       0.036722   0.032272   0.022112
     5     O       0.067500   0.016996  -0.038119
     6     H       0.019837   0.193134  -0.677246
     7     H       0.021620   0.017606   0.022613
     8     H      -0.198331   0.617974   0.238944
 
 Mode:     9      Frequency (cm-1):      297.6629     Intensity (km/mol):       79.4412
 Index  Atom      ---- Displacements (x/y/z) ----
     1     P      -0.010425  -0.014279  -0.024866
     2     O      -0.011795   0.046075  -0.010940
     3     O      -0.024560  -0.020529   0.029291
     4     O       0.045400  -0.015923  -0.004147
     5     O      -0.012504  -0.014281  -0.020471
     6     H      -0.015076  -0.160567   0.541839
     7     H       0.555143   0.169900   0.124417
     8     H      -0.164774   0.503431   0.197414
 
 Mode:    10      Frequency (cm-1):      356.7964     Intensity (km/mol):       41.4283
 Index  Atom      ---- Displacements (x/y/z) ----
     1     P       0.006522   0.005033  -0.009421
     2     O       0.016164  -0.131958  -0.119676
     3     O      -0.131078  -0.039634   0.104439
     4     O      -0.008605   0.180217   0.066847
     5     O       0.144079   0.026619  -0.078472
     6     H      -0.236103  -0.497580   0.543801
     7     H      -0.433237   0.004714   0.122963
     8     H       0.142605  -0.221151   0.049093
 
 Mode:    11      Frequency (cm-1):      358.1851     Intensity (km/mol):       42.3940
 Index  Atom      ---- Displacements (x/y/z) ----
     1     P       0.009146  -0.008068   0.000690
     2     O       0.018914   0.100847  -0.146249
     3     O       0.121983   0.017393   0.145012
     4     O      -0.156969  -0.001830  -0.059098
     5     O       0.057013  -0.143095   0.059346
     6     H       0.030275   0.072868  -0.059015
     7     H      -0.583376  -0.001483   0.131801
     8     H      -0.377753   0.600081  -0.078324
 
 Mode:    12      Frequency (cm-1):      430.5424     Intensity (km/mol):       10.7373
 Index  Atom      ---- Displacements (x/y/z) ----
     1     P      -0.061538  -0.095468  -0.140495
     2     O      -0.114221   0.105554   0.198572
     3     O       0.171525  -0.075443   0.173924
     4     O       0.116242   0.217317   0.042805
     5     O      -0.068872  -0.080478  -0.173237
     6     H       0.293514   0.419695  -0.110973
     7     H      -0.342691   0.135554   0.277565
     8     H       0.279186  -0.270819   0.309558
 
 Mode:    13      Frequency (cm-1):      434.1564     Intensity (km/mol):       48.1411
 Index  Atom      ---- Displacements (x/y/z) ----
     1     P       0.033202  -0.193196   0.114035
     2     O       0.096549   0.197687  -0.142248
     3     O       0.045007  -0.228963  -0.096876
     4     O      -0.193741   0.102285   0.173841
     5     O      -0.039280   0.306649  -0.144245
     6     H       0.402994   0.303589  -0.036274
     7     H       0.219468  -0.470088  -0.208413
     8     H      -0.191250   0.110331   0.065386
 
 Mode:    14      Frequency (cm-1):      434.8315     Intensity (km/mol):       48.1350
 Index  Atom      ---- Displacements (x/y/z) ----
     1     P       0.212052  -0.013074  -0.083334
     2     O       0.225212  -0.045555   0.152743
     3     O      -0.231643  -0.122780   0.084000
     4     O      -0.078429   0.150696  -0.181345
     5     O      -0.323422   0.016096   0.119601
     6     H       0.338544   0.023839   0.099266
     7     H      -0.279180   0.117749   0.201478
     8     H      -0.096691   0.284699  -0.516966
 
 Mode:    15      Frequency (cm-1):      782.3564     Intensity (km/mol):       21.8741
 Index  Atom      ---- Displacements (x/y/z) ----
     1     P       0.046959   0.063995   0.112722
     2     O      -0.427167   0.017246  -0.056379
     3     O       0.086401  -0.417745  -0.012626
     4     O       0.158285   0.147775  -0.369615
     5     O       0.097153   0.136671   0.234976
     6     H      -0.327465   0.070760  -0.015188
     7     H       0.063519  -0.327486   0.050725
     8     H       0.174952   0.131801  -0.267892
 
 Mode:    16      Frequency (cm-1):      867.0146     Intensity (km/mol):      316.8463
 Index  Atom      ---- Displacements (x/y/z) ----
     1     P       0.028244   0.208479  -0.132570
     2     O       0.008856   0.020169   0.028374
     3     O       0.072576  -0.329317  -0.071292
     4     O      -0.087036  -0.118165   0.292759
     5     O      -0.006607  -0.007507   0.007790
     6     H      -0.398160  -0.107099  -0.171597
     7     H      -0.147855   0.536568   0.368852
     8     H      -0.128233   0.064190  -0.211752
 
 Mode:    17      Frequency (cm-1):      867.1815     Intensity (km/mol):      318.3234
 Index  Atom      ---- Displacements (x/y/z) ----
     1     P       0.236360  -0.069076  -0.057594
     2     O      -0.382636  -0.037098  -0.065157
     3     O      -0.055365   0.176815   0.004918
     4     O      -0.034973  -0.048635   0.203815
     5     O      -0.010831   0.008165  -0.001704
     6     H       0.412260   0.287796   0.148309
     7     H       0.036157   0.167146  -0.004979
     8     H      -0.034185   0.092857  -0.624902
 
 Mode:    18      Frequency (cm-1):     1016.0664     Intensity (km/mol):       76.7336
 Index  Atom      ---- Displacements (x/y/z) ----
     1     P      -0.000752   0.006534  -0.000617
     2     O       0.007812   0.036923   0.025383
     3     O      -0.000231   0.006005   0.053326
     4     O       0.034869   0.012949   0.033887
     5     O      -0.022095  -0.033502  -0.054769
     6     H      -0.476867  -0.158618  -0.114224
     7     H       0.164099  -0.559350  -0.236954
     8     H       0.012830   0.162047  -0.547618
 
 Mode:    19      Frequency (cm-1):     1019.2959     Intensity (km/mol):       51.0776
 Index  Atom      ---- Displacements (x/y/z) ----
     1     P       0.075785  -0.023567  -0.017332
     2     O      -0.027024   0.053184   0.014861
     3     O      -0.006399   0.022750   0.005392
     4     O      -0.050103  -0.008047  -0.019805
     5     O      -0.021725   0.004122   0.004116
     6     H      -0.659782  -0.198802  -0.179785
     7     H       0.025201  -0.037497  -0.024772
     8     H      -0.024127  -0.182245   0.664795
 
 Mode:    20      Frequency (cm-1):     1019.8020     Intensity (km/mol):       50.6327
 Index  Atom      ---- Displacements (x/y/z) ----
     1     P      -0.011544  -0.068275   0.044729
     2     O       0.012177   0.035716   0.013288
     3     O       0.007981   0.023220  -0.057407
     4     O       0.039187   0.016581  -0.010458
     5     O      -0.000376   0.016155  -0.016844
     6     H      -0.432295  -0.145697  -0.108541
     7     H      -0.177606   0.684902   0.283153
     8     H       0.028777   0.104199  -0.415761
 
 Mode:    21      Frequency (cm-1):     1261.2528     Intensity (km/mol):      287.5747
 Index  Atom      ---- Displacements (x/y/z) ----
     1     P       0.141553   0.200238   0.343280
     2     O      -0.070437  -0.030022  -0.038993
     3     O       0.005263  -0.073255  -0.045387
     4     O      -0.005167   0.003320  -0.086082
     5     O      -0.219455  -0.309924  -0.533334
     6     H       0.310359   0.115172   0.112372
     7     H      -0.063447   0.303274   0.154484
     8     H       0.001973  -0.067333   0.352795
 
 Mode:    22      Frequency (cm-1):     3667.3105     Intensity (km/mol):      142.4418
 Index  Atom      ---- Displacements (x/y/z) ----
     1     P       0.000058   0.000488  -0.000613
     2     O      -0.011436   0.021643   0.008018
     3     O      -0.000337   0.026248  -0.049428
     4     O       0.004210   0.001416   0.000481
     5     O       0.000201  -0.000419  -0.000005
     6     H       0.180990  -0.357128  -0.130591
     7     H      -0.000203  -0.409567   0.803840
     8     H      -0.065731  -0.024175  -0.004769
 
 Mode:    23      Frequency (cm-1):     3667.7739     Intensity (km/mol):      148.1273
 Index  Atom      ---- Displacements (x/y/z) ----
     1     P       0.000679  -0.000278  -0.000172
     2     O       0.016718  -0.032011  -0.011676
     3     O      -0.000239   0.006608  -0.012076
     4     O       0.043556   0.016760   0.001941
     5     O      -0.000373  -0.000182   0.000231
     6     H      -0.261280   0.518232   0.189879
     7     H       0.000207  -0.103463   0.201134
     8     H      -0.706703  -0.266166  -0.043232
 
 Mode:    24      Frequency (cm-1):     3669.2350     Intensity (km/mol):       28.2935
 Index  Atom      ---- Displacements (x/y/z) ----
     1     P      -0.000403  -0.000627  -0.000720
     2     O       0.019036  -0.034868  -0.012743
     3     O      -0.000280   0.011157  -0.019934
     4     O      -0.037823  -0.014631  -0.001200
     5     O      -0.000236  -0.000174  -0.000522
     6     H      -0.286715   0.566104   0.208343
     7     H       0.000924  -0.164208   0.322314
     8     H       0.604547   0.228636   0.037428

PES point character: Geometry corresponds to a local minimum on the PES.




 ============================
 Statistical Thermal Analysis  ***  ideal gas assumed  ***
 ============================
  
 Pressure:                  1.000000 atm.
 Temperature:             298.150000 K



 Moments of Inertia [amu*bohr^2] and principal axis
 ==================================================

         407.2472        413.0674        413.8829
 ------------------------------------------------
           0.3541          0.5897         -0.7259
           0.5291          0.5137          0.6754
           0.7711         -0.6232         -0.1301


 The rotational contribution to the molecular entropy includes
 a term, dependent on the symmetry number sigma. The results 
 reported below were computed using sigma = 1, determined from
 the point group symmetry of the input geometry (NOSYM). 
 If this is not the correct symmetry, try symmetrizing the molecule before
 running the calculation (note: linear molecules should be aligned along one
 of the Cartesian axes).
 Contributions from frequencies below 20 1/cm are not included in vibrational sums.
 Their contributions, if any, are reported separately.


     Temp                                                        Transl      Rotat     Vibrat     Total
     ----                                                        ------      -----     ------     -----

     298.15   Entropy (cal/mol-K):                               39.657     25.746     12.316     77.719
              Nuclear Internal Energy (kcal/mol):                 0.889      0.889     31.479     33.257
              Constant Volume Heat Capacity (cal/mol-K):          2.981      2.981     15.802     21.763
          (c) Constant Volume Heat Capacity (cal/mol-K):          2.981      2.981     15.510     21.472

       Summary of energy terms
                                                   hartree              eV         kcal/mol           kJ/mol
                                      --------------------     -----------       ----------      -----------
      Energy from Engine:               -1.629252306953416        -44.3342         -1022.37         -4277.60
      Nuclear Internal Energy:           0.052997653467358          1.4421            33.26           139.15
  (c) Nuclear Internal Energy:           0.052817562508174          1.4372            33.14           138.67
      Internal Energy U:                -1.576254653486058        -42.8921          -989.11         -4138.46
      pV/n = RT:                         0.000944186013486          0.0257             0.59             2.48
      Enthalpy H:                       -1.575310467472572        -42.8664          -988.52         -4135.98
      -T*S:                             -0.036926660564186         -1.0048           -23.17           -96.95
  (c) -T*S:                             -0.036905539313971         -1.0043           -23.16           -96.90
      Gibbs free energy:                -1.612237128036759        -43.8712         -1011.69         -4232.93
 
 
 
  (c) The properties marked with this symbol have been corrected using 'low vibrational frequency free rotor
      interpolation corrections'. For those terms all positive frequencies are used (also ones below 20 1/cm),
      but the contribution to the partition function of small vibrational frequencies is modified as described
      in the following paper:
      S. Grimme, 'Supramolecular Binding Thermodynamics by Dispersion-Corrected Density Functional Theory'
      (Chem. Eur. J. 2012, 18, 9955-9964)
      Configuration: Dampener Frequency          :   100.000 1/cm
                     Dampener Alpha              :     4.000
                     Averaging Moment of Inertia : 1.000E-44 kg m2

--------------
Atomic charges
--------------
  Index   Atom    Charge
      1      P    1.4880
      2      O   -0.4889
      3      O   -0.4886
      4      O   -0.4894
      5      O   -0.6595
      6      H    0.2124
      7      H    0.2128
      8      H    0.2131


Dipole moment vector    (Debye):     0.14358660    0.16044764    0.31122824
              magnitude (Debye):     0.37844891


Final PES point is a local minimum. Geometry optimization successful!


AMS application finished. Exiting.
NORMAL TERMINATION
     Total cpu time:      96.15
  Total system time:       3.05
 Total elapsed time:     103.70
