

 Parallel Execution: Process Information
 ==============================================================================
 Rank   Node Name                              NodeID   MyNodeRank  NodeMaster
    0   adf1                                      0          0          0
    1   adf1                                      0          1         -1
    2   adf1                                      0          2         -1
    3   adf1                                      0          3         -1
    4   adf1                                      0          4         -1
    5   adf1                                      0          5         -1
    6   adf1                                      1          0          1
    7   adf1                                      1          1         -1
    8   adf1                                      1          2         -1
    9   adf1                                      1          3         -1
   10   adf1                                      1          4         -1
   11   adf1                                      1          5         -1
 ==============================================================================


May use up to 11697MB of RAM as shared memory on node 0
May use up to 11718MB of RAM as shared memory on node 1

 *******************************************************************************
 *                                                                             *
 *  --------------------------------                                           *
 *   Amsterdam Modeling Suite (AMS)              2021.105                      *
 *  --------------------------------                                           *
 *                                               r97261 2021-09-16             *
 *                                                                             *
 *                                                                             *
 *                              =================                              *
 *                              |               |                              *
 *                              |     A M S     |                              *
 *                              |               |                              *
 *                              =================                              *
 *                                                                             *
 *                                                                             *
 *   Online information and documentation:  https://www.scm.com/support/       *
 *   E-mail:  support@scm.com   info@scm.com                                   *
 *                                                                             *
 *   Scientific publications using AMS results must be properly referenced     *
 *   See the User Manuals (or the web site) for recommended citations          *
 *   The terms and conditions of the End User License Agreement apply to       *
 *   the use of AMS, https://www.scm.com/license-terms/                        *
 *                                                                             *
 **********************  x86_64_linux_intel / intelmpi  ************************
 
 Licensed to: Dr. Miroslav Ilias / Matej Bel University, Department Chemistry, Fac. Natural Sciences / Banska Bystrica / SLOVAKIA
 SCM User ID: u17848
  
 AMS 2021.105  RunTime: Nov04-2021 21:48:56  ShM Nodes: 2  Procs: 12

 AMS jobname: ams
 AMS jobid  : 595816591

 Start   directory: /home/milias/Work/projects/open-collection/theoretical_chemistry/projects/lead_water_complexes/adf/water/sozora/tmp.milias.1364.0.noindex/
 Results directory: /home/milias/Work/projects/open-collection/theoretical_chemistry/projects/lead_water_complexes/adf/water/sozora/H2O.geoptfreq_sozora_bp86_dzp_sc.results/
 Scratch directory: /tmp/amstmp_ams_kid0.595816591/


 Communication costs MPI_COMM_WORLD:      2.852 usec per message,   0.0275 usec per 8-byte item
 Communication costs for intra-node:      1.584 usec per message,   0.0130 usec per 8-byte item

 RNG seed: 1083490064 397746221 -1533349938 -1550879444 840429545 1190035722 -1285098954 1064084563



                     *************************************************************************
                     *  ADF 2021.105  RunTime: Nov04-2021 21:48:57  ShM Nodes: 2  Procs: 12  *
                     *************************************************************************
  
       ***************************
       *  GEOMETRY OPTIMIZATION  *
       ***************************

Optimization Method                    Quasi Newton
Optimization Coordinates               Delocalized Coordinates
Optimize lattice                       F
 
 ------------------------------------------------------
 Convergence criteria (Hartree,Angstrom)
 ------------------------------------------------------
 Maximum gradient               0.001000000000
 Maximum rms gradient           0.000666666667
 Maximum step allowed           0.010000000000
 Maximum rms step allowed       0.006666666667
 Maximum energy change allowe   0.000030000000
 Maximum stress energy allowe   0.000500000000
 
Initial model Hessian                  Automatic Hessian
 
------------------------------------
Quasi-Newton Optimizer Parameters
------------------------------------
Hessian Update Method                  BFGS
Maximum number of steps                  250
First GDIIS cycle                          0
Maximum GDIIS vectors                      0
Trust radius (bohr)                        0.200000
Trust radius varies                        T
Constraints converged at all steps         T
Use projector                              T
 
 Rigid motions settings for: old optimizer
 Atomic rotations (x,y,z):     T T T
 Atomic translations (x,y,z):  T T T
 Tolerance:                   1.000000000000000E-006
 
--------
Geometry
--------
Formula: H2O
Atoms
  Index Symbol   x (angstrom)   y (angstrom)   z (angstrom)
      1      O     0.36078763     0.25426190     0.00000000
      2      H     0.36147056    -1.04573792     0.00000000
      3      H    -0.83845002     0.75608762     0.00000000
 
Total System Charge             0.00000
Bonding info available!
 
 
----------------
ADF Engine Input
----------------
 
 Basis
 Type DZP
 Core Small
 End
 XC
 GGA BP86
 End
 Relativity
 Level Spin-Orbit
 End
 

 Title: *** (NO TITLE) ***

Number of symmetry operators: 2
Schoenflies symbol:           C(S)
 Using automatic Hessian for delocalized coordinates.
 *** GOStep1 ***



 ==============================
 Double group spinor symmetries  ***  (Spin-Orbit)  ***
 ==============================
  

 The double group Lowdins are spinors adapted to the irreducible representations
 of the double group. These double group Lowdins are linear combinations of
 products of the single group Lowdins and the spinfunctions. The single group
 Lowdins are  orthonormalized symmetrized fragment orbitals (SFOs).
 The complex coefficients that are used in the linear combinations are also
 known as Clebsch-Gordan coefficients.
 The spin functions (alpha,beta) span irrep e1/2


 Double-group Lowdins

         AA * e 1/2 :      A1/2

  A1/2:1      = ( 1.0000+0.0000i) alpha + ( 0.0000+0.0000i) beta  AA

        AAA * e 1/2 :      A1/2

  A1/2:1      = ( 0.0000+0.0000i) alpha + ( 1.0000+0.0000i) beta  AAA

         AA * e 1/2 :     A1/2*

  A1/2*:1     = ( 0.0000+0.0000i) alpha + ( 1.0000+0.0000i) beta  AA

        AAA * e 1/2 :     A1/2*

  A1/2*:1     = ( 1.0000-0.0000i) alpha + ( 0.0000+0.0000i) beta  AAA

 The table summarizes which one-electron orbital irreps (single group) couple
 with spin to which spinor irreps (double group).
 The Clebsch-Gordan series for each direct product: orbital irrep times e1/2.
                 AA     AAA
            ------- -------
  A1/2           X       X
  A1/2*          X       X


 dimension (equal to the max. nr. of electrons per spinor) of the double group irreps
 ------------------------------------------------------------------------------------
  A1/2           1
  A1/2*          1

 Energy gradients wrt nuclear displacements
 ==========================================

     Atom      Cartesian (a.u./angstrom)
                 X         Y         Z
 ----------------------------------------
     1 O     0.144146  0.095861  0.000000
     2 H     0.031097 -0.202799  0.000000
     3 H    -0.175243  0.106937  0.000000
 ----------------------------------------
 Mulliken charges used for AMS results%charges...
 
----------------------------------------------------------------------
Geometry Convergence after Step   1       (Hartree/Angstrom,Angstrom)
----------------------------------------------------------------------
current energy                               -0.41657720 Hartree
energy change                      -0.41657720     0.00003000    F
constrained gradient max            0.20279696     0.00100000    F
constrained gradient rms            0.11264879     0.00066667    F
gradient max                        0.20279696
gradient rms                        0.11264879
cart. step max                      0.06991019     0.01000000    F
cart. step rms                      0.03947077     0.00666667    F
 
 
--------
Geometry
--------
Formula: H2O
Atoms
  Index Symbol   x (angstrom)   y (angstrom)   z (angstrom)
      1      O     0.36008407     0.25381219     0.00000000
      2      H     0.31540933    -0.97582773     0.00000000
      3      H    -0.79168523     0.68662714     0.00000000
 
Total System Charge             0.00000
Bonding info available!
 
 *** GOStep2 ***

 Energy gradients wrt nuclear displacements
 ==========================================

     Atom      Cartesian (a.u./angstrom)
                 X         Y         Z
 ----------------------------------------
     1 O     0.155713  0.103418  0.000000
     2 H     0.017720 -0.195166  0.000000
     3 H    -0.173433  0.091747  0.000000
 ----------------------------------------
 Mulliken charges used for AMS results%charges...

 dE(predicted):    -0.24050E-01, dE(actual):    -0.30428E-01, Trust radius:    0.400000, all in a.u.
 
----------------------------------------------------------------------
Geometry Convergence after Step   2       (Hartree/Angstrom,Angstrom)
----------------------------------------------------------------------
current energy                               -0.44700511 Hartree
energy change                      -0.03042791     0.00003000    F
constrained gradient max            0.19515050     0.00100000    F
constrained gradient rms            0.11147592     0.00066667    F
gradient max                        0.19515050
gradient rms                        0.11147592
cart. step max                      0.12899515     0.01000000    F
cart. step rms                      0.06899180     0.00666667    F
 
 
--------
Geometry
--------
Formula: H2O
Atoms
  Index Symbol   x (angstrom)   y (angstrom)   z (angstrom)
      1      O     0.32971208     0.23368733     0.00000000
      2      H     0.25135636    -0.84683258     0.00000000
      3      H    -0.69726027     0.57775685     0.00000000
 
Total System Charge             0.00000
Bonding info available!
 
 *** GOStep3 ***

 Energy gradients wrt nuclear displacements
 ==========================================

     Atom      Cartesian (a.u./angstrom)
                 X         Y         Z
 ----------------------------------------
     1 O     0.111632  0.074639  0.000000
     2 H     0.002749 -0.125427  0.000000
     3 H    -0.114382  0.050788  0.000000
 ----------------------------------------
 Mulliken charges used for AMS results%charges...

 dE(predicted):    -0.56395E-01, dE(actual):    -0.50911E-01, Trust radius:    0.800000, all in a.u.
 
----------------------------------------------------------------------
Geometry Convergence after Step   3       (Hartree/Angstrom,Angstrom)
----------------------------------------------------------------------
current energy                               -0.49791611 Hartree
energy change                      -0.05091100     0.00003000    F
constrained gradient max            0.12542649     0.00100000    F
constrained gradient rms            0.07411322     0.00066667    F
gradient max                        0.12542649
gradient rms                        0.07411322
cart. step max                      0.20923637     0.01000000    F
cart. step rms                      0.11059660     0.00666667    F
 
 
--------
Geometry
--------
Formula: H2O
Atoms
  Index Symbol   x (angstrom)   y (angstrom)   z (angstrom)
      1      O     0.24265792     0.17548418     0.00000000
      2      H     0.17501198    -0.63759622     0.00000000
      3      H    -0.53386173     0.42672363     0.00000000
 
Total System Charge             0.00000
Bonding info available!
 
 *** GOStep4 ***

 Energy gradients wrt nuclear displacements
 ==========================================

     Atom      Cartesian (a.u./angstrom)
                 X         Y         Z
 ----------------------------------------
     1 O    -0.486549 -0.325184  0.000000
     2 H     0.009696  0.514073  0.000000
     3 H     0.476853 -0.188889  0.000000
 ----------------------------------------
 Mulliken charges used for AMS results%charges...

 dE(predicted):    -0.33466E-01, dE(actual):     0.55161E-01, Trust radius:    0.178596, all in a.u.
 
----------------------------------------------------------------------
Geometry Convergence after Step   4       (Hartree/Angstrom,Angstrom)
----------------------------------------------------------------------
current energy                               -0.44275467 Hartree
energy change                       0.05516144     0.00003000    F
constrained gradient max            0.51407750     0.00100000    F
constrained gradient rms            0.31089611     0.00066667    F
gradient max                        0.51407750
gradient rms                        0.31089611
cart. step max                      0.05295937     0.01000000    F
cart. step rms                      0.02797879     0.00666667    F
 
 
--------
Geometry
--------
Formula: H2O
Atoms
  Index Symbol   x (angstrom)   y (angstrom)   z (angstrom)
      1      O     0.26355049     0.18946532     0.00000000
      2      H     0.19515240    -0.69055559     0.00000000
      3      H    -0.57489472     0.46570187     0.00000000
 
Total System Charge             0.00000
Bonding info available!
 
 *** GOStep5 ***

 Energy gradients wrt nuclear displacements
 ==========================================

     Atom      Cartesian (a.u./angstrom)
                 X         Y         Z
 ----------------------------------------
     1 O    -0.223397 -0.148906  0.000000
     2 H     0.003197  0.237424  0.000000
     3 H     0.220200 -0.088518  0.000000
 ----------------------------------------
 Mulliken charges used for AMS results%charges...

 dE(predicted):    -0.57965E-01, dE(actual):    -0.48856E-01, Trust radius:    0.357192, all in a.u.
 
----------------------------------------------------------------------
Geometry Convergence after Step   5       (Hartree/Angstrom,Angstrom)
----------------------------------------------------------------------
current energy                               -0.49161056 Hartree
energy change                      -0.04885589     0.00003000    F
constrained gradient max            0.23743162     0.00100000    F
constrained gradient rms            0.14328806     0.00066667    F
gradient max                        0.23743162
gradient rms                        0.14328806
cart. step max                      0.04720530     0.01000000    F
cart. step rms                      0.02505271     0.00666667    F
 
 
--------
Geometry
--------
Formula: H2O
Atoms
  Index Symbol   x (angstrom)   y (angstrom)   z (angstrom)
      1      O     0.27913266     0.19964733     0.00000000
      2      H     0.21548427    -0.73776089     0.00000000
      3      H    -0.61080876     0.50272515     0.00000000
 
Total System Charge             0.00000
Bonding info available!
 
 *** GOStep6 ***

 Energy gradients wrt nuclear displacements
 ==========================================

     Atom      Cartesian (a.u./angstrom)
                 X         Y         Z
 ----------------------------------------
     1 O    -0.077732 -0.052776  0.000000
     2 H     0.003673  0.079898  0.000000
     3 H     0.074059 -0.027122  0.000000
 ----------------------------------------
 Mulliken charges used for AMS results%charges...

 dE(predicted):    -0.13665E-01, dE(actual):    -0.17624E-01, Trust radius:    0.357192, all in a.u.
 
----------------------------------------------------------------------
Geometry Convergence after Step   6       (Hartree/Angstrom,Angstrom)
----------------------------------------------------------------------
current energy                               -0.50923439 Hartree
energy change                      -0.01762383     0.00003000    F
constrained gradient max            0.07988894     0.00100000    F
constrained gradient rms            0.04881393     0.00066667    F
gradient max                        0.07988894
gradient rms                        0.04881393
cart. step max                      0.02041674     0.01000000    F
cart. step rms                      0.01103144     0.00666667    F
 
 
--------
Geometry
--------
Formula: H2O
Atoms
  Index Symbol   x (angstrom)   y (angstrom)   z (angstrom)
      1      O     0.29196127     0.20856411     0.00000000
      2      H     0.21955261    -0.75817763     0.00000000
      3      H    -0.62770572     0.51422511     0.00000000
 
Total System Charge             0.00000
Bonding info available!
 
 *** GOStep7 ***

 Energy gradients wrt nuclear displacements
 ==========================================

     Atom      Cartesian (a.u./angstrom)
                 X         Y         Z
 ----------------------------------------
     1 O    -0.020983 -0.013272  0.000000
     2 H     0.001434  0.019862  0.000000
     3 H     0.019549 -0.006590  0.000000
 ----------------------------------------
 Mulliken charges used for AMS results%charges...

 dE(predicted):    -0.23260E-02, dE(actual):    -0.28595E-02, Trust radius:    0.357192, all in a.u.
 
----------------------------------------------------------------------
Geometry Convergence after Step   7       (Hartree/Angstrom,Angstrom)
----------------------------------------------------------------------
current energy                               -0.51209386 Hartree
energy change                      -0.00285947     0.00003000    F
constrained gradient max            0.02097787     0.00100000    F
constrained gradient rms            0.01264284     0.00066667    F
gradient max                        0.02097787
gradient rms                        0.01264284
cart. step max                      0.00631842     0.01000000    T
cart. step rms                      0.00368565     0.00666667    T
 
 
--------
Geometry
--------
Formula: H2O
Atoms
  Index Symbol   x (angstrom)   y (angstrom)   z (angstrom)
      1      O     0.29720758     0.21177884     0.00000000
      2      H     0.22017605    -0.76449604     0.00000000
      3      H    -0.63357546     0.51732880     0.00000000
 
Total System Charge             0.00000
Bonding info available!
 
 *** GOStep8 ***

 Energy gradients wrt nuclear displacements
 ==========================================

     Atom      Cartesian (a.u./angstrom)
                 X         Y         Z
 ----------------------------------------
     1 O    -0.002538 -0.002113  0.000000
     2 H     0.000267  0.002840  0.000000
     3 H     0.002271 -0.000728  0.000000
 ----------------------------------------
 Mulliken charges used for AMS results%charges...

 dE(predicted):    -0.20642E-03, dE(actual):    -0.22873E-03, Trust radius:    0.357192, all in a.u.
 
----------------------------------------------------------------------
Geometry Convergence after Step   8       (Hartree/Angstrom,Angstrom)
----------------------------------------------------------------------
current energy                               -0.51232258 Hartree
energy change                      -0.00022873     0.00003000    F
constrained gradient max            0.00283588     0.00100000    F
constrained gradient rms            0.00165778     0.00066667    F
gradient max                        0.00283588
gradient rms                        0.00165778
cart. step max                      0.00099707     0.01000000    T
cart. step rms                      0.00054646     0.00666667    T
 
 
--------
Geometry
--------
Formula: H2O
Atoms
  Index Symbol   x (angstrom)   y (angstrom)   z (angstrom)
      1      O     0.29795931     0.21242781     0.00000000
      2      H     0.22018971    -0.76549311     0.00000000
      3      H    -0.63434085     0.51767690     0.00000000
 
Total System Charge             0.00000
Bonding info available!
 
 *** GOStep9 ***

 Energy gradients wrt nuclear displacements
 ==========================================

     Atom      Cartesian (a.u./angstrom)
                 X         Y         Z
 ----------------------------------------
     1 O    -0.000163  0.000025  0.000000
     2 H     0.000013  0.000032  0.000000
     3 H     0.000150 -0.000056  0.000000
 ----------------------------------------
 Mulliken charges used for AMS results%charges...

 dE(predicted):    -0.40503E-05, dE(actual):    -0.37440E-05, Trust radius:    0.357192, all in a.u.
 
---------------------------------------------------------
Geometry Convergence after Step   9       ** CONVERGED **
---------------------------------------------------------
current energy                               -0.51232633 Hartree
energy change                      -0.00000374     0.00003000    T
constrained gradient max            0.00016065     0.00100000    T
constrained gradient rms            0.00007748     0.00066667    T
gradient max                        0.00016065
gradient rms                        0.00007748
cart. step max                      0.00005339     0.01000000    T
cart. step rms                      0.00002620     0.00666667    T
 
Geometry optimization converged

Optimized geometry:
 
--------
Geometry
--------
Formula: H2O
Atoms
  Index Symbol   x (angstrom)   y (angstrom)   z (angstrom)
      1      O     0.29795931     0.21242781     0.00000000
      2      H     0.22018971    -0.76549311     0.00000000
      3      H    -0.63434085     0.51767690     0.00000000
 
Total System Charge             0.00000
Bonding info available!
 
Performing a single point calculation on the final geometry ...

 *** adf ***



 ===========================
 A T T A C H E D   F I L E S
 ===========================
  
 Restart/tmp/amstmp_ams_kid0.595816591/GOStep9.rkf*** GOStep9 ***



 ===============================
 M O D E L   P A R A M E T E R S
 ===============================
  
 DENSITY FUNCTIONAL POTENTIAL (scf)
    LDA:                               VWN                                      
    Gradient Corrections:              Becke88 Perdew86                        == Not Default ==

 SPIN  (restricted / unrestr.)
    Molecule:                          Restricted
    Fragments:                         Restricted                               

 OTHER ASPECTS
    Relativistic Corrections:          Spin-Orbit (ZORA,MAPA)                  == Not Default ==

    Nuclear Charge Density Model:      Point Charge Nuclei                      
    Core Treatment:                    Frozen Orbital(s)                        

    Hyperfine or Zeeman Interaction:   ---                                      



 ===============
 G E O M E T R Y  ***  Planar Molecule  ***
 ===============
  

 ATOMS
 =====                            X Y Z                    CHARGE
                                (Angstrom)             Nucl     +Core       At.Mass
                       --------------------------    ----------------       -------
    1  O               0.2980    0.2124    0.0000      8.00      6.00       15.9949
    2  H               0.2202   -0.7655    0.0000      1.00      1.00        1.0078
    3  H              -0.6343    0.5177    0.0000      1.00      1.00        1.0078


 FRAGMENTS
 =========                                     Atoms in this Fragment     Cart. coord.s (Angstrom)
                                               -------------------------------------------------------
    1  O                                                 1  O            0.2980    0.2124    0.0000
    2  H                                                 2  H            0.2202   -0.7655    0.0000
    3  H                                                 3  H           -0.6343    0.5177    0.0000


 Interatomic Distance Matrix (Angstrom)
 --------------------------------------

   1)     0.000
   2)     0.981   0.000
   3)     0.981   1.542   0.000

 Min. Distance =    0.9810
 Max. Distance =    1.5417



 =====================================
 S Y M M E T R Y ,   E L E C T R O N S
 =====================================
  
 Symmetry: C(S)

 Double Group Irreducible Representations (spinor symmetry)
 -----------------------------------------------------------
 A1/2
 A1/2*


 Configuration of Valence Electrons
 ==================================
 ( determined in the SCF procedure )

 Total:   8

 Net Charge: 0 (Nuclei minus Electrons)

 Aufbau principle for MO occupations will be applied through SCF cycle no.     150
 Thereafter, the program will assign electrons to MOs that are spatially
 similar to the occupied MOs in a "reference" cycle ("KeepOrbitals").
 The reference cycle is always the PREVIOUS cycle: it will evolve with
 the SCF procedure.
1
 ***************************************************************************************************



                                      ****************************************
                                      *  B U I L D : (Fragments, Functions)  *
                                      ****************************************
  



 =======
 S F O s  ***  (Symmetrized Fragment Orbitals)  ***
 =======
  
 SFOs are linear combinations of (valence) Fragment Orbitals (FOs), such that the SFOs transform as the
 irreducible representations of the (molecular) symmetry group. Each SFO is therefore characterized by
 an irrep of the molecule and by a few (or only one) generating FOs.
 The SFOs constitute a symmetry-adapted basis for the Fock matrix. The MO eigenvector coefficients in
 this basis provide a direct interpretation of the MOs in terms of Frontier Orbital Theory.

 The SFOs are combined with auxiliary Core Functions (CFs) to ensure orthogonalization on the (frozen)
 Core Orbitals (COs). The Core-orthogonalized SFOs (CSFOs) constitute the true Fock basis.

 The FOs, and hence also the (C)SFOs are combinations of the elementary basis functions (BAS). The basis
 functions that participate in the description of the SFOs depend on the irrep. The indices of the
 involved functions are printed below for each irrep.
 (The complete list of primitive basis functions is printed in another section)

 Total nr. of (C)SFOs (summation over all irreps) :    23

 NOTE: a (C)SFO that is defined as a combination of more than one FO is usually NOT normalized.

 NOTE: the (C)SFOs are single group symmetry adapted orbitals.



                                       === AA ===
 Nr. of SFOs :   17
 Cartesian basis functions that participate in this irrep (total number =    19) :
      1     2     3     4     5     7     8    15    10    11
     13    16    17    18    19    21    22    23    24

    SFO  (index         Fragment          Generating    Expansion in Fragment Orbitals
  indx  incl.CFs)   Occup   Orb.Energy   FragmentType  Coeff.   Orbital     on Fragment
 --------------------------------------------------------------------------------------
     1       2      2.000      -0.896 au  O             1.00      1 S               1
                        (     -24.370 eV)
     2       3       --         0.998 au  O             1.00      2 S               1
                        (      27.170 eV)
     3       4      1.333      -0.347 au  O             1.00      1 P:x             1
                        (      -9.441 eV)
     4       5       --         0.813 au  O             1.00      2 P:x             1
                        (      22.121 eV)
     5       6      1.333      -0.347 au  O             1.00      1 P:y             1
                        (      -9.441 eV)
     6       7       --         0.813 au  O             1.00      2 P:y             1
                        (      22.121 eV)
     7       8       --         1.051 au  O             1.00      1 D:z2            1
                        (      28.612 eV)
     8       9       --         1.051 au  O             1.00      1 D:x2-y2         1
                        (      28.612 eV)
     9      10       --         1.051 au  O             1.00      1 D:xy            1
                        (      28.612 eV)
    10      11      1.000      -0.245 au  H             1.00      1 S               2
                        (      -6.661 eV)
    11      12       --         0.387 au  H             1.00      2 S               2
                        (      10.544 eV)
    12      13       --         0.398 au  H             1.00      1 P:x             2
                        (      10.843 eV)
    13      14       --         0.398 au  H             1.00      1 P:y             2
                        (      10.843 eV)
    14      15      1.000      -0.245 au  H             1.00      1 S               3
                        (      -6.661 eV)
    15      16       --         0.387 au  H             1.00      2 S               3
                        (      10.544 eV)
    16      17       --         0.398 au  H             1.00      1 P:x             3
                        (      10.843 eV)
    17      18       --         0.398 au  H             1.00      1 P:y             3
                        (      10.843 eV)



                                       === AAA ===
 Nr. of SFOs :    6
 Cartesian basis functions that participate in this irrep (total number =     6) :
      6     9    12    14    20    25

    SFO  (index         Fragment          Generating    Expansion in Fragment Orbitals
  indx  incl.CFs)   Occup   Orb.Energy   FragmentType  Coeff.   Orbital     on Fragment
 --------------------------------------------------------------------------------------
     1       1      1.333      -0.347 au  O             1.00      1 P:z             1
                        (      -9.441 eV)
     2       2       --         0.813 au  O             1.00      2 P:z             1
                        (      22.121 eV)
     3       3       --         1.051 au  O             1.00      1 D:xz            1
                        (      28.612 eV)
     4       4       --         1.051 au  O             1.00      1 D:yz            1
                        (      28.612 eV)
     5       5       --         0.398 au  H             1.00      1 P:z             2
                        (      10.843 eV)
     6       6       --         0.398 au  H             1.00      1 P:z             3
                        (      10.843 eV)



 ================================
 (Slater-type)  F U N C T I O N S  ***  (Basis and Fit)  ***
 ================================
  

 Atom Type    1  (O)
 ==============

 Valence Basis Sets:   6
 -----------------------
   1 S    7.360000
   2 S    1.700000
   2 S    2.820000
   2 P    1.300000
   2 P    3.060000
   3 D    2.000000

 Frozen Core Shells
 ------------------
    S:  1

 Atom Type    2  (H)
 ==============

 Valence Basis Sets:   3
 -----------------------
   1 S    0.760000
   1 S    1.280000
   2 P    1.250000


 BAS: List of all Elementary Cartesian Basis Functions
 =====================================================

 The numbering in the list below (to the right of the function characteristics) is referred
 to in print-outs of MO eigenvectors and Mulliken populations in the BAS representation
 (as contrasted to the SFO representation).

 Notes:
 1. The functions are characterized by a polynomial prefactor (powers of x,y,z and r) and
    an exponential decay factor alpha.
 2. Since the basis sets are specific for an atom TYPE, the individual functions occur on
    all atoms of that type.
 3. The word 'Core' in the left margin signals that it is a Core Function (CF) : not a
    degree of freedom in the valence set, but only used to ensure orthogonalization of
    the other valence basis functions on the frozen Core Orbitals.


 (power of) X  Y  Z  R     Alpha  on Atom
            ==========     =====     ==========

 O                                    1
                                  ---------------------------------------------------------------------------
    Core    0  0  0  0     7.360      1
            0  0  0  1     1.700      2
            0  0  0  1     2.820      3
            1  0  0  0     1.300      4
            0  1  0  0     1.300      5
            0  0  1  0     1.300      6
            1  0  0  0     3.060      7
            0  1  0  0     3.060      8
            0  0  1  0     3.060      9
            2  0  0  0     2.000     10
            1  1  0  0     2.000     11
            1  0  1  0     2.000     12
            0  2  0  0     2.000     13
            0  1  1  0     2.000     14
            0  0  2  0     2.000     15

 H                                    2    3
                                  ---------------------------------------------------------------------------
            0  0  0  0     0.760     16   21
            0  0  0  0     1.280     17   22
            1  0  0  0     1.250     18   23
            0  1  0  0     1.250     19   24
            0  0  1  0     1.250     20   25

 Total number of charge fitting functions (nprimf)       182
 Total number of Cartesian basis functions (naos)         25
 Total number of Cartesian core functions  (ncos)          1

1
 ***************************************************************************************************



                                              ***********************
                                              *  T E C H N I C A L  *
                                              ***********************
  



 =============================================================
 P A R A L L E L I Z A T I O N  and  V E C T O R I Z A T I O N
 =============================================================
  
 Nr of parallel processes:                               12
 Maximum vector length in NumInt loops:                 128



 =====================
 S C F   U P D A T E S
 =====================
  
 Max. nr. of cycles:                               300
 Convergence criterion:                              0.0000010000
   secondary criterion:                              0.0010000000

 Mix parameter (when DIIS does not apply):           0.2000000000
 Mixed ADIIS+SDIIS will be used                  
    Max number of expansion vectors:                10
    Pure ADIIS when Max([F,P]) is above              0.1000000000
    Pure SDIIS when Max([F,P]) is below              0.0010000000
 Automatic ElectronSmearing (in case of problematic SCF convergence) disabled



 =================
 P R E C I S I O N  ***  (General: NumInt, NeglectFunctionTails, ...)  ***
 =================
  

 NumInt:           Target precision:                 4.0000000000
 -------           Initial precision:                4.0000000000
                   Min. precision (optimization):    4.0000000000

 Neglect Functions:          Basis functions:        0.1000000000E-05
 ------------------          Fit functions:          0.1000000000E-05



 ===========================
 L I N E A R   S C A L I N G
 ===========================
  

 Cut-off radii density fit:                        0.1000000000E-07
 Overlap cut-off criterion AO matrix elements:     0.1000000000E-05
 Cut-offs for Coulomb potential and fitted density:0.1000000000E-07
 Cut-off criterion for Coulomb multipole terms:    0.1000000000E-07
 Progressive Convergence parameter:                 0.000000000    

 Number of elements of the density matrix on this node (used, total):       120       325



 ===========================================
 Numerical Integration : Fuzzy Cells (Becke)
 ===========================================
  
 Becke grid quality: NORMAL         
  
 Lebedev angular grid order:             min:  11 max:  23
 Nr. of radial points:                   min:  46 max:  49

 Total nr. of points:       9958
 Nr. of blocks:               78
 Block length:               128
 Nr. of dummy points:         26


 Test of Precision of the Numerical Integration Grid
 ===================================================

 Integral of the Total Core Density:                   2.00000170482938
 Relative Error:                                       8.524E-07



 ========================
 Density Fitting (zlmFit)
 ========================
  
 ZlmFit Fit Quality: NORMAL         
  
 Max L-expansion:                        min:   5 max:   6
 Nr. of radial interpolation points:     min:  36 max:  42



 =====
 S C F  ***  ScaSCF  ***
 =====
  
 Initial density matrix is taken from previous geometry

 CYCLE    1
 SCF Error: norm([F,P])=      0.003612845624, max([F,P])=      0.000986541071
 orbitals (Q,E):
 ---------------
 A1/2 :1...14        ( 1.00    -0.9331)  ( 1.00    -0.4868)  ( 1.00    -0.3516)  ( 1.00    -0.2718)
                     ( 0.00    -0.0087)  ( 0.00     0.0819)  ( 0.00     0.3694)  ( 0.00     0.3755)
                     ( 0.00     0.4188)  ( 0.00     0.4911)  ( 0.00     0.5383)  ( 0.00     0.8415)
                     ( 0.00     0.8451)  ( 0.00     1.0043)
 A1/2* :1...14       ( 1.00    -0.9331)  ( 1.00    -0.4868)  ( 1.00    -0.3516)  ( 1.00    -0.2718)
                     ( 0.00    -0.0087)  ( 0.00     0.0819)  ( 0.00     0.3694)  ( 0.00     0.3755)
                     ( 0.00     0.4188)  ( 0.00     0.4911)  ( 0.00     0.5383)  ( 0.00     0.8415)
                     ( 0.00     0.8451)  ( 0.00     1.0043)

 CYCLE    2
   MIX coefficients:  0.8000  0.2000
 SCF Error: norm([F,P])=      0.000000004363, max([F,P])=      0.000000001727
 orbitals (Q,E):
 ---------------
 A1/2 :1...14        ( 1.00    -0.9331)  ( 1.00    -0.4868)  ( 1.00    -0.3516)  ( 1.00    -0.2718)
                     ( 0.00    -0.0087)  ( 0.00     0.0819)  ( 0.00     0.3694)  ( 0.00     0.3755)
                     ( 0.00     0.4188)  ( 0.00     0.4911)  ( 0.00     0.5383)  ( 0.00     0.8415)
                     ( 0.00     0.8451)  ( 0.00     1.0043)
 A1/2* :1...14       ( 1.00    -0.9331)  ( 1.00    -0.4868)  ( 1.00    -0.3516)  ( 1.00    -0.2718)
                     ( 0.00    -0.0087)  ( 0.00     0.0819)  ( 0.00     0.3694)  ( 0.00     0.3755)
                     ( 0.00     0.4188)  ( 0.00     0.4911)  ( 0.00     0.5383)  ( 0.00     0.8415)
                     ( 0.00     0.8451)  ( 0.00     1.0043)

 SCF CONVERGED

 CYCLE    3
1
 ***************************************************************************************************



                                                *******************
                                                *  R E S U L T S  *
                                                *******************
  
 *** Using FIT density in Focky
   MIX coefficients:  0.8000  0.2000
 SCF Error: norm([F,P])=      0.000000002021, max([F,P])=      0.000000000901

 Scaled ZORA Orbital Energies, per Irrep and Spin:
 =================================================
                        Occup              E (au)              E (eV)       Diff (eV) with prev. cycle
                        -----      --------------------        ------       --------------------------
 A1/2
               1        1.000     -0.93311683976749E+00       -25.391               3.57E-08
               2        1.000     -0.48684267989873E+00       -13.248               2.40E-08
               3        1.000     -0.35164971193056E+00        -9.569               3.59E-08
               4        1.000     -0.27183233789391E+00        -7.397               4.05E-08
               5        0.000     -0.87105771641758E-02        -0.237
               6        0.000      0.81941037966116E-01         2.230
               7        0.000      0.36944313038548E+00        10.053
               8        0.000      0.37554507565474E+00        10.219
               9        0.000      0.41881402635578E+00        11.397
              10        0.000      0.49110093065270E+00        13.364
              11        0.000      0.53833632793618E+00        14.649
              12        0.000      0.84150512727802E+00        22.899
              13        0.000      0.84509117355761E+00        22.996
              14        0.000      0.10042688764552E+01        27.328
 A1/2*
               1        1.000     -0.93311683976749E+00       -25.391               3.57E-08
               2        1.000     -0.48684267989873E+00       -13.248               2.40E-08
               3        1.000     -0.35164971193056E+00        -9.569               3.59E-08
               4        1.000     -0.27183233789391E+00        -7.397               4.05E-08
               5        0.000     -0.87105771641758E-02        -0.237
               6        0.000      0.81941037966116E-01         2.230
               7        0.000      0.36944313038548E+00        10.053
               8        0.000      0.37554507565474E+00        10.219
               9        0.000      0.41881402635578E+00        11.397
              10        0.000      0.49110093065270E+00        13.364
              11        0.000      0.53833632793618E+00        14.649
              12        0.000      0.84150512727802E+00        22.899
              13        0.000      0.84509117355761E+00        22.996
              14        0.000      0.10042688764552E+01        27.328
  
 HOMO :        4 A1/2             -0.27183233789391E+00
 LUMO :        5 A1/2             -0.87105771641758E-02
  


 Orbital Energies, all Irreps
 ========================================

 Irrep        no.  (spin)   Occup              E (au)                E (eV)
 ---------------------------------------------------------------------------
 A1/2          1             1.00       -0.93311683976749E+00       -25.3914
 A1/2*         1             1.00       -0.93311683976749E+00       -25.3914
 A1/2          2             1.00       -0.48684267989873E+00       -13.2477
 A1/2*         2             1.00       -0.48684267989873E+00       -13.2477
 A1/2          3             1.00       -0.35164971193056E+00        -9.5689
 A1/2*         3             1.00       -0.35164971193056E+00        -9.5689
 A1/2          4             1.00       -0.27183233789391E+00        -7.3969
 A1/2*         4             1.00       -0.27183233789391E+00        -7.3969
 A1/2          5             0.00       -0.87105771641758E-02        -0.2370
 A1/2*         5             0.00       -0.87105771641758E-02        -0.2370
 A1/2          6             0.00        0.81941037966116E-01         2.2297
 A1/2*         6             0.00        0.81941037966116E-01         2.2297
 A1/2          7             0.00        0.36944313038548E+00        10.0531
 A1/2*         7             0.00        0.36944313038548E+00        10.0531
 A1/2          8             0.00        0.37554507565474E+00        10.2191
 A1/2*         8             0.00        0.37554507565474E+00        10.2191
 A1/2          9             0.00        0.41881402635578E+00        11.3965
 A1/2*         9             0.00        0.41881402635578E+00        11.3965
 A1/2         10             0.00        0.49110093065270E+00        13.3635
 A1/2*        10             0.00        0.49110093065270E+00        13.3635
 A1/2         11             0.00        0.53833632793618E+00        14.6489
 A1/2*        11             0.00        0.53833632793618E+00        14.6489
 A1/2         12             0.00        0.84150512727802E+00        22.8985
 A1/2*        12             0.00        0.84150512727802E+00        22.8985
 A1/2         13             0.00        0.84509117355761E+00        22.9961
 A1/2*        13             0.00        0.84509117355761E+00        22.9961
 A1/2         14             0.00        0.10042688764552E+01        27.3275
 A1/2*        14             0.00        0.10042688764552E+01        27.3275
 A1/2         15             0.00        0.11269760943770E+01        30.6666
 A1/2*        15             0.00        0.11269760943770E+01        30.6666
 A1/2         16             0.00        0.12837487474722E+01        34.9326
 A1/2*        16             0.00        0.12837487474722E+01        34.9326
 A1/2         17             0.00        0.14335607042977E+01        39.0092
 A1/2*        17             0.00        0.14335607042977E+01        39.0092
 A1/2         18             0.00        0.14707640979485E+01        40.0215
 A1/2*        18             0.00        0.14707640979485E+01        40.0215
 A1/2         19             0.00        0.16041207244549E+01        43.6503
 A1/2*        19             0.00        0.16041207244549E+01        43.6503
 A1/2         20             0.00        0.17188054185110E+01        46.7711
 A1/2*        20             0.00        0.17188054185110E+01        46.7711
 A1/2         21             0.00        0.18580693253643E+01        50.5606
 A1/2*        21             0.00        0.18580693253643E+01        50.5606
 A1/2         22             0.00        0.29287731600455E+01        79.6960
 A1/2*        22             0.00        0.29287731600455E+01        79.6960
 A1/2         23             0.00        0.32077565458104E+01        87.2875
 A1/2*        23             0.00        0.32077565458104E+01        87.2875


 Scaled ZORA Orbital Energies of the Core Orbitals:
 ==================================================

 (Note that the atoms are grouped by atomtype, see the labels, and may hence NOT be in input order)

 AtomType  Orbital  Atom                   E (au)                        E (eV)
 --------  -------  ----           --------------------        ----------------
 O           1S        1          -0.18834017937264E+02                -512.500


 Fit test: (difference of exact and fit density, squared integrated, result summed over spins)
         Sum-of-Fragments:                             0.00000000001256
         Orthogonalized Fragments:                     0.00002283406369
         SCF:                                          0.00009873106126



 ==========================
 Electron Density at Nuclei
 ==========================
  
 The electron density is calculated at points on a small sphere around the center of a nucleus.
 The printed electron density is the average electron density on these points.
 The radius of the sphere is the printed approximate finite nuclear radius.
 Note: ZORA-4 density is used, which includes small component density

         Atom        Nuclear Radius (Angstrom)             Electron Density (a.u.)
         ----        -------------------------             -----------------------
     1)   O                 0.0000345546                              318.23275
     2)   H                 0.0000181514                                0.45001
     3)   H                 0.0000181514                                0.44995



 =======================================
 M U L L I K E N   P O P U L A T I O N S
 =======================================
  
 The survey below gives for each atom:
 a) the total charge (Z minus electrons)
 b) the net spin polarization (nr of electrons spin-A minus spin-B)
 c) for each spin the atomic electron valence density (integrated) per L-value.

 Atom              Charge    Spin density          S         P         D         F
 ----              ------    ------------       ------    ------    ------    ------
 1 O              -0.5674                       1.8326    4.7035    0.0314    0.0000
 2 H               0.2836                       0.6162    0.1001    0.0000    0.0000
 3 H               0.2838                       0.6162    0.1001    0.0000    0.0000

 Populations of individual BAS functions
 ----------------------------------------
 1 O            0.0004  0.9055  0.9266  0.7220  0.6388  0.9913  0.7437  0.7173  0.8905  0.0188
                0.0040  0.0025  0.0240  0.0011 -0.0191
 2 H           -0.1342  0.7504  0.0304  0.0124  0.0573
 3 H           -0.1342  0.7503  0.0211  0.0216  0.0573

 Gross Charges per Atom (Z minus electrons)
 ==========================================
            -0.5674    0.2836    0.2838
 Net Total:  0.00000000


 Atom-Atom Population Matrix (off-diagonal elements not doubled)
 ===============================================================

     1 :     5.8801
     2 :     0.3437    0.3983
     3 :     0.3436   -0.0256    0.3982



 =================================================
 H I R S H F E L D   C H A R G E   A N A L Y S I S
 =================================================
  
 For each fragment: the (numerical) integral of rho(scf) * rho(fragment)/rho(sum-of-fragments)
 (nuclear charges are included, electrons are counted negative)

 The fragments and their ordering are defined in the early G E O M E T R Y output section.
 If you use single-atom fragments, this usually implies that all atoms of the same
 chemical type are grouped together. This may not be the order in which you listed them
 in the input file!

    1  O                        -0.2932
    2  H                         0.1466
    3  H                         0.1466

 Sum of these charges (accuracy NumInt/Tails) =          -0.00000898



 =============================
 V O R O N O I   C H A R G E S
 =============================
  
 For each atom: the (numerical) integral of the total electronic charge density in its Voronoi cell,
 i.e. the region of space that is closer to that atom than to any other atom.
 (cf. Wigner-Seitz cells in crystals)

 Within the Voronoi cell the subintegrals over the atomic sphere and the remaining part are evaluated
 separately to give the numbers of electrons (negative charge) in these regions.
 The net total charge in the cell (including the nuclear charge) is also given.

 Values are provided for
    a) the Initial (sum-of-fragments) density
    b) the Orthogonalized-Fragments density
    c) the SCF density
    d) the Voronoi Deformation Density (VDD): the difference SCF-Initial for the complete atomic cell


  Atom                Initial                    OrthFrag                   SCF
             Sphere RestCell NetTotal   Sphere RestCell NetTotal   Sphere RestCell NetTotal      VDD
 -----       ------------------------   ------------------------   ------------------------    -----
    1 O      -2.819   -4.214    0.967   -2.966   -4.292    0.742   -2.837   -4.470    0.693   -0.274
    2 H      -0.079   -1.394   -0.473   -0.084   -1.280   -0.364   -0.100   -1.238   -0.338    0.135
    3 H      -0.080   -1.414   -0.494   -0.085   -1.292   -0.377   -0.101   -1.255   -0.355    0.139
 ---------------------------------------------------------------------------------------------------
 Total NetCharge:              -0.000                     -0.000                     -0.000   -0.000
 (accuracy NumInt/Tails)

 Remark: the 'NetTotal' Voronoi charges often do not match the Mulliken and/or Hirshfeld charges very
 well. This is caused by the fact that chemically different atoms are not treated in accordance with
 their relative sizes. (Voronoi cells are defined by boundary planes halfway between the atoms.)
 However, the CHANGES in charge, comparing 'Initial' to 'SCF' for instance, do give a fair indication
 of the flow of charge caused by the relaxation from sum-of-fragments to self-consistency.

 Warning: the absolute accuracy of the VDD charges obtained using the Fuzzy Cells (Becke) integration
 scheme is much poorer than the one obtained with an 'equivalent' Voronoi integration grid. 



 =================================================================
 M U L T I P O L E   D E R I V E D   C H A R G E   A N A L Y S I S
 =================================================================

 This charge analysis uses the atomic multipoles (obtained from the fitted density) up to some level X,
 and reconstructs these multipoles exactly (up to level X) by distributing charges over all atoms.
 This is achieved by using Lagrange multipliers and a weight function to keep the multipoles local.

 Dummy atoms can be included (by setting INCDUM in MDC-block to 1) to obtain a fractional charge.
 This is generally useful and necessary only for small symmetrical molecules, when there are not
 enough degrees of freedom to reconstruct the multipoles.

 Since the atomic multipoles are reconstructed up to level X,
 the molecular multipoles are represented also up to level X.
 The recommended level is to reconstruct up to quadrupole : -> MDC-q charges.

 See: M. Swart, P.Th. van Duijnen, J.G. Snijders, J.Comput.Chem., (2001), p. 79-88.

 ------------------------------------------------------------- 
 Atomic electronic multipole moments from SCF equations (a.u.)
 ------------------------------------------------------------- 

   atom        charge        dip-x     dip-y     dip-z      quad-xx   quad-xy   quad-xz   quad-yy   quad-yz   quad-zz
 --------------------------------------------------------------------------------------------------------------------
    1 O     -0.185723    -0.349141 -0.232488  0.000000     0.358836 -0.222701  0.000000  0.638086 -0.000000 -0.996922
    2 H      0.092713     0.015443 -0.093361 -0.000000    -0.043772 -0.007696  0.000000  0.215265 -0.000000 -0.171493
    3 H      0.093010    -0.079683  0.049956 -0.000000     0.169546 -0.067410 -0.000000  0.002513  0.000000 -0.172059

 --------------------------------------- 
 Multipole derived atomic charges (a.u.)
 --------------------------------------- 

 The MDC-m charges are just the Monopole terms in the multipole expansion, while for the MDC-d charges
 also the Dipoles are reconstructed. The usually preferred charges are the MDC-q charges.
 These reconstruct the Monopoles, Dipoles and Quadrupoles (both atomic AND molecular).

        Atom    Level:     MDC-m        MDC-d        MDC-q
 ---------------------------------------------------------
     1     O           -0.185723    -0.619153    -0.594052
     2     H            0.092713     0.309598     0.310747
     3     H            0.093010     0.309555     0.283305

 ------------------------------------------------ 
 Average absolute deviations in atomic multipoles
 ------------------------------------------------ 

 Stated here are the average differences between the atomic multipoles
 and the reconstructed atomic multipoles (from the distributed charges).
 If these values are not zero, this means there are not enough degrees of freedom,
 to be able to reconstruct the atomic multipoles. (This usually happens only
 for small and/or highly symmetric molecules). If this is the case, one could add
 dummy atoms as extra point charges (and setting INCDUM in MDC-block to 1).

 Level:                                 MDC-d        MDC-q
 ---------------------------------------------------------
 Charge   (a.u.)                       0.0000       0.0000
 Dipole   (Debye)                      0.0000       0.1691
 Quad.    (a.u.)                       0.1332       0.0490

 --------------------------------------- 
 Represented molecular multipole moments
 --------------------------------------- 

 Given here are the Molecular multipole moments from the atomic charges, and from the Fit Density.
 Note that the atomic charges represent the latter, NOT the ones from the Exact density.

            Q (a.u.)             Dipole moment (Debye)                                          Quadrupole moment (a.u.)
                                 x         y         z              xx        xy        xz        yy        yz        zz
------------------------------------------------------------------------------------------------------------------------
MDC-m         0.0000       -0.4511   -0.2991    0.0000         -0.0357   -0.3103    0.0000    0.2077    0.0000   -0.1720
MDC-d         0.0000       -1.5018   -1.0004    0.0000         -0.1200   -1.0340    0.0000    0.6933    0.0000   -0.5732
MDC-q         0.0000       -1.3847   -1.0443    0.0000         -0.1403   -0.9803    0.0000    0.6894    0.0000   -0.5491
 
Fit.Dens.     0.0000       -1.5018   -1.0004   -0.0000          0.1690   -1.3132    0.0000    1.3394    0.0000   -1.5084



 =============
 Dipole Moment  ***  (Debye)  ***
 =============
  
 Vector   :        -1.50366762     -1.00114075      0.00000000
 Magnitude:         1.80646038

 This molecular dipole moment is calculated with analytic integration



 =========================================
 Quadrupole Moment (Buckingham convention)  ***  (a.u.)  ***
 =========================================
  
      quad-xx        quad-xy        quad-xz        quad-yy        quad-yz        quad-zz
      0.16853372    -1.46440639    -0.00000000     1.34137923     0.00000000    -1.50991295

 This molecular quadrupole moment is calculated with analytic integration
1



 ===========================
 B O N D I N G   E N E R G Y  ***  (decomposition)  ***
 ===========================
  
*** IMPORTANT NOTE ***

The bond energy is computed as an energy difference between molecule and
fragments. In particular when the fragments are single atoms, they are usually
computed as SPHERICALLY SYMMETRIC and SPIN-RESTRICTED. Obviously, this usually
does NOT represent the true atomic groundstate.

To obtain the 'real' bond energy, (atomic) correction terms must be applied
for the true (multiplet) fragment ground state. See ref: E.J.Baerends,
V.Branchadell, M.Sodupe, Chem.Phys.Lett.265 (1997) 481

General theoretical background on the bond energy decomposition scheme used
here (Morokuma-Ziegler) can be found in the review paper:
F.M. Bickelhaupt and E.J. Baerends,
"Kohn-Sham Density Functional Theory: Predicting and Understanding Chemistry"
In: Rev. Comput. Chem.; Lipkowitz, K. B. and Boyd, D. B., Eds.;
Wiley-VCH: New York, 2000, Vol. 15, 1-86.

Symbols used in the Bickelhaupt-Baerends (BB) paper are given below to make
the direct connection to that paper, where detailed explanations can be found
on the meaning of the various terms.
The Spin-Orbit term is calculated as the expectation value of the spin-orbit
 operator summed over all occupied spinors.


                                                   hartree              eV         kcal/mol           kJ/mol
                                      --------------------     -----------       ----------      -----------

Pauli Repulsion
  Kinetic (Delta T^0):                   4.180666682965215        113.7617          2623.41         10976.34
  Delta V^Pauli Coulomb:                -2.467134084609480        -67.1341         -1548.15         -6477.46
  Delta V^Pauli LDA-XC:                 -0.486358272245540        -13.2345          -305.19         -1276.93
  Delta V^Pauli GGA-Exchange:            0.022029662611119          0.5995            13.82            57.84
  Delta V^Pauli GGA-Correlation:        -0.007207311726365         -0.1961            -4.52           -18.92
                                      --------------------     -----------       ----------      -----------
  Total Pauli Repulsion:                 1.241996676994949         33.7964           779.36          3260.86
 (Total Pauli Repulsion =
  Delta E^Pauli in BB paper)

Steric Interaction
  Pauli Repulsion (Delta E^Pauli):       1.241996676994949         33.7964           779.36          3260.86
  Electrostatic Interaction:            -0.237690111500987         -6.4679          -149.15          -624.06
 (Electrostatic Interaction =
  Delta V_elstat in the BB paper)
                                      --------------------     -----------       ----------      -----------
  Total Steric Interaction:              1.004306565493962         27.3286           630.21          2636.81
 (Total Steric Interaction =
  Delta E^0 in the BB paper)

Orbital Interactions
  AA:                                   -1.291153730908274        -35.1341          -810.21         -3389.92
  AAA:                                  -0.225458935243278         -6.1350          -141.48          -591.94
  Spin-Orbit:                           -0.000005273955924         -0.0001            -0.00            -0.01
                                      --------------------     -----------       ----------      -----------
  Total Orbital Interactions:           -1.516617940107478        -41.2693          -951.69         -3981.88

Alternative Decomposition Orb.Int.
  Kinetic:                              -3.805005733152326       -103.5395         -2387.68         -9990.04
  Coulomb:                               2.267803095017519         61.7101          1423.07          5954.12
  XC:                                    0.020589971983254          0.5603            12.92            54.06
  Spin-Orbit:                           -0.000005273955924         -0.0001            -0.00            -0.01
                                      --------------------     -----------       ----------      -----------
  Total Orbital Interactions:           -1.516617940107478        -41.2693          -951.69         -3981.88

  Residu (E=Steric+OrbInt+Res):         -0.000014952830414         -0.0004            -0.01            -0.04

Total Bonding Energy:                   -0.512326327443929        -13.9411          -321.49         -1345.11


Summary of Bonding Energy (energy terms are taken from the energy decomposition above)
======================================================================================

  Electrostatic Energy:                 -0.237690111500987         -6.4679          -149.15          -624.06
  Kinetic Energy:                        0.375660949812889         10.2223           235.73           986.30
  Coulomb (Steric+OrbInt) Energy:       -0.199345942422375         -5.4245          -125.09          -523.38
  XC Energy:                            -0.450945949377532        -12.2709          -282.97         -1183.96
  Spin-Orbit:                           -0.000005273955924         -0.0001            -0.00            -0.01
                                      --------------------     -----------       ----------      -----------
  Total Bonding Energy:                 -0.512326327443929        -13.9411          -321.49         -1345.11


Correction terms (incorporated in energies above; only for test purposes):

1. Indication of fit-quality: 1st-order fit-correction used in the energy (hartree):   0.0000490030
2. Electrostatic (Fit correction):   0.0000000000

Scaled ZORA energy correction, not included in bonding energy (hartree):           -0.0000070702
 NOTE: This scaled ZORA energy correction should only be used to compare two calculations
 in which the only difference in the calculation is the electron configuration.
 Then the difference in energy of this term should be added to the difference in energy of
 the two electron configurations.
 This term should not be used otherwise.
 In practice it is useful only for core excitation energy calculations.



 =========================================
 F R A G M E N T   E N E R G Y   T E R M S  ***  (summed over all fragments)  ***
 =========================================
  

The energy terms below are (parts of) the Total Energy of the fragments from which the molecule
 is built.

Exchange and Correlation
  Exchange LDA:                         -7.614243940182206       -207.1941         -4778.01        -19991.19
  Exchange GGA:                         -0.913605301895992        -24.8605          -573.30         -2398.67
  Correlation LDA:                      -0.626888883368120        -17.0585          -393.38         -1645.90
  Correlation GGA:                       0.319790400615756          8.7019           200.67           839.61
                                      --------------------     -----------       ----------      -----------
  Total XC:                             -8.834947724830561       -240.4112         -5544.01        -23196.15

 Energy gradients wrt nuclear displacements
 ==========================================

     Atom      Cartesian (a.u./angstrom)
                 X         Y         Z
 ----------------------------------------
     1 O    -0.000163  0.000025  0.000000
     2 H     0.000013  0.000032  0.000000
     3 H     0.000150 -0.000056  0.000000
 ----------------------------------------



 =======================================================================
 Electrostatic potential at the Nuclei due to electrons and other nuclei
 =======================================================================
  
         Atom                  Potential
         ----                  ---------
     1)   O                  22.31336717
     2)   H                   0.97915004
     3)   H                   0.97922357
 Mulliken charges used for AMS results%charges...
 Continuous PES requested. Disabling symmetry...
 *** adf_CentralGeo ***



 ===========================
 A T T A C H E D   F I L E S
 ===========================
  
 Restart/tmp/amstmp_ams_kid0.595816591/adf.rkf*** adf ***



 ===============================
 M O D E L   P A R A M E T E R S
 ===============================
  
 DENSITY FUNCTIONAL POTENTIAL (scf)
    LDA:                               VWN                                      
    Gradient Corrections:              Becke88 Perdew86                        == Not Default ==

 SPIN  (restricted / unrestr.)
    Molecule:                          Restricted
    Fragments:                         Restricted                               

 OTHER ASPECTS
    Relativistic Corrections:          Spin-Orbit (ZORA,MAPA)                  == Not Default ==

    Nuclear Charge Density Model:      Point Charge Nuclei                      
    Core Treatment:                    Frozen Orbital(s)                        

    Hyperfine or Zeeman Interaction:   ---                                      



 ===============
 G E O M E T R Y  ***  Planar Molecule  ***
 ===============
  

 ATOMS
 =====                            X Y Z                    CHARGE
                                (Angstrom)             Nucl     +Core       At.Mass
                       --------------------------    ----------------       -------
    1  O               0.2980    0.2124    0.0000      8.00      6.00       15.9949
    2  H               0.2202   -0.7655    0.0000      1.00      1.00        1.0078
    3  H              -0.6343    0.5177    0.0000      1.00      1.00        1.0078


 FRAGMENTS
 =========                                     Atoms in this Fragment     Cart. coord.s (Angstrom)
                                               -------------------------------------------------------
    1  O                                                 1  O            0.2980    0.2124    0.0000
    2  H                                                 2  H            0.2202   -0.7655    0.0000
    3  H                                                 3  H           -0.6343    0.5177    0.0000


 Interatomic Distance Matrix (Angstrom)
 --------------------------------------

   1)     0.000
   2)     0.981   0.000
   3)     0.981   1.542   0.000

 Min. Distance =    0.9810
 Max. Distance =    1.5417



 =====================================
 S Y M M E T R Y ,   E L E C T R O N S
 =====================================
  
 Symmetry: NOSYM

 Double Group Irreducible Representations (spinor symmetry)
 -----------------------------------------------------------
 A1/2


 Configuration of Valence Electrons
 ==================================
 ( determined in the SCF procedure )

 Total:   8

 Net Charge: 0 (Nuclei minus Electrons)

 Aufbau principle for MO occupations will be applied through SCF cycle no.     150
 Thereafter, the program will assign electrons to MOs that are spatially
 similar to the occupied MOs in a "reference" cycle ("KeepOrbitals").
 The reference cycle is always the PREVIOUS cycle: it will evolve with
 the SCF procedure.
1
 ***************************************************************************************************



                                      ****************************************
                                      *  B U I L D : (Fragments, Functions)  *
                                      ****************************************
  

 Total nr. of (C)SFOs (summation over all irreps) :    23

 Specify PRINT SFO in the input file to get a full list

 Nr. of SFOs for ir.rep.           A :    23



 ================================
 (Slater-type)  F U N C T I O N S  ***  (Basis and Fit)  ***
 ================================
  

 Atom Type    1  (O)
 ==============

 Valence Basis Sets:   6
 -----------------------
   1 S    7.360000
   2 S    1.700000
   2 S    2.820000
   2 P    1.300000
   2 P    3.060000
   3 D    2.000000

 Frozen Core Shells
 ------------------
    S:  1

 Atom Type    2  (H)
 ==============

 Valence Basis Sets:   3
 -----------------------
   1 S    0.760000
   1 S    1.280000
   2 P    1.250000


 BAS: List of all Elementary Cartesian Basis Functions
 =====================================================

 The numbering in the list below (to the right of the function characteristics) is referred
 to in print-outs of MO eigenvectors and Mulliken populations in the BAS representation
 (as contrasted to the SFO representation).

 Notes:
 1. The functions are characterized by a polynomial prefactor (powers of x,y,z and r) and
    an exponential decay factor alpha.
 2. Since the basis sets are specific for an atom TYPE, the individual functions occur on
    all atoms of that type.
 3. The word 'Core' in the left margin signals that it is a Core Function (CF) : not a
    degree of freedom in the valence set, but only used to ensure orthogonalization of
    the other valence basis functions on the frozen Core Orbitals.


 (power of) X  Y  Z  R     Alpha  on Atom
            ==========     =====     ==========

 O                                    1
                                  ---------------------------------------------------------------------------
    Core    0  0  0  0     7.360      1
            0  0  0  1     1.700      2
            0  0  0  1     2.820      3
            1  0  0  0     1.300      4
            0  1  0  0     1.300      5
            0  0  1  0     1.300      6
            1  0  0  0     3.060      7
            0  1  0  0     3.060      8
            0  0  1  0     3.060      9
            2  0  0  0     2.000     10
            1  1  0  0     2.000     11
            1  0  1  0     2.000     12
            0  2  0  0     2.000     13
            0  1  1  0     2.000     14
            0  0  2  0     2.000     15

 H                                    2    3
                                  ---------------------------------------------------------------------------
            0  0  0  0     0.760     16   21
            0  0  0  0     1.280     17   22
            1  0  0  0     1.250     18   23
            0  1  0  0     1.250     19   24
            0  0  1  0     1.250     20   25

 Total number of charge fitting functions (nprimf)       182
 Total number of Cartesian basis functions (naos)         25
 Total number of Cartesian core functions  (ncos)          1

1
 ***************************************************************************************************



                                              ***********************
                                              *  T E C H N I C A L  *
                                              ***********************
  



 =============================================================
 P A R A L L E L I Z A T I O N  and  V E C T O R I Z A T I O N
 =============================================================
  
 Nr of parallel processes:                               12
 Maximum vector length in NumInt loops:                 128



 =====================
 S C F   U P D A T E S
 =====================
  
 Max. nr. of cycles:                               300
 Convergence criterion:                              0.0000010000
   secondary criterion:                              0.0010000000

 Mix parameter (when DIIS does not apply):           0.2000000000
 Mixed ADIIS+SDIIS will be used                  
    Max number of expansion vectors:                10
    Pure ADIIS when Max([F,P]) is above              0.1000000000
    Pure SDIIS when Max([F,P]) is below              0.0010000000
 Automatic ElectronSmearing (in case of problematic SCF convergence) disabled



 =================
 P R E C I S I O N  ***  (General: NumInt, NeglectFunctionTails, ...)  ***
 =================
  

 NumInt:           Target precision:                 4.0000000000
 -------           Initial precision:                4.0000000000
                   Min. precision (optimization):    4.0000000000

 Neglect Functions:          Basis functions:        0.1000000000E-05
 ------------------          Fit functions:          0.1000000000E-05



 ===========================
 L I N E A R   S C A L I N G
 ===========================
  

 Cut-off radii density fit:                        0.1000000000E-07
 Overlap cut-off criterion AO matrix elements:     0.1000000000E-05
 Cut-offs for Coulomb potential and fitted density:0.1000000000E-07
 Cut-off criterion for Coulomb multipole terms:    0.1000000000E-07
 Progressive Convergence parameter:                 0.000000000    

          A * e 1/2 :      A1/2

  A1/2:1 = A.alpha
  A1/2:1 = A.beta

 Number of elements of the density matrix on this node (used, total):       120       325



 ===========================================
 Numerical Integration : Fuzzy Cells (Becke)
 ===========================================
  
 Becke grid quality: NORMAL         
  
 Lebedev angular grid order:             min:  11 max:  23
 Nr. of radial points:                   min:  46 max:  49

 Total nr. of points:      18166
 Nr. of blocks:              142
 Block length:               128
 Nr. of dummy points:         10


 Test of Precision of the Numerical Integration Grid
 ===================================================

 Integral of the Total Core Density:                   2.00000170482934
 Relative Error:                                       8.524E-07



 ========================
 Density Fitting (zlmFit)
 ========================
  
 ZlmFit Fit Quality: NORMAL         
  
 Max L-expansion:                        min:   5 max:   6
 Nr. of radial interpolation points:     min:  36 max:  42



 =====
 S C F  ***  ScaSCF  ***
 =====
  
 Initial density matrix is taken from previous geometry

 CYCLE    1
 SCF Error: norm([F,P])=      0.003612845665, max([F,P])=      0.000986541069
 orbitals (Q,E):
 ---------------
 A1/2 :1...18        ( 1.00    -0.9331)  ( 1.00    -0.9331)  ( 1.00    -0.4868)  ( 1.00    -0.4868)
                     ( 1.00    -0.3516)  ( 1.00    -0.3516)  ( 1.00    -0.2718)  ( 1.00    -0.2718)
                     ( 0.00    -0.0087)  ( 0.00    -0.0087)  ( 0.00     0.0819)  ( 0.00     0.0819)
                     ( 0.00     0.3694)  ( 0.00     0.3694)  ( 0.00     0.3755)  ( 0.00     0.3755)
                     ( 0.00     0.4188)  ( 0.00     0.4188)

 CYCLE    2
   MIX coefficients:  0.8000  0.2000
 SCF Error: norm([F,P])=      0.000000014389, max([F,P])=      0.000000004925
 orbitals (Q,E):
 ---------------
 A1/2 :1...18        ( 1.00    -0.9331)  ( 1.00    -0.9331)  ( 1.00    -0.4868)  ( 1.00    -0.4868)
                     ( 1.00    -0.3516)  ( 1.00    -0.3516)  ( 1.00    -0.2718)  ( 1.00    -0.2718)
                     ( 0.00    -0.0087)  ( 0.00    -0.0087)  ( 0.00     0.0819)  ( 0.00     0.0819)
                     ( 0.00     0.3694)  ( 0.00     0.3694)  ( 0.00     0.3755)  ( 0.00     0.3755)
                     ( 0.00     0.4188)  ( 0.00     0.4188)

 SCF CONVERGED

 CYCLE    3
 *** Using FIT density in Focky
  SDIIS (wt  0.000): -0.8482  1.8482
 A-DIIS (wt  1.000):  0.5000  0.5000
  DIIS coefficients:  0.5000  0.5000
 SCF Error: norm([F,P])=      0.000000006994, max([F,P])=      0.000000002329
 orbitals (Q,E):
 ---------------
 A1/2 :1...18        ( 1.00    -0.9331)  ( 1.00    -0.9331)  ( 1.00    -0.4868)  ( 1.00    -0.4868)
                     ( 1.00    -0.3516)  ( 1.00    -0.3516)  ( 1.00    -0.2718)  ( 1.00    -0.2718)
                     ( 0.00    -0.0087)  ( 0.00    -0.0087)  ( 0.00     0.0819)  ( 0.00     0.0819)
                     ( 0.00     0.3694)  ( 0.00     0.3694)  ( 0.00     0.3755)  ( 0.00     0.3755)
                     ( 0.00     0.4188)  ( 0.00     0.4188)


 Fit test: (difference of exact and fit density, squared integrated, result summed over spins)
         SCF:                                          0.00009873106055

 Gross Charges per Atom (Z minus electrons)
 ==========================================
            -0.5674    0.2836    0.2838
 Net Total:  0.00000000



 =================================================================
 M U L T I P O L E   D E R I V E D   C H A R G E   A N A L Y S I S
 =================================================================

 See: M. Swart, P.Th. van Duijnen, J.G. Snijders, J.Comput.Chem., (2001), p. 79-88.

 --------------------------------------- 
 Multipole derived atomic charges (a.u.)
 --------------------------------------- 

        Atom    Level:     MDC-m        MDC-d        MDC-q
 ---------------------------------------------------------
     1     O           -0.185723    -0.619153    -0.594052
     2     H            0.092713     0.309598     0.310747
     3     H            0.093010     0.309555     0.283305



 =======================================================================
 Electrostatic potential at the Nuclei due to electrons and other nuclei
 =======================================================================
  
         Atom                  Potential
         ----                  ---------
     1)   O                  22.31336717
     2)   H                   0.97915004
     3)   H                   0.97922357
 Mulliken charges used for AMS results%charges...
 Continuous PES requested. Disabling symmetry...
 *** adf-NumNuclDerivs_displ1 ***

          A * e 1/2 :      A1/2

  A1/2:1 = A.alpha
  A1/2:1 = A.beta

 Energy gradients wrt nuclear displacements
 ==========================================

     Atom      Cartesian (a.u./angstrom)
                 X         Y         Z
 ----------------------------------------
     1 O     0.004251 -0.000823  0.000000
     2 H    -0.000386 -0.000023 -0.000000
     3 H    -0.003865  0.000846 -0.000000
 ----------------------------------------
 Mulliken charges used for AMS results%charges...
 Continuous PES requested. Disabling symmetry...
 *** adf-NumNuclDerivs_displ7 ***

          A * e 1/2 :      A1/2

  A1/2:1 = A.alpha
  A1/2:1 = A.beta

 Energy gradients wrt nuclear displacements
 ==========================================

     Atom      Cartesian (a.u./angstrom)
                 X         Y         Z
 ----------------------------------------
     1 O    -0.000561 -0.000576  0.000000
     2 H     0.000443  0.000185  0.000000
     3 H     0.000118  0.000391 -0.000000
 ----------------------------------------
 Mulliken charges used for AMS results%charges...
 Continuous PES requested. Disabling symmetry...
 *** adf-NumNuclDerivs_displ13 ***

          A * e 1/2 :      A1/2

  A1/2:1 = A.alpha
  A1/2:1 = A.beta

 Energy gradients wrt nuclear displacements
 ==========================================

     Atom      Cartesian (a.u./angstrom)
                 X         Y         Z
 ----------------------------------------
     1 O    -0.004251  0.001519  0.000000
     2 H    -0.000019 -0.000082  0.000000
     3 H     0.004270 -0.001437 -0.000000
 ----------------------------------------
 Mulliken charges used for AMS results%charges...
Scanning modes in range provided by user.


    =====================
     CALCULATION RESULTS
    =====================

Energy (hartree)            -0.51232633

Gradients (hartree/bohr)
  Index   Atom            d/dx            d/dy            d/dz
      1      O   -0.0000864076    0.0000130738    0.0000000000
      2      H    0.0000068425    0.0000167665    0.0000000000
      3      H    0.0000795651   -0.0000298403    0.0000000000

 Symmetry: C(S)

 -----------------------
 Normal Mode Frequencies
 -----------------------

 Index   Frequency (cm-1)   Intensity (km/mol)   Irrep
     7          1581.9270              79.7045      A'
     8          3615.1580               6.8985      A'
     9          3721.3343              87.5814      A'

 Zero-point energy (Hartree):     0.0203

 ------------
 Normal Modes
 ------------

 Number of removed rigid normal modes: 6
 
 Mode:     7      Frequency (cm-1):     1581.9270     Intensity (km/mol):       79.7045     Irrep: A'
 Index  Atom      ---- Displacements (x/y/z) ----
     1     O       0.059097   0.039473  -0.000000
     2     H      -0.704259   0.039004  -0.000000
     3     H      -0.233660  -0.665471   0.000000
 
 Mode:     8      Frequency (cm-1):     3615.1580     Intensity (km/mol):        6.8985     Irrep: A'
 Index  Atom      ---- Displacements (x/y/z) ----
     1     O       0.038771   0.030721  -0.000000
     2     H      -0.003752  -0.746101   0.000000
     3     H      -0.611579   0.258542   0.000000
 
 Mode:     9      Frequency (cm-1):     3721.3343     Intensity (km/mol):       87.5814     Irrep: A'
 Index  Atom      ---- Displacements (x/y/z) ----
     1     O       0.041211  -0.056320   0.000000
     2     H       0.054811   0.659251  -0.000000
     3     H      -0.708858   0.234591   0.000000

PES point character: Geometry corresponds to a local minimum on the PES.




 ============================
 Statistical Thermal Analysis  ***  ideal gas assumed  ***
 ============================
  
 Pressure:                  1.000000 atm.
 Temperature:             298.150000 K



 Moments of Inertia [amu*bohr^2] and principal axis
 ==================================================

           2.3536          4.2770          6.6306
 ------------------------------------------------
           0.5543         -0.8323          0.0000
          -0.8323         -0.5543          0.0000
           0.0000          0.0000          1.0000


 The rotational contribution to the molecular entropy includes
 a term, dependent on the symmetry number sigma. The results 
 reported below were computed using sigma = 1, determined from
 the point group symmetry of the input geometry (C(S)). 
 If this is not the correct symmetry, try symmetrizing the molecule before
 running the calculation (note: linear molecules should be aligned along one
 of the Cartesian axes).
 Contributions from frequencies below 20 1/cm are not included in vibrational sums.
 Their contributions, if any, are reported separately.


     Temp                                                        Transl      Rotat     Vibrat     Total
     ----                                                        ------      -----     ------     -----

     298.15   Entropy (cal/mol-K):                               34.608     11.977      0.008     46.594
              Nuclear Internal Energy (kcal/mol):                 0.889      0.889     12.752     14.529
              Constant Volume Heat Capacity (cal/mol-K):          2.981      2.981      0.056      6.018
          (c) Constant Volume Heat Capacity (cal/mol-K):          2.981      2.981      0.056      6.018

       Summary of energy terms
                                                   hartree              eV         kcal/mol           kJ/mol
                                      --------------------     -----------       ----------      -----------
      Energy from Engine:               -0.512326327443929        -13.9411          -321.49         -1345.11
      Nuclear Internal Energy:           0.023153701630354          0.6300            14.53            60.79
  (c) Nuclear Internal Energy:           0.023153642846536          0.6300            14.53            60.79
      Internal Energy U:                -0.489172625813575        -13.3111          -306.96         -1284.32
      pV/n = RT:                         0.000944186013486          0.0257             0.59             2.48
      Enthalpy H:                       -0.488228439800090        -13.2854          -306.37         -1281.84
      -T*S:                             -0.022138094737044         -0.6024           -13.89           -58.12
  (c) -T*S:                             -0.022138095138800         -0.6024           -13.89           -58.12
      Gibbs free energy:                -0.510366534537134        -13.8878          -320.26         -1339.97
 
 
 
  (c) The properties marked with this symbol have been corrected using 'low vibrational frequency free rotor
      interpolation corrections'. For those terms all positive frequencies are used (also ones below 20 1/cm),
      but the contribution to the partition function of small vibrational frequencies is modified as described
      in the following paper:
      S. Grimme, 'Supramolecular Binding Thermodynamics by Dispersion-Corrected Density Functional Theory'
      (Chem. Eur. J. 2012, 18, 9955-9964)
      Configuration: Dampener Frequency          :   100.000 1/cm
                     Dampener Alpha              :     4.000
                     Averaging Moment of Inertia : 1.000E-44 kg m2

--------------
Atomic charges
--------------
  Index   Atom    Charge
      1      O   -0.5674
      2      H    0.2836
      3      H    0.2838


Dipole moment vector    (Debye):    -1.50366762   -1.00114075    0.00000000
              magnitude (Debye):     1.80646038


Final PES point is a local minimum. Geometry optimization successful!


AMS application finished. Exiting.
NORMAL TERMINATION
     Total cpu time:      13.90
  Total system time:       1.78
 Total elapsed time:      16.12
