 argument  1 = benzene.ir_raman_bp86.nw



============================== echo of input deck ==============================
echo

start molecule

title "benzene"
charge 0

print low

geometry units angstroms print xyz autosym
     H                         2.23908902     1.13351136     0.00000000
     C                         1.25555977     0.63561321     0.00000000
     C                         1.17823707    -0.76954005     0.00000000
     H                         2.10119414    -1.37235229     0.00000000
     C                        -0.07732270    -1.40515326     0.00000000
     H                        -0.13789488    -2.50586365     0.00000000
     C                        -1.25555977    -0.63561321     0.00000000
     H                        -2.23908902    -1.13351136     0.00000000
     C                        -1.17823707     0.76954005     0.00000000
     H                        -2.10119414     1.37235229     0.00000000
     C                         0.07732270     1.40515326     0.00000000
     H                         0.13789488     2.50586365     0.00000000
end

basis
  * library DEF2-SVP
end

dft
  xc becke88 perdew86
  mult 1
end

property
 response 1 8.8559E-2
 damping 0.007
end

raman
  normal
  lorentzian
  width 20.0
end

task dft optimize
task dft freq
task dft raman


================================================================================


                                         
                                         


             Northwest Computational Chemistry Package (NWChem) 7.2.2
             --------------------------------------------------------


                    Environmental Molecular Sciences Laboratory
                       Pacific Northwest National Laboratory
                                Richland, WA 99352

                              Copyright (c) 1994-2022
                       Pacific Northwest National Laboratory
                            Battelle Memorial Institute

             NWChem is an open-source computational chemistry package
                        distributed under the terms of the
                      Educational Community License (ECL) 2.0
             A copy of the license is included with this distribution
                              in the LICENSE.TXT file

                                  ACKNOWLEDGMENT
                                  --------------

            This software and its documentation were developed at the
            EMSL at Pacific Northwest National Laboratory, a multiprogram
            national laboratory, operated for the U.S. Department of Energy
            by Battelle under Contract Number DE-AC05-76RL01830. Support
            for this work was provided by the Department of Energy Office
            of Biological and Environmental Research, Office of Basic
            Energy Sciences, and the Office of Advanced Scientific Computing.


           Job information
           ---------------

    hostname        = MIRO
    program         = nwchem
    date            = Mon Aug 25 22:27:21 2025

    compiled        = Mon_Apr_01_11:12:32_2024
    source          = /build/nwchem-qbYJLs/nwchem-7.2.2/build-openmpi
    nwchem branch   = 7.2.2
    nwchem revision = N/A
    ga revision     = N/A
    use scalapack   = T
    input           = benzene.ir_raman_bp86.nw
    prefix          = molecule.
    data base       = ./molecule.db
    status          = startup
    nproc           =        4
    time left       =     -1s



           Memory information
           ------------------

    heap     =   26214396 doubles =    200.0 Mbytes
    stack    =   26214401 doubles =    200.0 Mbytes
    global   =   52428800 doubles =    400.0 Mbytes (distinct from heap & stack)
    total    =  104857597 doubles =    800.0 Mbytes
    verify   = yes
    hardfail = no 


           Directory information
           ---------------------

  0 permanent = .
  0 scratch   = .




                                NWChem Input Module
                                -------------------


                                      benzene
                                      -------

 Scaling coordinates for geometry "geometry" by  1.889725989
 (inverse scale =  0.529177249)


          ------
          auto-z
          ------
  no constraints, skipping    0.0000000000000000     
  no constraints, skipping    0.0000000000000000     


                             Geometry "geometry" -> ""
                             -------------------------

 Output coordinates in angstroms (scale by  1.889725989 to convert to a.u.)

  No.       Tag          Charge          X              Y              Z
 ---- ---------------- ---------- -------------- -------------- --------------
    1 H                    1.0000     1.77459399     1.77459399     0.00000000
    2 C                    6.0000     0.99509660     0.99509660     0.00000000
    3 C                    6.0000     1.35932723    -0.36423063     0.00000000
    4 H                    1.0000     2.42414047    -0.64954648     0.00000000
    5 C                    6.0000     0.36423063    -1.35932723     0.00000000
    6 H                    1.0000     0.64954648    -2.42414047     0.00000000
    7 C                    6.0000    -0.99509660    -0.99509660     0.00000000
    8 H                    1.0000    -1.77459399    -1.77459399     0.00000000
    9 C                    6.0000    -1.35932723     0.36423063     0.00000000
   10 H                    1.0000    -2.42414047     0.64954648     0.00000000
   11 C                    6.0000    -0.36423063     1.35932723     0.00000000
   12 H                    1.0000    -0.64954648     2.42414047     0.00000000

      Atomic Mass 
      ----------- 

      H                  1.007825
      C                 12.000000


 Effective nuclear repulsion energy (a.u.)     201.4519445675

            Nuclear Dipole moment (a.u.) 
            ----------------------------
        X                 Y               Z
 ---------------- ---------------- ----------------
    -0.0000000000     0.0000000000     0.0000000000

      Symmetry information
      --------------------

 Group name             D6h       
 Group number             30
 Group order              24
 No. of unique centers     2

      Symmetry unique atoms

     1    2



                                Z-matrix (autoz)
                                -------- 

 Units are Angstrom for bonds and degrees for angles

      Type          Name      I     J     K     L     M      Value
      ----------- --------  ----- ----- ----- ----- ----- ----------
    1 Stretch                  1     2                       1.10238
    2 Stretch                  2     3                       1.40728
    3 Stretch                  2    11                       1.40728
    4 Stretch                  3     4                       1.10238
    5 Stretch                  3     5                       1.40728
    6 Stretch                  5     6                       1.10238
    7 Stretch                  5     7                       1.40728
    8 Stretch                  7     8                       1.10238
    9 Stretch                  7     9                       1.40728
   10 Stretch                  9    10                       1.10238
   11 Stretch                  9    11                       1.40728
   12 Stretch                 11    12                       1.10238
   13 Bend                     1     2     3               120.00000
   14 Bend                     1     2    11               120.00000
   15 Bend                     2     3     4               120.00000
   16 Bend                     2     3     5               120.00000
   17 Bend                     2    11     9               120.00000
   18 Bend                     2    11    12               120.00000
   19 Bend                     3     2    11               120.00000
   20 Bend                     3     5     6               120.00000
   21 Bend                     3     5     7               120.00000
   22 Bend                     4     3     5               120.00000
   23 Bend                     5     7     8               120.00000
   24 Bend                     5     7     9               120.00000
   25 Bend                     6     5     7               120.00000
   26 Bend                     7     9    10               120.00000
   27 Bend                     7     9    11               120.00000
   28 Bend                     8     7     9               120.00000
   29 Bend                     9    11    12               120.00000
   30 Bend                    10     9    11               120.00000
   31 Torsion                  1     2     3     4           0.00000
   32 Torsion                  1     2     3     5         180.00000
   33 Torsion                  1     2    11     9         180.00000
   34 Torsion                  1     2    11    12          -0.00000
   35 Torsion                  2     3     5     6         180.00000
   36 Torsion                  2     3     5     7           0.00000
   37 Torsion                  2    11     9     7           0.00000
   38 Torsion                  2    11     9    10         180.00000
   39 Torsion                  3     2    11     9           0.00000
   40 Torsion                  3     2    11    12         180.00000
   41 Torsion                  3     5     7     8         180.00000
   42 Torsion                  3     5     7     9          -0.00000
   43 Torsion                  4     3     2    11         180.00000
   44 Torsion                  4     3     5     6           0.00000
   45 Torsion                  4     3     5     7         180.00000
   46 Torsion                  5     3     2    11           0.00000
   47 Torsion                  5     7     9    10         180.00000
   48 Torsion                  5     7     9    11           0.00000
   49 Torsion                  6     5     7     8           0.00000
   50 Torsion                  6     5     7     9         180.00000
   51 Torsion                  7     9    11    12         180.00000
   52 Torsion                  8     7     9    10           0.00000
   53 Torsion                  8     7     9    11         180.00000
   54 Torsion                 10     9    11    12           0.00000


            XYZ format geometry
            -------------------
    12
 geometry
 H                     1.77459399     1.77459399     0.00000000
 C                     0.99509660     0.99509660     0.00000000
 C                     1.35932723    -0.36423063     0.00000000
 H                     2.42414047    -0.64954648     0.00000000
 C                     0.36423063    -1.35932723     0.00000000
 H                     0.64954648    -2.42414047     0.00000000
 C                    -0.99509660    -0.99509660     0.00000000
 H                    -1.77459399    -1.77459399     0.00000000
 C                    -1.35932723     0.36423063     0.00000000
 H                    -2.42414047     0.64954648     0.00000000
 C                    -0.36423063     1.35932723     0.00000000
 H                    -0.64954648     2.42414047     0.00000000

 ==============================================================================
                                internuclear distances
 ------------------------------------------------------------------------------
       center one      |      center two      | atomic units |  angstroms
 ------------------------------------------------------------------------------
    2 C                |   1 H                |     2.08319  |     1.10238
    3 C                |   2 C                |     2.65937  |     1.40728
    4 H                |   3 C                |     2.08319  |     1.10238
    5 C                |   3 C                |     2.65937  |     1.40728
    6 H                |   5 C                |     2.08319  |     1.10238
    7 C                |   5 C                |     2.65937  |     1.40728
    8 H                |   7 C                |     2.08319  |     1.10238
    9 C                |   7 C                |     2.65937  |     1.40728
   10 H                |   9 C                |     2.08319  |     1.10238
   11 C                |   2 C                |     2.65937  |     1.40728
   11 C                |   9 C                |     2.65937  |     1.40728
   12 H                |  11 C                |     2.08319  |     1.10238
 ------------------------------------------------------------------------------
                         number of included internuclear distances:         12
 ==============================================================================



 ==============================================================================
                                 internuclear angles
 ------------------------------------------------------------------------------
        center 1       |       center 2       |       center 3       |  degrees
 ------------------------------------------------------------------------------
    1 H                |   2 C                |   3 C                |   120.00
    1 H                |   2 C                |  11 C                |   120.00
    3 C                |   2 C                |  11 C                |   120.00
    2 C                |   3 C                |   4 H                |   120.00
    2 C                |   3 C                |   5 C                |   120.00
    4 H                |   3 C                |   5 C                |   120.00
    3 C                |   5 C                |   6 H                |   120.00
    3 C                |   5 C                |   7 C                |   120.00
    6 H                |   5 C                |   7 C                |   120.00
    5 C                |   7 C                |   8 H                |   120.00
    5 C                |   7 C                |   9 C                |   120.00
    8 H                |   7 C                |   9 C                |   120.00
    7 C                |   9 C                |  10 H                |   120.00
    7 C                |   9 C                |  11 C                |   120.00
   10 H                |   9 C                |  11 C                |   120.00
    2 C                |  11 C                |   9 C                |   120.00
    2 C                |  11 C                |  12 H                |   120.00
    9 C                |  11 C                |  12 H                |   120.00
 ------------------------------------------------------------------------------
                            number of included internuclear angles:         18
 ==============================================================================





 Summary of "ao basis" -> "" (cartesian)
 ------------------------------------------------------------------------------
       Tag                 Description            Shells   Functions and Types
 ---------------- ------------------------------  ------  ---------------------
 *                          DEF2-SVP                  on all atoms 


  perdew86 is a nonlocal functional; adding perdew81 local functional. 


                           NWChem Geometry Optimization
                           ----------------------------




                                      benzene


  no constraints, skipping    0.0000000000000000     
 maximum gradient threshold         (gmax) =   0.000450
 rms gradient threshold             (grms) =   0.000300
 maximum cartesian step threshold   (xmax) =   0.001800
 rms cartesian step threshold       (xrms) =   0.001200
 fixed trust radius                (trust) =   0.300000
 maximum step size to saddle      (sadstp) =   0.100000
 energy precision                  (eprec) =   5.0D-06
 maximum number of steps          (nptopt) =   40
 initial hessian option           (inhess) =    0
 line search option               (linopt) =    1
 hessian update option            (modupd) =    1
 saddle point option              (modsad) =    0
 initial eigen-mode to follow     (moddir) =    0
 initial variable to follow       (vardir) =    0
 follow first negative mode     (firstneg) =    T
 apply conjugacy                    (opcg) =    F
 source of zmatrix                         =   autoz   


          -------------------
          Energy Minimization
          -------------------


 Names of Z-matrix variables 
    1              2              3              4              5         
    6              7              8              9             10         
   11             12             13             14             15         
   16             17             18             19             20         
   21             22             23             24             25         
   26             27             28             29             30         
   31             32             33             34             35         
   36             37             38             39             40         
   41             42             43             44             45         
   46             47             48             49             50         
   51             52             53             54         

 Variables with the same non-blank name are constrained to be equal


 Using diagonal initial Hessian 
 Scaling for Hessian diagonals: bonds = 1.00  angles = 0.25  torsions = 0.10

          --------
          Step   0
          --------

                                 NWChem DFT Module
                                 -----------------


                                      benzene


                      Basis "ao basis" -> "ao basis" (cartesian)
                      -----
  H (Hydrogen)
  ------------
            Exponent  Coefficients 
       -------------- ---------------------------------------------------------
  1 S  1.30107010E+01  0.019682
  1 S  1.96225720E+00  0.137965
  1 S  4.44537960E-01  0.478319

  2 S  1.21949620E-01  1.000000

  3 P  8.00000000E-01  1.000000

  C (Carbon)
  ----------
            Exponent  Coefficients 
       -------------- ---------------------------------------------------------
  1 S  1.23840169E+03  0.005457
  1 S  1.86290050E+02  0.040638
  1 S  4.22511763E+01  0.180256
  1 S  1.16765579E+01  0.463151
  1 S  3.59305065E+00  0.440872

  2 S  4.02451474E-01  1.000000

  3 S  1.30901827E-01  1.000000

  4 P  9.46809706E+00  0.038388
  4 P  2.01035451E+00  0.211170
  4 P  5.47710047E-01  0.513282

  5 P  1.52686138E-01  1.000000

  6 D  8.00000000E-01  1.000000



 Summary of "ao basis" -> "ao basis" (cartesian)
 ------------------------------------------------------------------------------
       Tag                 Description            Shells   Functions and Types
 ---------------- ------------------------------  ------  ---------------------
 H                          DEF2-SVP                 3        5   2s1p
 C                          DEF2-SVP                 6       15   3s2p1d



  Caching 1-el integrals 
  WARNING: movecs_in_org=atomic not equal to movecs_in=./molecule.movecs
   Time after variat. SCF:      0.1
   Time prior to 1st pass:      0.1

           Memory utilization after 1st SCF pass: 
           Heap Space remaining (MW):       25.23            25229252
          Stack Space remaining (MW):       26.21            26213468

   convergence    iter        energy       DeltaE   RMS-Dens  Diis-err    time
 ---------------- ----- ----------------- --------- --------- ---------  ------
 d= 0,ls=0.0,diis     1   -232.0370644820 -4.33D+02  7.43D-03  4.81D-01     0.3
 d= 0,ls=0.0,diis     2   -232.0823237441 -4.53D-02  2.64D-03  1.65D-02     0.4
 d= 0,ls=0.0,diis     3   -232.0844778308 -2.15D-03  5.12D-04  2.50D-03     0.5
 d= 0,ls=0.0,diis     4   -232.0847839338 -3.06D-04  3.00D-05  1.28D-05     0.5
 d= 0,ls=0.0,diis     5   -232.0847854336 -1.50D-06  9.28D-06  7.76D-07     0.6
 d= 0,ls=0.0,diis     6   -232.0847855015 -6.78D-08  4.12D-06  2.38D-07     0.7


         Total DFT energy =     -232.084785501489
      One electron energy =     -709.873656770405
           Coulomb energy =      310.950657488063
    Exchange-Corr. energy =      -34.613730786613
 Nuclear repulsion energy =      201.451944567465

 Numeric. integr. density =       42.000003913153

     Total iterative time =      0.5s



                  Occupations of the irreducible representations
                  ----------------------------------------------

                     irrep           alpha         beta
                     --------     --------     --------
                     a1g               3.0          3.0
                     a1u               0.0          0.0
                     a2g               0.0          0.0
                     a2u               1.0          1.0
                     b1g               0.0          0.0
                     b1u               2.0          2.0
                     b2g               0.0          0.0
                     b2u               1.0          1.0
                     e1g               2.0          2.0
                     e1u               6.0          6.0
                     e2g               6.0          6.0
                     e2u               0.0          0.0



                         DFT ENERGY GRADIENTS

    atom               coordinates                        gradient
                 x          y          z           x          y          z
   1 H       3.353496   3.353496   0.000000   -0.000014  -0.000014   0.000000
   2 C       1.880460   1.880460   0.000000    0.000013   0.000013   0.000000
   3 C       2.568756  -0.688296   0.000000    0.000017  -0.000005   0.000000
   4 H       4.580961  -1.227465   0.000000   -0.000018   0.000005   0.000000
   5 C       0.688296  -2.568756   0.000000    0.000005  -0.000017   0.000000
   6 H       1.227465  -4.580961   0.000000   -0.000005   0.000018   0.000000
   7 C      -1.880460  -1.880460   0.000000   -0.000013  -0.000013   0.000000
   8 H      -3.353496  -3.353496   0.000000    0.000014   0.000014   0.000000
   9 C      -2.568756   0.688296   0.000000   -0.000017   0.000005   0.000000
  10 H      -4.580961   1.227465   0.000000    0.000018  -0.000005   0.000000
  11 C      -0.688296   2.568756   0.000000   -0.000005   0.000017   0.000000
  12 H      -1.227465   4.580961   0.000000    0.000005  -0.000018   0.000000

  no constraints, skipping    0.0000000000000000     

@ Step       Energy      Delta E   Gmax     Grms     Xrms     Xmax   Walltime
@ ---- ---------------- -------- -------- -------- -------- -------- --------
@    0    -232.08478550  0.0D+00  0.00002  0.00001  0.00000  0.00000      0.8
                                     ok       ok       ok       ok  

  no constraints, skipping    0.0000000000000000     
  no constraints, skipping    0.0000000000000000     
  no constraints, skipping    0.0000000000000000     

                                 NWChem DFT Module
                                 -----------------


                                      benzene



  Caching 1-el integrals 
   Time after variat. SCF:      0.9
   Time prior to 1st pass:      0.9

           Memory utilization after 1st SCF pass: 
           Heap Space remaining (MW):       25.23            25229252
          Stack Space remaining (MW):       26.21            26213468

   convergence    iter        energy       DeltaE   RMS-Dens  Diis-err    time
 ---------------- ----- ----------------- --------- --------- ---------  ------
 d= 0,ls=0.0,diis     1   -232.0847855378 -4.34D+02  1.86D-06  4.12D-09     1.0
 d= 0,ls=0.0,diis     2   -232.0847855384 -5.70D-10  2.60D-07  3.33D-10     1.1


         Total DFT energy =     -232.084785538362
      One electron energy =     -709.874469394908
           Coulomb energy =      310.952576120720
    Exchange-Corr. energy =      -34.613836255116
 Nuclear repulsion energy =      201.450943990942

 Numeric. integr. density =       42.000003913601

     Total iterative time =      0.2s



                  Occupations of the irreducible representations
                  ----------------------------------------------

                     irrep           alpha         beta
                     --------     --------     --------
                     a1g               3.0          3.0
                     a1u               0.0          0.0
                     a2g               0.0          0.0
                     a2u               1.0          1.0
                     b1g               0.0          0.0
                     b1u               2.0          2.0
                     b2g               0.0          0.0
                     b2u               1.0          1.0
                     e1g               2.0          2.0
                     e1u               6.0          6.0
                     e2g               6.0          6.0
                     e2u               0.0          0.0

 Line search: 
     step= 1.00 grad=-6.5D-09 hess=-3.0D-08 energy=   -232.084786 mode=accept  
 new step= 1.00                   predicted energy=   -232.084786
  no constraints, skipping    0.0000000000000000     
  no constraints, skipping    0.0000000000000000     
  no constraints, skipping    0.0000000000000000     

          --------
          Step   1
          --------

                                 NWChem DFT Module
                                 -----------------


                                      benzene




  The DFT is already converged 

         Total DFT energy =   -232.084785538362



                         DFT ENERGY GRADIENTS

    atom               coordinates                        gradient
                 x          y          z           x          y          z
   1 H       3.353538   3.353538   0.000000    0.000000   0.000000   0.000000
   2 C       1.880462   1.880462   0.000000    0.000000   0.000000   0.000000
   3 C       2.568759  -0.688297   0.000000    0.000000  -0.000000   0.000000
   4 H       4.581019  -1.227480   0.000000    0.000000  -0.000000   0.000000
   5 C       0.688297  -2.568759   0.000000    0.000000  -0.000000   0.000000
   6 H       1.227480  -4.581019   0.000000    0.000000  -0.000000   0.000000
   7 C      -1.880462  -1.880462   0.000000   -0.000000  -0.000000   0.000000
   8 H      -3.353538  -3.353538   0.000000   -0.000000  -0.000000   0.000000
   9 C      -2.568759   0.688297   0.000000   -0.000000   0.000000   0.000000
  10 H      -4.581019   1.227480   0.000000   -0.000000   0.000000   0.000000
  11 C      -0.688297   2.568759   0.000000   -0.000000   0.000000   0.000000
  12 H      -1.227480   4.581019   0.000000   -0.000000   0.000000   0.000000

  no constraints, skipping    0.0000000000000000     

  Step       Energy      Delta E   Gmax     Grms     Xrms     Xmax   Walltime
  ---- ---------------- -------- -------- -------- -------- -------- --------
@    1    -232.08478554 -3.7D-08  0.00000  0.00000  0.00002  0.00006      1.3
                                     ok       ok       ok       ok  


      ----------------------
      Optimization converged
      ----------------------


  Step       Energy      Delta E   Gmax     Grms     Xrms     Xmax   Walltime
  ---- ---------------- -------- -------- -------- -------- -------- --------
@    1    -232.08478554 -3.7D-08  0.00000  0.00000  0.00002  0.00006      1.3
                                     ok       ok       ok       ok  



                         Geometry "geometry" -> "geometry"
                         ---------------------------------

 Output coordinates in angstroms (scale by  1.889725989 to convert to a.u.)

  No.       Tag          Charge          X              Y              Z
 ---- ---------------- ---------- -------------- -------------- --------------
    1 H                    1.0000     1.77461620     1.77461620     0.00000000
    2 C                    6.0000     0.99509763     0.99509763     0.00000000
    3 C                    6.0000     1.35932864    -0.36423101     0.00000000
    4 H                    1.0000     2.42417081    -0.64955461     0.00000000
    5 C                    6.0000     0.36423101    -1.35932864     0.00000000
    6 H                    1.0000     0.64955461    -2.42417081     0.00000000
    7 C                    6.0000    -0.99509763    -0.99509763     0.00000000
    8 H                    1.0000    -1.77461620    -1.77461620     0.00000000
    9 C                    6.0000    -1.35932864     0.36423101     0.00000000
   10 H                    1.0000    -2.42417081     0.64955461     0.00000000
   11 C                    6.0000    -0.36423101     1.35932864     0.00000000
   12 H                    1.0000    -0.64955461     2.42417081     0.00000000

      Atomic Mass 
      ----------- 

      H                  1.007825
      C                 12.000000


 Effective nuclear repulsion energy (a.u.)     201.4509439909

            Nuclear Dipole moment (a.u.) 
            ----------------------------
        X                 Y               Z
 ---------------- ---------------- ----------------
    -0.0000000000     0.0000000000     0.0000000000

      Symmetry information
      --------------------

 Group name             D6h       
 Group number             30
 Group order              24
 No. of unique centers     2

      Symmetry unique atoms

     1    2


                Final and change from initial internal coordinates
                --------------------------------------------------



                                Z-matrix (autoz)
                                -------- 

 Units are Angstrom for bonds and degrees for angles

      Type          Name      I     J     K     L     M      Value       Change
      ----------- --------  ----- ----- ----- ----- ----- ---------- ----------
    1 Stretch                  1     2                       1.10241    0.00003
    2 Stretch                  2     3                       1.40728    0.00000
    3 Stretch                  2    11                       1.40728    0.00000
    4 Stretch                  3     4                       1.10241    0.00003
    5 Stretch                  3     5                       1.40728    0.00000
    6 Stretch                  5     6                       1.10241    0.00003
    7 Stretch                  5     7                       1.40728    0.00000
    8 Stretch                  7     8                       1.10241    0.00003
    9 Stretch                  7     9                       1.40728    0.00000
   10 Stretch                  9    10                       1.10241    0.00003
   11 Stretch                  9    11                       1.40728    0.00000
   12 Stretch                 11    12                       1.10241    0.00003
   13 Bend                     1     2     3               120.00000    0.00000
   14 Bend                     1     2    11               120.00000   -0.00000
   15 Bend                     2     3     4               120.00000    0.00000
   16 Bend                     2     3     5               120.00000   -0.00000
   17 Bend                     2    11     9               120.00000   -0.00000
   18 Bend                     2    11    12               120.00000    0.00000
   19 Bend                     3     2    11               120.00000    0.00000
   20 Bend                     3     5     6               120.00000    0.00000
   21 Bend                     3     5     7               120.00000   -0.00000
   22 Bend                     4     3     5               120.00000    0.00000
   23 Bend                     5     7     8               120.00000   -0.00000
   24 Bend                     5     7     9               120.00000    0.00000
   25 Bend                     6     5     7               120.00000    0.00000
   26 Bend                     7     9    10               120.00000    0.00000
   27 Bend                     7     9    11               120.00000   -0.00000
   28 Bend                     8     7     9               120.00000   -0.00000
   29 Bend                     9    11    12               120.00000    0.00000
   30 Bend                    10     9    11               120.00000    0.00000
   31 Torsion                  1     2     3     4           0.00000    0.00000
   32 Torsion                  1     2     3     5         180.00000    0.00000
   33 Torsion                  1     2    11     9         180.00000    0.00000
   34 Torsion                  1     2    11    12          -0.00000    0.00000
   35 Torsion                  2     3     5     6         180.00000    0.00000
   36 Torsion                  2     3     5     7           0.00000    0.00000
   37 Torsion                  2    11     9     7           0.00000    0.00000
   38 Torsion                  2    11     9    10         180.00000    0.00000
   39 Torsion                  3     2    11     9           0.00000    0.00000
   40 Torsion                  3     2    11    12         180.00000    0.00000
   41 Torsion                  3     5     7     8         180.00000    0.00000
   42 Torsion                  3     5     7     9          -0.00000    0.00000
   43 Torsion                  4     3     2    11         180.00000    0.00000
   44 Torsion                  4     3     5     6           0.00000    0.00000
   45 Torsion                  4     3     5     7         180.00000    0.00000
   46 Torsion                  5     3     2    11           0.00000    0.00000
   47 Torsion                  5     7     9    10         180.00000    0.00000
   48 Torsion                  5     7     9    11           0.00000    0.00000
   49 Torsion                  6     5     7     8           0.00000    0.00000
   50 Torsion                  6     5     7     9         180.00000    0.00000
   51 Torsion                  7     9    11    12         180.00000    0.00000
   52 Torsion                  8     7     9    10           0.00000    0.00000
   53 Torsion                  8     7     9    11         180.00000    0.00000
   54 Torsion                 10     9    11    12           0.00000    0.00000



                                NWChem Input Module
                                -------------------




                   NWChem Nuclear Hessian and Frequency Analysis
                   ---------------------------------------------



                              NWChem Analytic Hessian
                              -----------------------


                                 NWChem DFT Module
                                 -----------------


                                      benzene



  Caching 1-el integrals 
   Time after variat. SCF:      1.3
   Time prior to 1st pass:      1.3

           Memory utilization after 1st SCF pass: 
           Heap Space remaining (MW):       12.11            12114116
          Stack Space remaining (MW):       26.21            26213468

   convergence    iter        energy       DeltaE   RMS-Dens  Diis-err    time
 ---------------- ----- ----------------- --------- --------- ---------  ------
 d= 0,ls=0.0,diis     1   -232.0847908558 -4.34D+02  6.26D-07  2.73D-09     2.3
 d= 0,ls=0.0,diis     2   -232.0847908562 -4.80D-10  1.37D-07  9.56D-11     3.0


         Total DFT energy =     -232.084790856239
      One electron energy =     -709.874464120134
           Coulomb energy =      310.952570999564
    Exchange-Corr. energy =      -34.613841726611
 Nuclear repulsion energy =      201.450943990942

 Numeric. integr. density =       42.000026732672

     Total iterative time =      1.7s



 HESSIAN: the one electron contributions are done in       0.1s


 HESSIAN: 2-el 1st deriv. term done in                     1.3s


 HESSIAN: 2-el 2nd deriv. term done in                     4.7s

  stpr_wrt_fd_from_sq: overwrite of existing file:./molecule.hess
 stpr_wrt_fd_dipole: overwrite of existing file./molecule.fd_ddipole

 HESSIAN: the two electron contributions are done in      26.8s

 SCF residual:    1.3079646913057898E-005
 HESSIAN: the CPHF contributions are done
  stpr_wrt_fd_from_sq: overwrite of existing file:./molecule.hess
 stpr_wrt_fd_dipole: overwrite of existing file./molecule.fd_ddipole

 Derivative Dipole

  
  
 X vector of derivative dipole (au) [debye/angstrom]
 d_dipole_x/<atom=   1,x> =    -0.0204     [   -0.0978]
 d_dipole_x/<atom=   1,y> =    -0.0816     [   -0.3921]
 d_dipole_x/<atom=   1,z> =    -0.0000     [   -0.0000]
 d_dipole_x/<atom=   2,x> =     0.0203     [    0.0977]
 d_dipole_x/<atom=   2,y> =     0.0802     [    0.3854]
 d_dipole_x/<atom=   2,z> =     0.0000     [    0.0000]
 d_dipole_x/<atom=   3,x> =     0.0899     [    0.4316]
 d_dipole_x/<atom=   3,y> =    -0.0401     [   -0.1926]
 d_dipole_x/<atom=   3,z> =     0.0000     [    0.0000]
 d_dipole_x/<atom=   4,x> =    -0.0911     [   -0.4374]
 d_dipole_x/<atom=   4,y> =     0.0408     [    0.1960]
 d_dipole_x/<atom=   4,z> =    -0.0000     [   -0.0000]
 d_dipole_x/<atom=   5,x> =    -0.0491     [   -0.2360]
 d_dipole_x/<atom=   5,y> =    -0.0401     [   -0.1927]
 d_dipole_x/<atom=   5,z> =     0.0000     [    0.0000]
 d_dipole_x/<atom=   6,x> =     0.0503     [    0.2417]
 d_dipole_x/<atom=   6,y> =     0.0408     [    0.1960]
 d_dipole_x/<atom=   6,z> =    -0.0000     [   -0.0000]
 d_dipole_x/<atom=   7,x> =     0.0203     [    0.0977]
 d_dipole_x/<atom=   7,y> =     0.0802     [    0.3854]
 d_dipole_x/<atom=   7,z> =     0.0000     [    0.0000]
 d_dipole_x/<atom=   8,x> =    -0.0204     [   -0.0978]
 d_dipole_x/<atom=   8,y> =    -0.0816     [   -0.3921]
 d_dipole_x/<atom=   8,z> =    -0.0000     [   -0.0000]
 d_dipole_x/<atom=   9,x> =     0.0899     [    0.4316]
 d_dipole_x/<atom=   9,y> =    -0.0401     [   -0.1926]
 d_dipole_x/<atom=   9,z> =     0.0000     [    0.0000]
 d_dipole_x/<atom=  10,x> =    -0.0911     [   -0.4374]
 d_dipole_x/<atom=  10,y> =     0.0408     [    0.1960]
 d_dipole_x/<atom=  10,z> =    -0.0000     [   -0.0000]
 d_dipole_x/<atom=  11,x> =    -0.0491     [   -0.2360]
 d_dipole_x/<atom=  11,y> =    -0.0401     [   -0.1927]
 d_dipole_x/<atom=  11,z> =     0.0000     [    0.0000]
 d_dipole_x/<atom=  12,x> =     0.0503     [    0.2417]
 d_dipole_x/<atom=  12,y> =     0.0408     [    0.1960]
 d_dipole_x/<atom=  12,z> =    -0.0000     [   -0.0000]
  
 Y vector of derivative dipole (au) [debye/angstrom]
 d_dipole_y/<atom=   1,x> =    -0.0816     [   -0.3921]
 d_dipole_y/<atom=   1,y> =    -0.0204     [   -0.0978]
 d_dipole_y/<atom=   1,z> =    -0.0000     [   -0.0000]
 d_dipole_y/<atom=   2,x> =     0.0802     [    0.3854]
 d_dipole_y/<atom=   2,y> =     0.0203     [    0.0977]
 d_dipole_y/<atom=   2,z> =     0.0000     [    0.0000]
 d_dipole_y/<atom=   3,x> =    -0.0401     [   -0.1927]
 d_dipole_y/<atom=   3,y> =    -0.0491     [   -0.2360]
 d_dipole_y/<atom=   3,z> =     0.0000     [    0.0000]
 d_dipole_y/<atom=   4,x> =     0.0408     [    0.1960]
 d_dipole_y/<atom=   4,y> =     0.0503     [    0.2417]
 d_dipole_y/<atom=   4,z> =    -0.0000     [   -0.0000]
 d_dipole_y/<atom=   5,x> =    -0.0401     [   -0.1926]
 d_dipole_y/<atom=   5,y> =     0.0899     [    0.4316]
 d_dipole_y/<atom=   5,z> =     0.0000     [    0.0000]
 d_dipole_y/<atom=   6,x> =     0.0408     [    0.1960]
 d_dipole_y/<atom=   6,y> =    -0.0911     [   -0.4374]
 d_dipole_y/<atom=   6,z> =    -0.0000     [   -0.0000]
 d_dipole_y/<atom=   7,x> =     0.0802     [    0.3854]
 d_dipole_y/<atom=   7,y> =     0.0203     [    0.0977]
 d_dipole_y/<atom=   7,z> =     0.0000     [    0.0000]
 d_dipole_y/<atom=   8,x> =    -0.0816     [   -0.3921]
 d_dipole_y/<atom=   8,y> =    -0.0204     [   -0.0978]
 d_dipole_y/<atom=   8,z> =    -0.0000     [   -0.0000]
 d_dipole_y/<atom=   9,x> =    -0.0401     [   -0.1927]
 d_dipole_y/<atom=   9,y> =    -0.0491     [   -0.2360]
 d_dipole_y/<atom=   9,z> =     0.0000     [    0.0000]
 d_dipole_y/<atom=  10,x> =     0.0408     [    0.1960]
 d_dipole_y/<atom=  10,y> =     0.0503     [    0.2417]
 d_dipole_y/<atom=  10,z> =    -0.0000     [   -0.0000]
 d_dipole_y/<atom=  11,x> =    -0.0401     [   -0.1926]
 d_dipole_y/<atom=  11,y> =     0.0899     [    0.4316]
 d_dipole_y/<atom=  11,z> =     0.0000     [    0.0000]
 d_dipole_y/<atom=  12,x> =     0.0408     [    0.1960]
 d_dipole_y/<atom=  12,y> =    -0.0911     [   -0.4374]
 d_dipole_y/<atom=  12,z> =    -0.0000     [   -0.0000]
  
 Z vector of derivative dipole (au) [debye/angstrom]
 d_dipole_z/<atom=   1,x> =    -0.0000     [   -0.0000]
 d_dipole_z/<atom=   1,y> =    -0.0000     [   -0.0000]
 d_dipole_z/<atom=   1,z> =     0.1154     [    0.5544]
 d_dipole_z/<atom=   2,x> =     0.0000     [    0.0000]
 d_dipole_z/<atom=   2,y> =     0.0000     [    0.0000]
 d_dipole_z/<atom=   2,z> =    -0.1154     [   -0.5544]
 d_dipole_z/<atom=   3,x> =     0.0000     [    0.0000]
 d_dipole_z/<atom=   3,y> =    -0.0000     [   -0.0000]
 d_dipole_z/<atom=   3,z> =    -0.1154     [   -0.5544]
 d_dipole_z/<atom=   4,x> =    -0.0000     [   -0.0000]
 d_dipole_z/<atom=   4,y> =     0.0000     [    0.0000]
 d_dipole_z/<atom=   4,z> =     0.1154     [    0.5544]
 d_dipole_z/<atom=   5,x> =    -0.0000     [   -0.0000]
 d_dipole_z/<atom=   5,y> =     0.0000     [    0.0000]
 d_dipole_z/<atom=   5,z> =    -0.1154     [   -0.5544]
 d_dipole_z/<atom=   6,x> =    -0.0000     [   -0.0000]
 d_dipole_z/<atom=   6,y> =    -0.0000     [   -0.0000]
 d_dipole_z/<atom=   6,z> =     0.1154     [    0.5544]
 d_dipole_z/<atom=   7,x> =     0.0000     [    0.0000]
 d_dipole_z/<atom=   7,y> =    -0.0000     [   -0.0000]
 d_dipole_z/<atom=   7,z> =    -0.1154     [   -0.5544]
 d_dipole_z/<atom=   8,x> =    -0.0000     [   -0.0000]
 d_dipole_z/<atom=   8,y> =    -0.0000     [   -0.0000]
 d_dipole_z/<atom=   8,z> =     0.1154     [    0.5544]
 d_dipole_z/<atom=   9,x> =    -0.0000     [   -0.0000]
 d_dipole_z/<atom=   9,y> =    -0.0000     [   -0.0000]
 d_dipole_z/<atom=   9,z> =    -0.1154     [   -0.5544]
 d_dipole_z/<atom=  10,x> =    -0.0000     [   -0.0000]
 d_dipole_z/<atom=  10,y> =     0.0000     [    0.0000]
 d_dipole_z/<atom=  10,z> =     0.1154     [    0.5544]
 d_dipole_z/<atom=  11,x> =    -0.0000     [   -0.0000]
 d_dipole_z/<atom=  11,y> =     0.0000     [    0.0000]
 d_dipole_z/<atom=  11,z> =    -0.1154     [   -0.5544]
 d_dipole_z/<atom=  12,x> =    -0.0000     [   -0.0000]
 d_dipole_z/<atom=  12,y> =    -0.0000     [   -0.0000]
 d_dipole_z/<atom=  12,z> =     0.1154     [    0.5544]
  
  
 HESSIAN: the Hessian is done


  Vibrational analysis via the FX method 

  See chapter 2 in "Molecular Vibrations" by Wilson, Decius and Cross

  Vib: Default input used 

  Nuclear Hessian passed symmetry test 



 ---------------------------- Atom information ----------------------------
     atom    #        X              Y              Z            mass
 --------------------------------------------------------------------------
    H        1  3.3535383D+00  3.3535383D+00  0.0000000D+00  1.0078250D+00
    C        2  1.8804618D+00  1.8804618D+00  0.0000000D+00  1.2000000D+01
    C        3  2.5687586D+00 -6.8829681D-01  0.0000000D+00  1.2000000D+01
    H        4  4.5810186D+00 -1.2274802D+00  0.0000000D+00  1.0078250D+00
    C        5  6.8829681D-01 -2.5687586D+00  0.0000000D+00  1.2000000D+01
    H        6  1.2274802D+00 -4.5810186D+00  0.0000000D+00  1.0078250D+00
    C        7 -1.8804618D+00 -1.8804618D+00  0.0000000D+00  1.2000000D+01
    H        8 -3.3535383D+00 -3.3535383D+00  0.0000000D+00  1.0078250D+00
    C        9 -2.5687586D+00  6.8829681D-01  0.0000000D+00  1.2000000D+01
    H       10 -4.5810186D+00  1.2274802D+00  0.0000000D+00  1.0078250D+00
    C       11 -6.8829681D-01  2.5687586D+00  0.0000000D+00  1.2000000D+01
    H       12 -1.2274802D+00  4.5810186D+00  0.0000000D+00  1.0078250D+00
 --------------------------------------------------------------------------




          ----------------------------------------------------
          MASS-WEIGHTED NUCLEAR HESSIAN (Hartree/Bohr/Bohr/Kamu)
          ----------------------------------------------------


               1            2            3            4            5            6            7            8            9           10
   ----- ----- ----- ----- -----
    1    1.94427D+02
    2    1.42076D+02  1.94427D+02
    3    2.11691D-08 -1.53356D-08  2.37751D+01
    4   -5.37701D+01 -3.84293D+01  5.22653D-09  5.59426D+01
    5   -3.84293D+01 -5.37701D+01  2.00176D-08  2.50898D+00  5.59426D+01
    6   -3.65907D-08 -4.71509D-08 -9.95573D+00 -4.47668D-08 -2.17631D-09  1.07483D+01
    7    2.32494D+00 -6.30479D+00  1.63594D-08 -1.08446D+01  6.84902D+00  1.87815D-08  5.81159D+01
    8    2.14450D+00 -4.19376D+00 -1.03267D-10  2.13742D+00 -2.64092D+01  1.15847D-08 -1.25450D+00  5.37698D+01
    9   -3.23196D-08 -3.42351D-08  8.88686D-01 -1.49551D-08  8.41600D-09 -5.11239D+00  6.57693D-08 -1.06562D-08  1.07483D+01
   10    6.86894D-01  1.13793D-01 -4.19573D-08 -1.10583D+00 -3.62033D-01 -4.92611D-08 -8.70500D+01  1.92145D+01  3.17331D-08  3.17466D+02
   11   -2.94089D-01  9.99291D-01  6.08100D-09  8.08730D+00 -7.62706D-01  7.57526D-08  1.92145D+01 -2.04893D+01 -5.76545D-08 -7.10373D+01
   12    9.05097D-08  5.01190D-08 -3.80225D+00  4.57380D-08 -9.72738D-08  8.88687D-01  2.48571D-08  1.74658D-08 -9.95576D+00  5.19263D-08
   13    2.40135D-01  8.70150D-01 -1.19436D-08  3.95693D+00 -3.92744D+00  2.47690D-08 -1.86269D+01 -6.63058D+00 -1.88034D-08 -4.36558D+00
   14    5.36061D-01 -1.23360D+00 -6.90764D-10 -5.43037D-01 -3.78598D+00 -7.27580D-08 -1.13422D+01 -1.86271D+01  8.08080D-08  2.44197D+00
   15   -2.97071D-08  5.00650D-09  1.95739D+00 -1.25163D-08  7.40356D-09  7.10590D-01  2.11903D-08 -2.50013D-08 -5.11237D+00 -1.06475D-07
   16    2.57363D-01 -1.06207D+00 -2.12885D-08 -7.37250D-01 -8.22638D-01 -4.12337D-08  2.49661D+00 -6.00736D+00  3.55246D-08  8.43177D-01
   17    4.26256D-01 -8.43951D-01  2.69077D-08 -1.15654D+00 -2.56443D-01  1.78465D-07  2.44187D+00 -4.36515D+00 -1.62332D-07 -2.35123D-02
   18    9.93962D-08  5.57846D-08  2.55377D-01  4.00949D-08 -1.02993D-07  1.95739D+00 -6.88168D-08  6.43531D-08  8.88677D-01  1.78916D-07
   19   -3.95573D-02  2.77917D-01  1.10099D-08 -2.43980D+00  2.36388D+00 -4.99379D-08 -3.78600D+00 -3.92737D+00  3.04462D-08 -2.56315D-01
   20    2.77918D-01 -3.95568D-02  1.69621D-08  2.36388D+00 -2.43980D+00 -3.16348D-08 -5.42945D-01  3.95698D+00  1.17078D-08 -1.15678D+00
   21   -3.10609D-08 -3.06715D-08 -2.49071D-01 -2.16629D-08  1.59020D-08 -6.40478D-01 -2.85534D-09 -5.76267D-09  7.10590D-01 -6.58010D-08
   22    2.33163D-02 -1.05994D-01 -2.32219D-08 -3.96299D-02  2.77894D-01  2.86255D-08 -1.23373D+00  8.69953D-01 -1.41563D-08 -8.43751D-01
   23   -1.05995D-01  2.33159D-02 -1.14436D-08  2.77895D-01 -3.96301D-02  1.06588D-07  5.35958D-01  2.39980D-01 -8.00426D-08  4.26388D-01
   24    9.88601D-08  1.00515D-07 -1.12051D+00  6.08407D-08 -4.11275D-08 -2.49070D-01 -1.08500D-07  7.71357D-08  1.95739D+00  2.31375D-07
   25   -1.23360D+00  5.36061D-01  1.69451D-08 -3.78598D+00 -5.43037D-01  3.54846D-08 -3.92734D-01 -1.18190D+00 -2.60377D-08  2.01086D-01
   26    8.70150D-01  2.40136D-01 -6.91306D-09 -3.92744D+00  3.95693D+00  1.24517D-08 -1.18187D+00 -4.48708D+00 -6.79748D-09 -1.38975D-01
   27   -4.22605D-08 -3.97588D-08  1.95739D+00 -1.38443D-08  2.00769D-08  7.10590D-01  5.05764D-08 -2.94107D-08 -6.40483D-01 -8.00891D-08
   28   -8.43949D-01  4.26260D-01  1.39400D-08 -2.56443D-01 -1.15654D+00 -1.68212D-08  2.00935D-01 -1.38895D-01  4.84601D-08 -6.82889D-02
   29   -1.06207D+00  2.57361D-01  1.56797D-08 -8.22637D-01 -7.37249D-01  5.30194D-08 -1.38962D-01 -2.80301D-01 -6.02140D-08  5.30214D-02
   30    3.70721D-08  9.15935D-08  2.55377D-01  4.25477D-08 -7.51779D-08  1.95739D+00 -7.19212D-08  6.80063D-08 -2.49049D-01  1.81077D-07
   31   -4.19376D+00  2.14450D+00  9.07058D-09 -2.64092D+01  2.13742D+00  2.58311D-08  8.53236D-02  6.16271D+00 -1.17269D-08  4.80570D-01
   32   -6.30479D+00  2.32494D+00 -2.05505D-08  6.84902D+00 -1.08446D+01 -8.47490D-08  2.77855D+00  8.54050D-02  6.69263D-08  4.53613D-01
   33   -3.58762D-08 -2.64300D-08  8.88686D-01 -1.35804D-08  1.07334D-08 -5.11239D+00  2.83486D-08 -1.53800D-08  7.10703D-01 -7.09823D-08
   34    9.99293D-01 -2.94087D-01 -3.04349D-08 -7.62707D-01  8.08730D+00 -2.69886D-08 -1.47411D+00  1.19664D-01  2.50080D-08 -2.93217D-01
   35    1.13789D-01  6.86892D-01 -1.64520D-08 -3.62031D-01 -1.10583D+00  1.54426D-07  4.53507D-01  4.80362D-01 -1.50426D-07 -1.08220D-01
   36    1.14962D-07  1.22170D-07 -3.80225D+00  5.43056D-08 -5.31455D-08  8.88687D-01 -5.40440D-08  5.48590D-08  1.95742D+00  2.35837D-07


              11           12           13           14           15           16           17           18           19           20
   ----- ----- ----- ----- -----
   11    7.13847D+01
   12    3.58529D-08  2.37743D+01
   13   -6.00725D+00  2.32395D-09  5.37698D+01
   14    2.49666D+00 -4.06598D-08 -1.25453D+00  5.81159D+01
   15    3.61746D-08  8.88677D-01 -7.07283D-08 -3.68301D-08  1.07483D+01
   16    3.84271D-01 -7.30251D-08 -2.04893D+01  1.92145D+01 -9.89810D-08  7.13847D+01
   17    8.43034D-01  5.48353D-08  1.92145D+01 -8.70500D+01  1.53009D-07 -7.10374D+01  3.17466D+02
   18   -5.24137D-08 -3.80223D+00 -2.77483D-08  3.62894D-08 -9.95576D+00  4.85172D-08 -1.38085D-07  2.37743D+01
   19   -8.22642D-01 -9.06146D-09 -2.64092D+01  6.84892D+00  1.66504D-08 -7.62701D-01 -3.61906D-01 -3.31034D-08  5.59426D+01
   20   -7.37219D-01  3.12112D-08  2.13730D+00 -1.08446D+01  2.56908D-08  8.08743D+00 -1.10626D+00 -7.09947D-08  2.50898D+00  5.59426D+01
   21    1.11822D-09  1.95739D+00  1.53512D-08 -2.13433D-08 -5.11239D+00 -3.16209D-08  8.03461D-08  8.88688D-01  1.63396D-08 -1.61976D-09
   22   -1.06213D+00 -4.08860D-08 -4.19354D+00 -6.30465D+00 -6.70305D-08  9.99234D-01  1.13892D-01  8.28576D-08 -5.37701D+01 -3.84294D+01
   23    2.57317D-01  4.07908D-08  2.14478D+00  2.32503D+00  2.53460D-08 -2.94178D-01  6.87097D-01  5.87749D-08 -3.84294D+01 -5.37701D+01
   24   -8.48351D-08  2.55377D-01 -3.48747D-08  2.18037D-08  8.88686D-01  8.23618D-08 -1.42539D-07 -3.80225D+00 -8.01716D-08 -1.90395D-08
   25   -1.38950D-01  9.98283D-08  8.54042D-02  2.77855D+00  1.00950D-07 -1.47411D+00  4.53614D-01 -5.34204D-08 -1.08446D+01  6.84902D+00
   26   -2.80240D-01 -2.34467D-08  6.16271D+00  8.53233D-02 -2.70732D-08  1.19546D-01  4.80570D-01 -1.17823D-08  2.13742D+00 -2.64092D+01
   27    2.11957D-08 -2.49050D-01  8.90848D-09 -1.07254D-08  7.10703D-01  5.06404D-09  1.78919D-08  1.95742D+00  1.42186D-08  7.98418D-09
   28    5.29465D-02 -1.66539D-07  4.80363D-01  4.53508D-01 -2.47881D-07 -2.93330D-01 -1.08222D-01  1.34048D-07 -1.10583D+00 -3.62032D-01
   29    1.15112D-01  2.57739D-08  1.19664D-01 -1.47411D+00  9.78606D-08  1.37999D+00 -2.93222D-01  1.66110D-08  8.08730D+00 -7.62707D-01
   30   -5.80315D-08 -1.12052D+00 -6.61648D-08  5.56221D-08  1.95742D+00  9.50222D-08 -2.06635D-07  2.55410D-01 -3.83015D-08  3.75835D-08
   31    1.19546D-01  5.78580D-08 -4.48708D+00 -1.18187D+00  1.08465D-08 -2.80239D-01 -1.38977D-01  3.07948D-08  3.95693D+00 -3.92744D+00
   32   -1.47411D+00 -1.06841D-07 -1.18190D+00 -3.92736D-01 -5.34457D-08 -1.38950D-01  2.01092D-01  2.16821D-08 -5.43039D-01 -3.78598D+00
   33    2.24921D-08  1.95742D+00  6.48764D-09 -8.14107D-11 -6.40483D-01 -2.49755D-08  6.88204D-08 -2.49050D-01  2.99952D-09 -5.60418D-09
   34    1.37999D+00 -4.57044D-08 -2.80301D-01 -1.38964D-01 -8.33842D-08  1.15112D-01  5.30244D-02  1.31273D-08 -7.37250D-01 -8.22637D-01
   35   -2.93332D-01  7.12706D-08 -1.38895D-01  2.00942D-01  7.34452D-08  5.29487D-02 -6.83073D-02  7.30453D-08 -1.15654D+00 -2.56444D-01
   36   -7.46973D-08  2.55410D-01 -4.71647D-08  3.04500D-08 -2.49049D-01  1.40815D-07 -2.38506D-07 -1.12052D+00 -6.34839D-08 -1.20544D-08


              21           22           23           24           25           26           27           28           29           30
   ----- ----- ----- ----- -----
   21    1.07483D+01
   22    6.37113D-08  1.94427D+02
   23    2.02890D-08  1.42076D+02  1.94427D+02
   24   -9.95573D+00  1.63784D-07  1.81596D-07  2.37751D+01
   25   -3.63605D-08  2.32494D+00 -6.30479D+00 -2.49709D-08  5.81159D+01
   26    7.73353D-09  2.14450D+00 -4.19376D+00  9.08367D-09 -1.25450D+00  5.37698D+01
   27   -5.11239D+00 -3.39915D-08 -2.11717D-08  8.88686D-01 -5.82748D-08 -2.42494D-08  1.07483D+01
   28    1.25983D-07  6.86886D-01  1.13786D-01  1.09176D-07 -8.70500D+01  1.92145D+01  1.66741D-07  3.17466D+02
   29   -3.51318D-08 -2.94089D-01  9.99292D-01 -3.21277D-08  1.92145D+01 -2.04893D+01  6.55311D-09 -7.10373D+01  7.13847D+01
   30    8.88687D-01  1.52289D-07  1.29159D-07 -3.80225D+00  4.67608D-09 -3.74392D-08 -9.95576D+00  8.12538D-08 -7.39090D-10  2.37743D+01
   31   -1.02367D-08  2.40134D-01  8.70149D-01  7.05760D-09 -1.86269D+01 -6.63058D+00  3.90540D-08 -4.36558D+00 -6.00725D+00 -6.74854D-09
   32    2.31406D-09  5.36065D-01 -1.23360D+00 -1.87533D-11 -1.13422D+01 -1.86271D+01 -4.65406D-08  2.44197D+00  2.49666D+00 -6.23195D-08
   33    7.10590D-01 -1.88132D-08 -4.26027D-08  1.95739D+00 -8.89650D-09  4.25769D-09 -5.11237D+00 -4.53343D-09  3.72379D-09  8.88677D-01
   34    4.60553D-08  2.57362D-01 -1.06207D+00  1.71156D-08  2.49661D+00 -6.00736D+00  4.08433D-08  8.43175D-01  3.84272D-01 -4.70432D-08
   35   -1.85886D-08  4.26249D-01 -8.43955D-01 -4.69215D-08  2.44187D+00 -4.36515D+00  1.08144D-07 -2.35150D-02  8.43034D-01  7.05568D-08
   36    1.95739D+00  1.04012D-07  1.47212D-07  2.55377D-01  3.43106D-08 -5.37234D-08  8.88677D-01 -5.69154D-08  5.14315D-08 -3.80223D+00


              31           32           33           34           35           36
   ----- ----- ----- ----- -----
   31    5.37698D+01
   32   -1.25453D+00  5.81159D+01
   33    4.61330D-08  5.58493D-08  1.07483D+01
   34   -2.04893D+01  1.92145D+01  2.80495D-08  7.13847D+01
   35    1.92145D+01 -8.70500D+01 -2.85882D-07 -7.10374D+01  3.17466D+02
   36   -8.89350D-08 -4.01262D-08 -9.95576D+00 -1.19975D-08  2.24134D-07  2.37743D+01



          -------------------------------------------------
          NORMAL MODE EIGENVECTORS IN CARTESIAN COORDINATES
          -------------------------------------------------
                 (Frequencies expressed in cm-1)

                    1           2           3           4           5           6
 
 Frequency        -11.68      -11.39      -10.36      -10.05       -9.85       -8.58
 
           1     0.00000     0.00000    -0.00001    -0.08138    -0.07982    -0.13135
           2    -0.00000     0.00000     0.00001     0.08096    -0.08026     0.13134
           3    -0.00003    -0.26413     0.11320    -0.00001     0.00000    -0.00000
           4     0.00000     0.00000    -0.00001    -0.08088    -0.07982    -0.07334
           5    -0.00000    -0.00000     0.00001     0.08046    -0.08026     0.07334
           6    -0.00002    -0.14807     0.11317    -0.00001     0.00000    -0.00000
           7    -0.00000     0.00000    -0.00000    -0.08002    -0.07983     0.02778
           8    -0.00000    -0.00000     0.00001     0.08069    -0.08026     0.10043
           9    -0.12822    -0.07403     0.11318    -0.00001     0.00000    -0.00000
          10    -0.00000     0.00000    -0.00000    -0.07983    -0.07983     0.04901
          11    -0.00000     0.00000     0.00001     0.08138    -0.08027     0.17967
          12    -0.22875    -0.13205     0.11322    -0.00001     0.00000    -0.00000
          13    -0.00000     0.00000    -0.00000    -0.07938    -0.07983     0.10180
          14    -0.00000    -0.00000     0.00001     0.08006    -0.08025     0.02640
          15    -0.12821     0.07402     0.11320    -0.00001     0.00000    -0.00000
          16    -0.00000     0.00000    -0.00000    -0.07871    -0.07985     0.18105
          17    -0.00000    -0.00000     0.00001     0.08024    -0.08026     0.04764
          18    -0.22872     0.13207     0.11326    -0.00001     0.00000    -0.00001
          19    -0.00000     0.00000    -0.00000    -0.07961    -0.07984     0.07471
          20     0.00000    -0.00000     0.00001     0.07919    -0.08025    -0.07472
          21     0.00002     0.14803     0.11321    -0.00001     0.00000    -0.00000
          22    -0.00000     0.00000    -0.00000    -0.07912    -0.07984     0.13271
          23     0.00000    -0.00000     0.00001     0.07870    -0.08024    -0.13272
          24     0.00003     0.26409     0.11328    -0.00001     0.00000    -0.00000
          25    -0.00000     0.00000    -0.00001    -0.08048    -0.07983    -0.02641
          26     0.00000    -0.00000     0.00001     0.07896    -0.08024    -0.10181
          27     0.12823     0.07399     0.11320    -0.00001     0.00000    -0.00000
          28     0.00000     0.00000    -0.00001    -0.08066    -0.07983    -0.04765
          29     0.00000    -0.00000     0.00001     0.07828    -0.08024    -0.18105
          30     0.22875     0.13201     0.11326    -0.00001     0.00000    -0.00000
          31     0.00000     0.00000    -0.00001    -0.08111    -0.07982    -0.10044
          32     0.00000    -0.00000     0.00001     0.07960    -0.08025    -0.02779
          33     0.12821    -0.07406     0.11318    -0.00001     0.00000    -0.00000
          34     0.00000     0.00000    -0.00001    -0.08180    -0.07982    -0.17968
          35     0.00000    -0.00000     0.00001     0.07941    -0.08025    -0.04902
          36     0.22872    -0.13210     0.11322    -0.00001     0.00000     0.00000

                    7           8           9          10          11          12
 
 Frequency        400.00      400.01      598.51      598.51      667.64      707.78
 
           1     0.00000    -0.00000     0.06624     0.10310    -0.00000     0.00000
           2     0.00000     0.00000    -0.06589     0.10332    -0.00000    -0.00000
           3    -0.00002     0.31267     0.00000    -0.00000    -0.39057     0.19283
           4     0.00000    -0.00000    -0.04362     0.10356    -0.00000     0.00000
           5     0.00000     0.00000     0.04397     0.10342    -0.00000     0.00000
           6    -0.00001     0.13988    -0.00000     0.00000     0.03281     0.10376
           7     0.00000     0.00000    -0.13054    -0.05658     0.00000    -0.00000
           8     0.00000     0.00000     0.00301     0.07074    -0.00000    -0.00000
           9     0.12114    -0.06993    -0.00000     0.00000     0.03282    -0.10376
          10     0.00000     0.00000    -0.11016    -0.09124     0.00000    -0.00000
          11     0.00000    -0.00000     0.07774    -0.05940     0.00000    -0.00000
          12     0.27080    -0.15634     0.00000    -0.00000    -0.39058    -0.19285
          13     0.00000    -0.00000     0.00277    -0.07075     0.00000    -0.00000
          14    -0.00000     0.00000    -0.13035     0.05702    -0.00000    -0.00000
          15    -0.12114    -0.06995    -0.00000     0.00000     0.03282     0.10376
          16     0.00000    -0.00000     0.07794     0.05914     0.00000     0.00000
          17    -0.00000     0.00000    -0.10985     0.09161    -0.00000    -0.00000
          18    -0.27079    -0.15636     0.00000    -0.00000    -0.39058     0.19285
          19     0.00000    -0.00000     0.04362    -0.10356     0.00000    -0.00000
          20    -0.00000     0.00000    -0.04397    -0.10342     0.00000    -0.00000
          21    -0.00001     0.13988     0.00000     0.00000     0.03281    -0.10376
          22     0.00000     0.00000    -0.06624    -0.10310     0.00000     0.00000
          23    -0.00000    -0.00000     0.06589    -0.10332     0.00000    -0.00000
          24    -0.00002     0.31267     0.00000    -0.00000    -0.39057    -0.19283
          25     0.00000    -0.00000     0.13054     0.05658    -0.00000     0.00000
          26    -0.00000     0.00000    -0.00301    -0.07074     0.00000    -0.00000
          27     0.12114    -0.06993    -0.00000     0.00000     0.03282     0.10376
          28     0.00000    -0.00000     0.11016     0.09125    -0.00000    -0.00000
          29    -0.00000     0.00000    -0.07774     0.05940    -0.00000    -0.00000
          30     0.27080    -0.15634    -0.00000    -0.00000    -0.39058     0.19285
          31     0.00000    -0.00000    -0.00277     0.07075    -0.00000     0.00000
          32     0.00000    -0.00000     0.13035    -0.05702     0.00000     0.00000
          33    -0.12114    -0.06995     0.00000     0.00000     0.03282    -0.10376
          34    -0.00000    -0.00000    -0.07794    -0.05914    -0.00000    -0.00000
          35    -0.00000    -0.00000     0.10985    -0.09161     0.00000    -0.00000
          36    -0.27079    -0.15636     0.00000    -0.00000    -0.39058    -0.19285

                   13          14          15          16          17          18
 
 Frequency        835.36      835.36      956.95      956.96      978.57      989.96
 
           1    -0.00000    -0.00000     0.00000     0.00000    -0.07926    -0.00000
           2     0.00000    -0.00000    -0.00000     0.00000    -0.07926     0.00000
           3     0.00013     0.51087    -0.00002    -0.48268    -0.00000     0.35804
           4     0.00000    -0.00000     0.00000     0.00000    -0.08011     0.00000
           5     0.00000    -0.00000    -0.00000     0.00000    -0.08011     0.00000
           6    -0.00002    -0.07654     0.00000     0.09062     0.00000    -0.05589
           7     0.00000    -0.00000     0.00000    -0.00000     0.10943     0.00000
           8    -0.00000     0.00000    -0.00000    -0.00000    -0.02932    -0.00000
           9    -0.06630    -0.03826    -0.07848    -0.04531     0.00000     0.05589
          10     0.00000     0.00000     0.00000    -0.00000     0.10828     0.00000
          11    -0.00000     0.00000    -0.00000    -0.00000    -0.02899     0.00000
          12     0.44249     0.25533     0.41801     0.24132     0.00000    -0.35802
          13    -0.00000     0.00000     0.00000    -0.00000    -0.02932     0.00000
          14    -0.00000    -0.00000     0.00000    -0.00000     0.10942    -0.00000
          15    -0.06628     0.03829     0.07848    -0.04531    -0.00000    -0.05589
          16     0.00000     0.00000     0.00000    -0.00000    -0.02899     0.00000
          17    -0.00000    -0.00000     0.00000    -0.00000     0.10827    -0.00000
          18     0.44236    -0.25555    -0.41800     0.24134     0.00000     0.35802
          19     0.00000     0.00000    -0.00000     0.00000    -0.08011    -0.00000
          20     0.00000    -0.00000    -0.00000     0.00000    -0.08011    -0.00000
          21     0.00002     0.07654     0.00000     0.09062    -0.00000     0.05589
          22     0.00000     0.00000    -0.00000     0.00000    -0.07927    -0.00000
          23     0.00000    -0.00000    -0.00000     0.00000    -0.07926     0.00000
          24    -0.00013    -0.51087    -0.00002    -0.48268     0.00000    -0.35804
          25     0.00000    -0.00000    -0.00000    -0.00000     0.10942    -0.00000
          26    -0.00000     0.00000     0.00000    -0.00000    -0.02932     0.00000
          27     0.06630     0.03826    -0.07848    -0.04531     0.00000    -0.05589
          28     0.00000    -0.00000    -0.00000    -0.00000     0.10827    -0.00000
          29    -0.00000    -0.00000     0.00000    -0.00000    -0.02899     0.00000
          30    -0.44249    -0.25533     0.41801     0.24132    -0.00000     0.35802
          31    -0.00000     0.00000    -0.00000    -0.00000    -0.02932    -0.00000
          32    -0.00000     0.00000     0.00000    -0.00000     0.10943     0.00000
          33     0.06628    -0.03829     0.07848    -0.04531    -0.00000     0.05589
          34    -0.00000     0.00000     0.00000    -0.00000    -0.02899    -0.00000
          35    -0.00000     0.00000     0.00000    -0.00000     0.10828     0.00000
          36    -0.44236     0.25555    -0.41800     0.24134     0.00000    -0.35802

                   19          20          21          22          23          24
 
 Frequency        993.39     1028.28     1028.28     1126.61     1148.03     1148.03
 
           1     0.08735     0.06138    -0.30774    -0.28342    -0.01389     0.38462
           2     0.08735     0.07324     0.30513     0.28342     0.02181    -0.38425
           3    -0.00000     0.00000    -0.00000    -0.00000    -0.00000    -0.00000
           4     0.07939     0.06126    -0.04319    -0.01409     0.00254     0.03797
           5     0.07939     0.06288     0.04079     0.01409     0.00605    -0.03758
           6     0.00000    -0.00000     0.00000     0.00000     0.00000     0.00000
           7     0.10846     0.03066     0.08056    -0.00516     0.00848     0.01241
           8    -0.02906    -0.06087     0.01019    -0.01924     0.04434     0.02655
           9    -0.00000     0.00000    -0.00000     0.00000    -0.00000    -0.00000
          10     0.11932    -0.04853     0.13670    -0.10374     0.11567     0.08057
          11    -0.03197    -0.37120     0.19522    -0.38716     0.44339     0.28247
          12     0.00000    -0.00000     0.00000    -0.00000     0.00000     0.00000
          13     0.02906    -0.06121    -0.00782     0.01924    -0.04661     0.02233
          14    -0.10846     0.02752    -0.08168     0.00515    -0.00960     0.01157
          15     0.00000     0.00000     0.00000    -0.00000    -0.00000     0.00000
          16     0.03198    -0.37848    -0.18071     0.38715    -0.46765     0.24018
          17    -0.11933    -0.05378    -0.13472     0.10374    -0.12264     0.06951
          18    -0.00000    -0.00000    -0.00000    -0.00000    -0.00000    -0.00000
          19    -0.07939     0.06126    -0.04319    -0.01409    -0.00254    -0.03797
          20    -0.07939     0.06288     0.04079     0.01409    -0.00605     0.03758
          21    -0.00000    -0.00000    -0.00000    -0.00000     0.00000    -0.00000
          22    -0.08735     0.06138    -0.30774    -0.28341     0.01389    -0.38462
          23    -0.08735     0.07324     0.30513     0.28341    -0.02181     0.38425
          24     0.00000     0.00000     0.00000     0.00000    -0.00000     0.00000
          25    -0.10846     0.03066     0.08056    -0.00515    -0.00848    -0.01241
          26     0.02906    -0.06087     0.01019    -0.01924    -0.04434    -0.02655
          27     0.00000    -0.00000     0.00000     0.00000     0.00000    -0.00000
          28    -0.11933    -0.04853     0.13670    -0.10374    -0.11568    -0.08057
          29     0.03198    -0.37120     0.19522    -0.38715    -0.44339    -0.28247
          30    -0.00000     0.00000    -0.00000    -0.00000    -0.00000    -0.00000
          31    -0.02906    -0.06121    -0.00782     0.01924     0.04661    -0.02233
          32     0.10846     0.02752    -0.08168     0.00515     0.00960    -0.01157
          33    -0.00000     0.00000    -0.00000    -0.00000    -0.00000    -0.00000
          34    -0.03197    -0.37848    -0.18071     0.38715     0.46765    -0.24017
          35     0.11932    -0.05378    -0.13472     0.10374     0.12264    -0.06951
          36     0.00000    -0.00000     0.00000     0.00000    -0.00000     0.00000

                   25          26          27          28          29          30
 
 Frequency       1313.34     1358.24     1458.35     1458.36     1598.90     1598.90
 
           1     0.25545    -0.04861     0.06852    -0.25287    -0.11225    -0.05394
           2    -0.25545     0.04861     0.05177     0.25683     0.11480    -0.04828
           3     0.00000    -0.00000    -0.00000    -0.00000    -0.00000     0.00000
           4    -0.03826     0.08213     0.04660     0.07715     0.10376    -0.04267
           5     0.03826    -0.08213     0.05156    -0.07393    -0.10150    -0.04779
           6     0.00000     0.00000     0.00000     0.00000    -0.00000    -0.00000
           7     0.01401     0.03006     0.01194    -0.07157    -0.03631     0.06256
           8     0.05227     0.11220    -0.09716    -0.03927     0.08161     0.11524
           9    -0.00000    -0.00000    -0.00000    -0.00000    -0.00000     0.00000
          10    -0.09350    -0.01779     0.12267    -0.02051    -0.08121    -0.00310
          11    -0.34894    -0.06639     0.28414     0.20268    -0.05775    -0.14518
          12    -0.00000     0.00000    -0.00000     0.00000     0.00000    -0.00000
          13     0.05227    -0.11220    -0.09953     0.03281     0.08726    -0.11102
          14     0.01401    -0.03006     0.00722     0.07220    -0.03315    -0.06429
          15    -0.00000     0.00000     0.00000     0.00000    -0.00000     0.00000
          16    -0.34894     0.06639     0.29683    -0.18358    -0.06492     0.14212
          17    -0.09350     0.01779     0.12106     0.02851    -0.08127    -0.00095
          18     0.00000     0.00000     0.00000     0.00000     0.00000     0.00000
          19     0.03826     0.08213     0.04660     0.07715    -0.10376     0.04267
          20    -0.03826    -0.08213     0.05156    -0.07393     0.10150     0.04779
          21     0.00000    -0.00000     0.00000    -0.00000    -0.00000    -0.00000
          22    -0.25545    -0.04860     0.06852    -0.25288     0.11225     0.05394
          23     0.25545     0.04861     0.05177     0.25683    -0.11480     0.04828
          24    -0.00000     0.00000     0.00000    -0.00000     0.00000     0.00000
          25    -0.01401     0.03006     0.01194    -0.07157     0.03631    -0.06256
          26    -0.05227     0.11220    -0.09716    -0.03927    -0.08161    -0.11524
          27     0.00000    -0.00000     0.00000    -0.00000    -0.00000     0.00000
          28     0.09350    -0.01779     0.12267    -0.02051     0.08121     0.00310
          29     0.34894    -0.06639     0.28414     0.20268     0.05775     0.14518
          30    -0.00000     0.00000     0.00000    -0.00000     0.00000     0.00000
          31    -0.05227    -0.11220    -0.09953     0.03281    -0.08726     0.11102
          32    -0.01401    -0.03006     0.00722     0.07220     0.03315     0.06429
          33    -0.00000    -0.00000    -0.00000     0.00000    -0.00000     0.00000
          34     0.34894     0.06639     0.29683    -0.18358     0.06492    -0.14212
          35     0.09350     0.01779     0.12106     0.02851     0.08127     0.00095
          36     0.00000     0.00000     0.00000    -0.00000     0.00000     0.00000

                   31          32          33          34          35          36
 
 Frequency       3086.41     3096.06     3096.07     3110.18     3110.19     3119.34
 
           1    -0.27631     0.02369    -0.38922    -0.00344     0.38840     0.27406
           2    -0.27631     0.02631    -0.38905     0.00231     0.38841     0.27406
           3     0.00000    -0.00000    -0.00000    -0.00000    -0.00000    -0.00000
           4     0.02296    -0.00066     0.03338     0.00255    -0.03487    -0.02532
           5     0.02296    -0.00362     0.03319    -0.00245    -0.03488    -0.02532
           6     0.00000    -0.00000     0.00000    -0.00000     0.00000    -0.00000
           7    -0.03138    -0.03762    -0.02573    -0.04167    -0.02308    -0.03457
           8     0.00841     0.01129     0.00509     0.00933     0.00935     0.00926
           9    -0.00000    -0.00000    -0.00000     0.00000    -0.00000    -0.00000
          10     0.37766     0.44304     0.29591     0.45956     0.26497     0.37414
          11    -0.10119    -0.11978    -0.07768    -0.12103    -0.07464    -0.10025
          12    -0.00000     0.00000     0.00000    -0.00000     0.00000     0.00000
          13     0.00841     0.01184    -0.00360    -0.00936     0.00932    -0.00927
          14    -0.03139    -0.04060     0.02071     0.04174    -0.02296     0.03458
          15    -0.00000     0.00000     0.00000    -0.00000    -0.00000     0.00000
          16    -0.10120    -0.12873     0.06172     0.12125    -0.07427     0.10026
          17     0.37768     0.47724    -0.23677    -0.46033     0.26358    -0.37419
          18     0.00000    -0.00000     0.00000     0.00000     0.00000     0.00000
          19     0.02296     0.00066    -0.03338     0.00255    -0.03487     0.02532
          20     0.02296     0.00362    -0.03319    -0.00245    -0.03488     0.02532
          21     0.00000    -0.00000    -0.00000     0.00000     0.00000    -0.00000
          22    -0.27635    -0.02369     0.38917    -0.00344     0.38841    -0.27408
          23    -0.27635    -0.02632     0.38900     0.00231     0.38841    -0.27408
          24    -0.00000     0.00000     0.00000     0.00000     0.00000     0.00000
          25    -0.03138     0.03763     0.02573    -0.04167    -0.02308     0.03457
          26     0.00841    -0.01129    -0.00509     0.00933     0.00935    -0.00926
          27     0.00000    -0.00000    -0.00000    -0.00000    -0.00000    -0.00000
          28     0.37763    -0.44311    -0.29589     0.45955     0.26488    -0.37417
          29    -0.10119     0.11980     0.07768    -0.12103    -0.07462     0.10026
          30    -0.00000    -0.00000     0.00000     0.00000     0.00000     0.00000
          31     0.00841    -0.01185     0.00360    -0.00936     0.00932     0.00926
          32    -0.03138     0.04061    -0.02071     0.04174    -0.02296    -0.03457
          33    -0.00000     0.00000    -0.00000     0.00000    -0.00000    -0.00000
          34    -0.10118     0.12875    -0.06172     0.12125    -0.07427    -0.10026
          35     0.37761    -0.47730     0.23679    -0.46033     0.26358     0.37417
          36    -0.00000    -0.00000     0.00000     0.00000     0.00000     0.00000
  
  
 ----------------------------------------------------------------------------
 Normal Eigenvalue ||                 Infra Red Intensities
  Mode   [cm**-1]  || [atomic units] [(debye/angs)**2] [(KM/mol)] [arbitrary]
 ------ ---------- || -------------- ----------------- ---------- -----------
    1      -11.678 ||    0.000000           0.000         0.000       0.000
    2      -11.391 ||    0.000000           0.000         0.000       0.000
    3      -10.357 ||    0.000000           0.000         0.000       0.000
    4      -10.052 ||    0.000000           0.000         0.000       0.000
    5       -9.849 ||    0.000000           0.000         0.000       0.000
    6       -8.584 ||    0.000000           0.000         0.000       0.000
    7      399.995 ||    0.000000           0.000         0.000       0.000
    8      400.006 ||    0.000000           0.000         0.000       0.000
    9      598.507 ||    0.000000           0.000         0.000       0.000
   10      598.511 ||    0.000000           0.000         0.000       0.000
   11      667.644 ||    0.085967           1.983        83.805     174.757
   12      707.778 ||    0.000000           0.000         0.000       0.000
   13      835.357 ||    0.000000           0.000         0.000       0.000
   14      835.364 ||    0.000000           0.000         0.000       0.000
   15      956.949 ||    0.000000           0.000         0.000       0.000
   16      956.955 ||    0.000000           0.000         0.000       0.000
   17      978.566 ||    0.000000           0.000         0.000       0.000
   18      989.960 ||    0.000000           0.000         0.000       0.000
   19      993.391 ||    0.000000           0.000         0.000       0.000
   20     1028.276 ||    0.005130           0.118         5.001      10.429
   21     1028.280 ||    0.005130           0.118         5.001      10.429
   22     1126.614 ||    0.000000           0.000         0.000       0.000
   23     1148.029 ||    0.000000           0.000         0.000       0.000
   24     1148.031 ||    0.000000           0.000         0.000       0.000
   25     1313.337 ||    0.000000           0.000         0.000       0.000
   26     1358.236 ||    0.000000           0.000         0.000       0.000
   27     1458.353 ||    0.006463           0.149         6.300      13.138
   28     1458.356 ||    0.006465           0.149         6.303      13.143
   29     1598.898 ||    0.000000           0.000         0.000       0.000
   30     1598.900 ||    0.000000           0.000         0.000       0.000
   31     3086.411 ||    0.000000           0.000         0.000       0.000
   32     3096.060 ||    0.000000           0.000         0.000       0.000
   33     3096.070 ||    0.000000           0.000         0.000       0.000
   34     3110.181 ||    0.033966           0.784        33.112      69.047
   35     3110.191 ||    0.033971           0.784        33.116      69.057
   36     3119.344 ||    0.000000           0.000         0.000       0.000
 ----------------------------------------------------------------------------





        Vibrational analysis via the FX method 
  --- with translations and rotations projected out ---
  --- via the Eckart algorithm                      ---

          --------------------------------------------------------
          MASS-WEIGHTED PROJECTED HESSIAN (Hartree/Bohr/Bohr/Kamu)
          --------------------------------------------------------


               1            2            3            4            5            6            7            8            9           10
   ----- ----- ----- ----- -----
    1    1.94426D+02
    2    1.42075D+02  1.94426D+02
    3    6.05258D-08  2.24014D-08  2.37759D+01
    4   -5.37694D+01 -3.84288D+01  4.50077D-08  5.59431D+01
    5   -3.84288D+01 -5.37694D+01  1.78823D-08  2.50936D+00  5.59431D+01
    6   -1.78009D-08 -3.44731D-08 -9.95378D+00 -3.35816D-08  1.69991D-10  1.07491D+01
    7    2.32606D+00 -6.30529D+00 -7.36056D-08 -1.08440D+01  6.84910D+00  3.39825D-09  5.81167D+01
    8    2.14391D+00 -4.19357D+00  3.93556D-09  2.13749D+00 -2.64088D+01  1.32289D-08 -1.25472D+00  5.37699D+01
    9   -2.46954D-08 -4.33080D-08  8.89898D-01 -9.87292D-09  1.10679D-08 -5.11181D+00  4.40531D-08 -1.37428D-08  1.07491D+01
   10    6.84787D-01  1.13954D-01  2.91272D-08 -1.10542D+00 -3.61253D-01 -2.32361D-08 -8.70490D+01  1.92143D+01  2.45820D-08  3.17464D+02
   11   -2.95142D-01  9.99271D-01 -6.75929D-08  8.08793D+00 -7.61890D-01  6.73899D-08  1.92141D+01 -2.04889D+01 -8.78582D-08 -7.10364D+01
   12    4.65955D-08  1.32144D-07 -3.80187D+00  5.89896D-08 -6.11514D-08  8.90028D-01 -6.64653D-08  3.58943D-08 -9.95382D+00  6.79041D-08
   13    2.40055D-01  8.69832D-01 -1.27295D-08  3.95722D+00 -3.92733D+00  3.11079D-08 -1.86265D+01 -6.63076D+00 -1.77198D-08 -4.36561D+00
   14    5.35552D-01 -1.23246D+00  1.46136D-08 -5.42953D-01 -3.78537D+00 -6.80281D-08 -1.13424D+01 -1.86266D+01  8.23541D-08  2.44168D+00
   15   -8.55885D-09  1.84837D-08  1.95738D+00 -2.77622D-09  1.58225D-08  7.10801D-01  2.50316D-08 -2.36747D-08 -5.11179D+00 -6.06584D-08
   16    2.55476D-01 -1.06124D+00  2.69083D-08 -7.36667D-01 -8.21775D-01 -1.88257D-08  2.49788D+00 -6.00745D+00  1.85182D-08  8.42199D-01
   17    4.25855D-01 -8.45515D-01 -8.32818D-08 -1.15584D+00 -2.55959D-01  1.59031D-07  2.44151D+00 -4.36517D+00 -1.92040D-07 -2.30147D-02
   18    8.63405D-08  6.13857D-08  2.54303D-01  3.97497D-08 -6.66588D-08  1.95740D+00 -9.23572D-08  6.20053D-08  8.89985D-01  1.77831D-07
   19   -3.90468D-02  2.78570D-01  3.14778D-08 -2.43936D+00  2.36428D+00 -4.22742D-08 -3.78539D+00 -3.92726D+00  2.36294D-08 -2.55823D-01
   20    2.78587D-01 -3.90619D-02  1.55575D-08  2.36428D+00 -2.43937D+00 -3.10185D-08 -5.42860D-01  3.95726D+00  1.39237D-08 -1.15604D+00
   21   -1.48264D-08 -4.58287D-08 -2.49709D-01 -1.91909D-08  1.80958D-08 -6.40451D-01 -1.63183D-09 -1.13945D-08  7.10801D-01 -6.48513D-08
   22    2.13043D-02 -1.06017D-01  3.20669D-08 -3.91327D-02  2.78560D-01  4.59081D-08 -1.23260D+00  8.69637D-01 -3.67481D-08 -8.45306D-01
   23   -1.06069D-01  2.13304D-02 -4.54288D-08  2.78544D-01 -3.91233D-02  9.77224D-08  5.35434D-01  2.39910D-01 -7.20886D-08  4.25970D-01
   24    9.37680D-08  5.98982D-08 -1.12216D+00  4.74533D-08 -2.60435D-08 -2.49708D-01 -8.05201D-08  5.86577D-08  1.95738D+00  2.13590D-07
[...]
 ramanpol_read: failed to open ./molecule.ramanpol_0005-2
                              NWChem Property Module
                              ----------------------


                                 NWChem DFT Module
                                 -----------------


                                      benzene



  Caching 1-el integrals 
   Time after variat. SCF:    960.2
   Time prior to 1st pass:    960.2

           Memory utilization after 1st SCF pass: 
           Heap Space remaining (MW):       12.11            12114116
          Stack Space remaining (MW):       26.21            26212060

   convergence    iter        energy       DeltaE   RMS-Dens  Diis-err    time
 ---------------- ----- ----------------- --------- --------- ---------  ------
 d= 0,ls=0.0,diis     1   -232.0847818871 -4.34D+02  7.39D-05  3.13D-05   961.3
 d= 0,ls=0.0,diis     2   -232.0847899991 -8.11D-06  4.27D-06  2.72D-08   962.0
 d= 0,ls=0.0,diis     3   -232.0847900007 -1.56D-09  1.58D-06  2.01D-08   962.7


         Total DFT energy =     -232.084790000652
      One electron energy =     -709.874470754815
           Coulomb energy =      310.952633969063
    Exchange-Corr. energy =      -34.613845041157
 Nuclear repulsion energy =      201.450891826257

 Numeric. integr. density =       42.000026732525

     Total iterative time =      2.5s


 *** CALLING NEW AORESP DRIVER FOR CLOSED AND OPEN SHELLS ***
 Entering AOResponse driver routine


--------------------------------------------------------------------------------

          ****************
          *** RESPONSE ***
          ****************

 Response module for NWChem and dynamic CPKS solver
 developed by J. Autschbach and coworkers, SUNY Buffalo
 The methodology used in this program is described in 
 ChemPhysChem 12 (2011), 3224-3235 (main reference)
 J. Chem. Phys. 123 (2005), 114103
 J. Chem. Phys. 122 (2005), 224115
 J. Chem. Phys. 122 (2005), 074105
 Comp. Lett. 3 (2007), 131-150 (contact JA for a copy)
 Please cite this work in publications based on results
 obtained with this code. Thank you!

 For extension of response module to open shell
 calculations please acknowledge:
 F. Aquino, Northwestern University, Schatz Rsrch Group
 The update to the methodology is described in
 J. Phys. Chem. A 118 (2014) 517-525



          -----------------------------------------------
          Solving response equations for perturbing field
          -----------------------------------------------

 number of frequencies:     1
 frequency in a.u.:  0.8855900E-01
 Perturbing field: electric
 Using El. Dipole Length Gauge

 Applying DAMPING constant of  0.007000 a.u.

 Setting up CPKS
 with frequency omega =      0.08855900 a.u.
 and a damping of            0.00700000 a.u.

 SCF residual:    7.1548582653535350E-005
 dft_CPHF2_read: failed to open./molecule.aoresp_fiao_f1

 Electric Dipole Response Matrix (nonzero elements):

              1        2        3      
    1   80.7938  -0.0000  -0.0000
    2   -0.0000  80.7938  -0.0000
    3   -0.0000  -0.0000  28.6037

 Imaginary part:

              1        2        3      
    1    0.7869   0.0000  -0.0000
    2    0.0000   0.7869  -0.0000
    3   -0.0000  -0.0000   0.0666

 ------------------------------------------
 average:        63.39710 + I       0.54682


 DFT Linear Response polarizability / au 
 Frequency  =       0.0885590 / au
 Wavelength =     514.4971488 / nm
              X              Y              Z
 -----------------------------------------------
 X      80.7937938     -0.0000460     -0.0000000
 Y      -0.0000460     80.7937937     -0.0000001
 Z      -0.0000000     -0.0000000     28.6037153
 -----------------------------------------------
 Eigenvalues =      80.7938398     80.7937478     28.6037153
 Isotropic   =      63.3971010
 Anisotropic =      52.1900784
 -----------------------------------------------
 *************************

 DFT Linear Response IMAG polarizability / au 
 Frequency  =       0.0885590 / au
 Wavelength =     514.4971488 / nm
              X              Y              Z
 -----------------------------------------------
 X       0.7869360      0.0000016     -0.0000000
 Y       0.0000016      0.7869360     -0.0000000
 Z      -0.0000000     -0.0000000      0.0665756
 -----------------------------------------------
 Eigenvalues =       0.7869376      0.7869344      0.0665756
 Isotropic   =       0.5468159
 Anisotropic =       0.7203604
 -----------------------------------------------
 *************************

 Magnetic Dipole Response Matrix (nonzero elements):
 Optical rotation tensor Beta

              1        2        3      
    1   -0.0000  -0.0205  -0.0004
    2    0.0205   0.0000   0.0004
    3    0.0002  -0.0002  -0.0000

 Imaginary part:

              1        2        3      
    1   -0.0000  -0.0010  -0.0000
    2    0.0010   0.0000   0.0000
    3    0.0000  -0.0000   0.0000

 ------------------------------------------
 average:         0.00000 + I      -0.00000

 Exiting AOResponse driver routine
 Stepsize :   1.0415449103624493E-002

  667.57  REAL                       0.000000
  667.57  IMAGINARY                  0.000000
  667.57  TOTAL                      0.000000

 Writing mini:./molecule.raman_0007-0036_nblock                                                                                                                                                                                                                              
Writing modecounter=    5
(ii,rminfo(ii,1))=(   12,     0.00000000)
 ramanpolfile=./molecule.ramanpol_0006-1                                                                                                                                                                                                                                     
 ramanpol_read: failed to open ./molecule.ramanpol_0006-1
                              NWChem Property Module
                              ----------------------


                                 NWChem DFT Module
                                 -----------------


                                      benzene



  Caching 1-el integrals 
   Time after variat. SCF:   1038.5
   Time prior to 1st pass:   1038.5

           Memory utilization after 1st SCF pass: 
           Heap Space remaining (MW):       12.11            12114116
          Stack Space remaining (MW):       26.21            26212060

   convergence    iter        energy       DeltaE   RMS-Dens  Diis-err    time
 ---------------- ----- ----------------- --------- --------- ---------  ------
 d= 0,ls=0.0,diis     1   -232.0847805209 -4.34D+02  1.25D-04  2.81D-05  1039.9
 d= 0,ls=0.0,diis     2   -232.0847876202 -7.10D-06  6.18D-06  6.42D-08  1040.8
 d= 0,ls=0.0,diis     3   -232.0847876080  1.21D-08  3.56D-06  1.43D-07  1041.8


         Total DFT energy =     -232.084787608049
      One electron energy =     -709.874284189997
           Coulomb energy =      310.952509724660
    Exchange-Corr. energy =      -34.613841295809
 Nuclear repulsion energy =      201.450828153097

 Numeric. integr. density =       42.000026734710

     Total iterative time =      3.3s


 *** CALLING NEW AORESP DRIVER FOR CLOSED AND OPEN SHELLS ***
 Entering AOResponse driver routine


--------------------------------------------------------------------------------

          ****************
          *** RESPONSE ***
          ****************

 Response module for NWChem and dynamic CPKS solver
 developed by J. Autschbach and coworkers, SUNY Buffalo
 The methodology used in this program is described in 
 ChemPhysChem 12 (2011), 3224-3235 (main reference)
 J. Chem. Phys. 123 (2005), 114103
 J. Chem. Phys. 122 (2005), 224115
 J. Chem. Phys. 122 (2005), 074105
 Comp. Lett. 3 (2007), 131-150 (contact JA for a copy)
 Please cite this work in publications based on results
 obtained with this code. Thank you!

 For extension of response module to open shell
 calculations please acknowledge:
 F. Aquino, Northwestern University, Schatz Rsrch Group
 The update to the methodology is described in
 J. Phys. Chem. A 118 (2014) 517-525



          -----------------------------------------------
          Solving response equations for perturbing field
          -----------------------------------------------

 number of frequencies:     1
 frequency in a.u.:  0.8855900E-01
 Perturbing field: electric
 Using El. Dipole Length Gauge

 Applying DAMPING constant of  0.007000 a.u.

 Setting up CPKS
 with frequency omega =      0.08855900 a.u.
 and a damping of            0.00700000 a.u.

 SCF residual:    2.2289227355000183E-004
 dft_CPHF2_read: failed to open./molecule.aoresp_fiao_f1

 Electric Dipole Response Matrix (nonzero elements):

              1        2        3      
    1   80.7941  -0.0001   0.0000
    2   -0.0001  80.7941   0.0000
    3    0.0000   0.0000  28.6040

 Imaginary part:

              1        2        3      
    1    0.7869   0.0000  -0.0000
    2    0.0000   0.7869  -0.0000
    3   -0.0000   0.0000   0.0666

 ------------------------------------------
 average:        63.39738 + I       0.54682


 DFT Linear Response polarizability / au 
 Frequency  =       0.0885590 / au
 Wavelength =     514.4971488 / nm
              X              Y              Z
 -----------------------------------------------
 X      80.7940883     -0.0000760      0.0000011
 Y      -0.0000760     80.7940883      0.0000011
 Z       0.0000011      0.0000011     28.6039578
 -----------------------------------------------
 Eigenvalues =      80.7941643     80.7940124     28.6039578
 Isotropic   =      63.3973782
 Anisotropic =      52.1901305
 -----------------------------------------------
 *************************

 DFT Linear Response IMAG polarizability / au 
 Frequency  =       0.0885590 / au
 Wavelength =     514.4971488 / nm
              X              Y              Z
 -----------------------------------------------
 X       0.7869464      0.0000006     -0.0000000
 Y       0.0000006      0.7869464     -0.0000000
 Z      -0.0000000      0.0000000      0.0665773
 -----------------------------------------------
 Eigenvalues =       0.7869470      0.7869458      0.0665773
 Isotropic   =       0.5468234
 Anisotropic =       0.7203691
 -----------------------------------------------
 *************************

 Magnetic Dipole Response Matrix (nonzero elements):
 Optical rotation tensor Beta

              1        2        3      
    1    0.0000  -0.0001   0.0012
    2    0.0001  -0.0000  -0.0011
    3   -0.0006   0.0006  -0.0000

 Imaginary part:

              1        2        3      
    1    0.0000  -0.0000   0.0001
    2    0.0000  -0.0000  -0.0001
    3   -0.0001   0.0000  -0.0000

 ------------------------------------------
 average:         0.00000 + I      -0.00000

 Exiting AOResponse driver routine
 ramanpolfile=./molecule.ramanpol_0006-2                                                                                                                                                                                                                                     
 ramanpol_read: failed to open ./molecule.ramanpol_0006-2
                              NWChem Property Module
                              ----------------------


                                 NWChem DFT Module
                                 -----------------


                                      benzene



  Caching 1-el integrals 
   Time after variat. SCF:   1109.7
   Time prior to 1st pass:   1109.7

           Memory utilization after 1st SCF pass: 
           Heap Space remaining (MW):       12.11            12114116
          Stack Space remaining (MW):       26.21            26212060

   convergence    iter        energy       DeltaE   RMS-Dens  Diis-err    time
 ---------------- ----- ----------------- --------- --------- ---------  ------
 d= 0,ls=0.0,diis     1   -232.0847675111 -4.34D+02  2.39D-04  8.12D-05  1110.8
 d= 0,ls=0.0,diis     2   -232.0847875798 -2.01D-05  1.37D-05  3.16D-07  1111.7
 d= 0,ls=0.0,diis     3   -232.0847873980  1.82D-07  8.83D-06  1.25D-06  1112.4
 d= 0,ls=0.0,diis     4   -232.0847876234 -2.25D-07  1.79D-06  4.46D-08  1113.1
 d= 0,ls=0.0,diis     5   -232.0847876305 -7.03D-09  7.79D-08  1.68D-11  1113.9


         Total DFT energy =     -232.084787630450
      One electron energy =     -709.874283441217
           Coulomb energy =      310.952508936083
    Exchange-Corr. energy =      -34.613841279165
 Nuclear repulsion energy =      201.450828153849

 Numeric. integr. density =       42.000026734825

     Total iterative time =      4.2s


 *** CALLING NEW AORESP DRIVER FOR CLOSED AND OPEN SHELLS ***
 Entering AOResponse driver routine


--------------------------------------------------------------------------------

          ****************
          *** RESPONSE ***
          ****************

 Response module for NWChem and dynamic CPKS solver
 developed by J. Autschbach and coworkers, SUNY Buffalo
 The methodology used in this program is described in 
 ChemPhysChem 12 (2011), 3224-3235 (main reference)
 J. Chem. Phys. 123 (2005), 114103
 J. Chem. Phys. 122 (2005), 224115
 J. Chem. Phys. 122 (2005), 074105
 Comp. Lett. 3 (2007), 131-150 (contact JA for a copy)
 Please cite this work in publications based on results
 obtained with this code. Thank you!

 For extension of response module to open shell
 calculations please acknowledge:
 F. Aquino, Northwestern University, Schatz Rsrch Group
 The update to the methodology is described in
 J. Phys. Chem. A 118 (2014) 517-525



          -----------------------------------------------
          Solving response equations for perturbing field
          -----------------------------------------------

 number of frequencies:     1
 frequency in a.u.:  0.8855900E-01
 Perturbing field: electric
 Using El. Dipole Length Gauge

 Applying DAMPING constant of  0.007000 a.u.

 Setting up CPKS
 with frequency omega =      0.08855900 a.u.
 and a damping of            0.00700000 a.u.

 SCF residual:    4.5030863041466557E-006
 dft_CPHF2_read: failed to open./molecule.aoresp_fiao_f1

 Electric Dipole Response Matrix (nonzero elements):

              1        2        3      
    1   80.7941  -0.0001  -0.0000
    2   -0.0001  80.7941  -0.0000
    3   -0.0000  -0.0000  28.6040

 Imaginary part:

              1        2        3      
    1    0.7869   0.0000  -0.0000
    2    0.0000   0.7869  -0.0000
    3   -0.0000  -0.0000   0.0666

 ------------------------------------------
 average:        63.39738 + I       0.54682


 DFT Linear Response polarizability / au 
 Frequency  =       0.0885590 / au
 Wavelength =     514.4971488 / nm
              X              Y              Z
 -----------------------------------------------
 X      80.7940861     -0.0000759     -0.0000011
 Y      -0.0000759     80.7940861     -0.0000011
 Z      -0.0000011     -0.0000011     28.6039567
 -----------------------------------------------
 Eigenvalues =      80.7941620     80.7940102     28.6039567
 Isotropic   =      63.3973763
 Anisotropic =      52.1901294
 -----------------------------------------------
 *************************

 DFT Linear Response IMAG polarizability / au 
 Frequency  =       0.0885590 / au
 Wavelength =     514.4971488 / nm
              X              Y              Z
 -----------------------------------------------
 X       0.7869464      0.0000006     -0.0000000
 Y       0.0000006      0.7869464     -0.0000000
 Z      -0.0000000     -0.0000000      0.0665773
 -----------------------------------------------
 Eigenvalues =       0.7869458      0.7869470      0.0665773
 Isotropic   =       0.5468234
 Anisotropic =       0.7203691
 -----------------------------------------------
 *************************

 Magnetic Dipole Response Matrix (nonzero elements):
 Optical rotation tensor Beta

              1        2        3      
    1    0.0000  -0.0000  -0.0000
    2    0.0000   0.0000   0.0000
    3    0.0000  -0.0000  -0.0000

 Imaginary part:

              1        2        3      
    1    0.0000  -0.0000  -0.0000
    2    0.0000  -0.0000   0.0000
    3    0.0000  -0.0000   0.0000

 ------------------------------------------
 average:        -0.00000 + I       0.00000

 Exiting AOResponse driver routine
 Stepsize :   1.8642685065903296E-002

  707.78  REAL                       0.000000
  707.78  IMAGINARY                  0.000000
  707.78  TOTAL                      0.000000

 Writing mini:./molecule.raman_0007-0036_nblock                                                                                                                                                                                                                              
Writing modecounter=    6
(ii,rminfo(ii,1))=(   13,     0.00000000)
 ramanpolfile=./molecule.ramanpol_0007-1                                                                                                                                                                                                                                     
 ramanpol_read: failed to open ./molecule.ramanpol_0007-1
                              NWChem Property Module
                              ----------------------


                                 NWChem DFT Module
                                 -----------------


                                      benzene



  Caching 1-el integrals 
   Time after variat. SCF:   1178.0
   Time prior to 1st pass:   1178.0

           Memory utilization after 1st SCF pass: 
           Heap Space remaining (MW):       12.11            12114116
          Stack Space remaining (MW):       26.21            26212060

   convergence    iter        energy       DeltaE   RMS-Dens  Diis-err    time
 ---------------- ----- ----------------- --------- --------- ---------  ------
 d= 0,ls=0.0,diis     1   -232.0847821474 -4.34D+02  1.26D-04  2.92D-05  1179.3
 d= 0,ls=0.0,diis     2   -232.0847892464 -7.10D-06  4.84D-06  4.17D-08  1180.2
 d= 0,ls=0.0,diis     3   -232.0847892524 -5.92D-09  1.13D-06  5.56D-09  1181.0


         Total DFT energy =     -232.084789252365
      One electron energy =     -709.874410569862
           Coulomb energy =      310.952579380209
    Exchange-Corr. energy =      -34.613842227283
 Nuclear repulsion energy =      201.450884164571

 Numeric. integr. density =       42.000026730909

     Total iterative time =      3.0s


 *** CALLING NEW AORESP DRIVER FOR CLOSED AND OPEN SHELLS ***
 Entering AOResponse driver routine


--------------------------------------------------------------------------------

          ****************
          *** RESPONSE ***
          ****************

 Response module for NWChem and dynamic CPKS solver
 developed by J. Autschbach and coworkers, SUNY Buffalo
 The methodology used in this program is described in 
 ChemPhysChem 12 (2011), 3224-3235 (main reference)
 J. Chem. Phys. 123 (2005), 114103
 J. Chem. Phys. 122 (2005), 224115
 J. Chem. Phys. 122 (2005), 074105
 Comp. Lett. 3 (2007), 131-150 (contact JA for a copy)
 Please cite this work in publications based on results
 obtained with this code. Thank you!

 For extension of response module to open shell
 calculations please acknowledge:
 F. Aquino, Northwestern University, Schatz Rsrch Group
 The update to the methodology is described in
 J. Phys. Chem. A 118 (2014) 517-525



          -----------------------------------------------
          Solving response equations for perturbing field
          -----------------------------------------------

 number of frequencies:     1
 frequency in a.u.:  0.8855900E-01
 Perturbing field: electric
 Using El. Dipole Length Gauge

 Applying DAMPING constant of  0.007000 a.u.

 Setting up CPKS
 with frequency omega =      0.08855900 a.u.
 and a damping of            0.00700000 a.u.

 SCF residual:    1.2552366148490208E-005
 dft_CPHF2_read: failed to open./molecule.aoresp_fiao_f1
