
     Program PWSCF v.6.7MaX starts on  1Jul2021 at 21:21:15 

     This program is part of the open-source Quantum ESPRESSO suite
     for quantum simulation of materials; please cite
         "P. Giannozzi et al., J. Phys.:Condens. Matter 21 395502 (2009);
         "P. Giannozzi et al., J. Phys.:Condens. Matter 29 465901 (2017);
          URL http://www.quantum-espresso.org", 
     in publications or presentations arising from this work. More details at
     http://www.quantum-espresso.org/quote

     Parallel version (MPI), running on     4 processors

     MPI processes distributed on     1 nodes
     R & G space division:  proc/nbgrp/npool/nimage =       4
     Waiting for input...
     Reading input from standard input

     Current dimensions of program PWSCF are:
     Max number of different atomic species (ntypx) = 10
     Max number of k-points (npk) =  40000
     Max angular momentum in pseudopotentials (lmaxx) =  3
     Message from routine read_pp_mesh:
     mesh size missing, using the one in header

     Subspace diagonalization in iterative solution of the eigenvalue problem:
     one sub-group per band group will be used
     scalapack distributed-memory algorithm (size of sub-group:  2*  2 procs)

 
     Parallelization info
     --------------------
     sticks:   dense  smooth     PW     G-vecs:    dense   smooth      PW
     Min         204     204     63                 3796     3796     641
     Max         205     205     64                 3797     3797     642
     Sum         817     817    253                15185    15185    2565
 


     bravais-lattice index     =            2
     lattice parameter (alat)  =      14.0000  a.u.
     unit-cell volume          =     686.0000 (a.u.)^3
     number of atoms/cell      =            2
     number of atomic types    =            1
     number of electrons       =         8.00
     number of Kohn-Sham states=            4
     kinetic-energy cutoff     =      30.0000  Ry
     charge density cutoff     =     120.0000  Ry
     scf convergence threshold =      1.0E-07
     mixing beta               =       0.7000
     number of iterations used =            8  plain     mixing
     energy convergence thresh.=      1.0E-05
     force convergence thresh. =      1.0E-04
     press convergence thresh. =      5.0E-01
     Exchange-correlation= PBE
                           (   1   4   3   4   0   0   0)
     nstep                     =           50


     celldm(1)=  14.000000  celldm(2)=   0.000000  celldm(3)=   0.000000
     celldm(4)=   0.000000  celldm(5)=   0.000000  celldm(6)=   0.000000

     crystal axes: (cart. coord. in units of alat)
               a(1) = (  -0.500000   0.000000   0.500000 )  
               a(2) = (   0.000000   0.500000   0.500000 )  
               a(3) = (  -0.500000   0.500000   0.000000 )  

     reciprocal axes: (cart. coord. in units 2 pi/alat)
               b(1) = ( -1.000000 -1.000000  1.000000 )  
               b(2) = (  1.000000  1.000000  1.000000 )  
               b(3) = ( -1.000000  1.000000 -1.000000 )  


     PseudoPot. # 1 for Si read from file:
     ./Si_r.upf
     MD5 check sum: c84abb4b0aac9c93a8e9f74896432a0a
     Pseudo is Norm-conserving + core correction, Zval =  4.0
     Generated using ONCVPSP code by D. R. Hamann
     Using radial grid of 1528 points,  6 beta functions with: 
                l(1) =   0
                l(2) =   0
                l(3) =   1
                l(4) =   1
                l(5) =   2
                l(6) =   2

     atomic species   valence    mass     pseudopotential
        Si             4.00    28.08550     Si( 1.00)

     48 Sym. Ops., with inversion, found (24 have fractional translation)



   Cartesian axes

     site n.     atom                  positions (alat units)
         1           Si  tau(   1) = (   0.0000000   0.0000000   0.0000000  )
         2           Si  tau(   2) = (   0.2500000   0.2500000   0.2500000  )

     number of k points=    10
                       cart. coord. in units 2pi/alat
        k(    1) = (   0.0000000   0.0000000   0.0000000), wk =   0.0160000
        k(    2) = (  -0.2000000   0.2000000  -0.2000000), wk =   0.1280000
        k(    3) = (  -0.4000000   0.4000000  -0.4000000), wk =   0.1280000
        k(    4) = (   0.0000000   0.4000000   0.0000000), wk =   0.0960000
        k(    5) = (  -0.2000000   0.6000000  -0.2000000), wk =   0.3840000
        k(    6) = (   0.6000000  -0.2000000   0.6000000), wk =   0.3840000
        k(    7) = (   0.4000000   0.0000000   0.4000000), wk =   0.1920000
        k(    8) = (   0.0000000   0.8000000   0.0000000), wk =   0.0960000
        k(    9) = (   0.8000000   0.0000000   0.8000000), wk =   0.1920000
        k(   10) = (   0.6000000  -0.2000000   1.0000000), wk =   0.3840000

     Dense  grid:    15185 G-vectors     FFT dimensions: (  36,  36,  36)

     Estimated max dynamical RAM per process >       4.84 MB

     Estimated total dynamical RAM >      19.36 MB

     Initial potential from superposition of free atoms

     starting charge    7.99877, renormalised to    8.00000
     Starting wfcs are    8 randomized atomic wfcs

     total cpu time spent up to now is        0.9 secs

     Self-consistent Calculation

     iteration #  1     ecut=    30.00 Ry     beta= 0.70
     Davidson diagonalization with overlap
     ethr =  1.00E-02,  avg # of iterations =  1.0

     Threshold (ethr) on eigenvalues was too large:
     Diagonalizing with lowered threshold

     Davidson diagonalization with overlap
     ethr =  1.42E-04,  avg # of iterations =  2.8

     total cpu time spent up to now is        1.1 secs

     total energy              =     -16.60697572 Ry
     estimated scf accuracy    <       0.01287428 Ry

     iteration #  2     ecut=    30.00 Ry     beta= 0.70
     Davidson diagonalization with overlap
     ethr =  1.61E-04,  avg # of iterations =  1.0

     total cpu time spent up to now is        1.2 secs

     total energy              =     -16.60750548 Ry
     estimated scf accuracy    <       0.00126079 Ry

     iteration #  3     ecut=    30.00 Ry     beta= 0.70
     Davidson diagonalization with overlap
     ethr =  1.58E-05,  avg # of iterations =  1.8

     total cpu time spent up to now is        1.3 secs

     total energy              =     -16.60763054 Ry
     estimated scf accuracy    <       0.00000880 Ry

     iteration #  4     ecut=    30.00 Ry     beta= 0.70
     Davidson diagonalization with overlap
     c_bands:  1 eigenvalues not converged
     c_bands:  1 eigenvalues not converged
     ethr =  1.10E-07,  avg # of iterations =  9.5

     total cpu time spent up to now is        1.6 secs

     total energy              =     -16.60767704 Ry
     estimated scf accuracy    <       0.00000323 Ry

     iteration #  5     ecut=    30.00 Ry     beta= 0.70
     Davidson diagonalization with overlap
     c_bands:  1 eigenvalues not converged
     c_bands:  1 eigenvalues not converged
     ethr =  4.04E-08,  avg # of iterations =  5.8

     total cpu time spent up to now is        1.8 secs

     End of self-consistent calculation

          k = 0.0000 0.0000 0.0000 (  1917 PWs)   bands (ev):

    -8.0167  -4.0084  -0.2085  -0.2085

          k =-0.2000 0.2000-0.2000 (  1916 PWs)   bands (ev):

    -7.8223  -4.5280  -0.4258  -0.4258

          k =-0.4000 0.4000-0.4000 (  1904 PWs)   bands (ev):

    -7.3739  -5.4008  -0.6778  -0.6774

          k = 0.0000 0.4000 0.0000 (  1916 PWs)   bands (ev):

    -7.7512  -4.6763  -0.7187  -0.7187

          k =-0.2000 0.6000-0.2000 (  1898 PWs)   bands (ev):

    -7.3451  -5.4139  -1.2211  -0.9480

          k = 0.6000-0.2000 0.6000 (  1901 PWs)   bands (ev):

    -7.0937  -5.7776  -1.5187  -0.8727

          k = 0.4000 0.0000 0.4000 (  1909 PWs)   bands (ev):

    -7.5212  -5.1271  -1.2249  -0.5630

          k = 0.0000 0.8000 0.0000 (  1900 PWs)   bands (ev):

    -6.9986  -5.8906  -1.2204  -1.2204

          k = 0.8000 0.0000 0.8000 (  1896 PWs)   bands (ev):

    -6.6306  -6.3131  -1.5710  -1.1841

          k = 0.6000-0.2000 1.0000 (  1906 PWs)   bands (ev):

    -6.8905  -6.0173  -1.5572  -1.2265

     highest occupied level (ev):    -0.2085

!    total energy              =     -16.60768442 Ry
     estimated scf accuracy    <       0.00000010 Ry

     The total energy is the sum of the following terms:
     one-electron contribution =      -0.97633987 Ry
     hartree contribution      =       2.15521718 Ry
     xc contribution           =      -5.47388045 Ry
     ewald contribution        =     -12.31268128 Ry

     convergence has been achieved in   5 iterations

     Forces acting on atoms (cartesian axes, Ry/au):

     atom    1 type  1   force =    -0.00000000   -0.00000000    0.00000000
     atom    2 type  1   force =     0.00000000    0.00000000   -0.00000000

     Total force =     0.000000     Total SCF correction =     0.000000


     Computing stress (Cartesian axis) and pressure

          total   stress  (Ry/bohr**3)                   (kbar)     P=      -90.67
  -0.00061639  -0.00000000  -0.00000000          -90.67       -0.00       -0.00
  -0.00000000  -0.00061639   0.00000000           -0.00      -90.67        0.00
  -0.00000000   0.00000000  -0.00061639           -0.00        0.00      -90.67


     BFGS Geometry Optimization
     Energy error            =      0.0E+00
     Gradient error          =      0.0E+00
     Cell gradient error     =      6.2E-04


     number of scf cycles    =   1
     number of bfgs steps    =   0

     enthalpy new            =     -16.6076844206 Ry

     new trust radius        =       0.0807212598 bohr
ibrav =      2
 celldm(1) =     13.78426336
Input lattice vectors:
    -0.49229512     0.00000000     0.49229512
    -0.00000000     0.49229512     0.49229512
    -0.49229512     0.49229512     0.00000000
New lattice vectors in INITIAL alat:
    -0.49229512     0.00000000     0.49229512
     0.00000000     0.49229512     0.49229512
    -0.49229512     0.49229512     0.00000000
New lattice vectors in NEW alat (for information only):
    -0.50000000     0.00000000     0.50000000
     0.00000000     0.50000000     0.50000000
    -0.50000000     0.50000000     0.00000000
Discrepancy in bohr =     0.000000    0.000000    0.000000
     new conv_thr            =       0.0000001000 Ry

     new unit-cell volume =    654.77290 a.u.^3 (    97.02733 Ang^3 )
     density =      0.96132 g/cm^3

CELL_PARAMETERS (alat= 14.00000000)
  -0.492295120   0.000000000   0.492295120
   0.000000000   0.492295120   0.492295120
  -0.492295120   0.492295120   0.000000000

ATOMIC_POSITIONS (alat)
Si            0.0000000000        0.0000000000        0.0000000000    0   0   0
Si            0.2461475599        0.2461475599        0.2461475599    0   0   0



     Writing output data file ./outdir/si.save/
     NEW-OLD atomic charge density approx. for the potential
     extrapolated charge    7.61853, renormalised to    8.00000

     total cpu time spent up to now is        2.4 secs

     Self-consistent Calculation

     iteration #  1     ecut=    30.00 Ry     beta= 0.70
     Davidson diagonalization with overlap
     ethr =  1.00E-06,  avg # of iterations =  8.8

     total cpu time spent up to now is        2.7 secs

     total energy              =     -16.62458403 Ry
     estimated scf accuracy    <       0.00183627 Ry

     iteration #  2     ecut=    30.00 Ry     beta= 0.70
     Davidson diagonalization with overlap
     ethr =  2.30E-05,  avg # of iterations =  3.2

     total cpu time spent up to now is        2.9 secs

     total energy              =     -16.62755436 Ry
     estimated scf accuracy    <       0.00094407 Ry

     iteration #  3     ecut=    30.00 Ry     beta= 0.70
     Davidson diagonalization with overlap
     ethr =  1.18E-05,  avg # of iterations =  1.0

     total cpu time spent up to now is        3.0 secs

     total energy              =     -16.62753856 Ry
     estimated scf accuracy    <       0.00025883 Ry

     iteration #  4     ecut=    30.00 Ry     beta= 0.70
     Davidson diagonalization with overlap
     ethr =  3.24E-06,  avg # of iterations =  1.2

     total cpu time spent up to now is        3.1 secs

     total energy              =     -16.62750248 Ry
     estimated scf accuracy    <       0.00010451 Ry

     iteration #  5     ecut=    30.00 Ry     beta= 0.70
     Davidson diagonalization with overlap
     ethr =  1.31E-06,  avg # of iterations =  2.0

     total cpu time spent up to now is        3.2 secs

     total energy              =     -16.62751828 Ry
     estimated scf accuracy    <       0.00000636 Ry

     iteration #  6     ecut=    30.00 Ry     beta= 0.70
     Davidson diagonalization with overlap
     ethr =  7.96E-08,  avg # of iterations =  3.2

     total cpu time spent up to now is        3.4 secs

     total energy              =     -16.62752017 Ry
     estimated scf accuracy    <       0.00000017 Ry

     iteration #  7     ecut=    30.00 Ry     beta= 0.70
     Davidson diagonalization with overlap
     c_bands:  1 eigenvalues not converged
     ethr =  2.09E-09,  avg # of iterations =  7.7

     total cpu time spent up to now is        3.6 secs

     End of self-consistent calculation

          k = 0.0000 0.0000 0.0000 (  1917 PWs)   bands (ev):

    -7.9341  -3.5978  -0.0088  -0.0088

          k =-0.2031 0.2031-0.2031 (  1916 PWs)   bands (ev):

    -7.7277  -4.1890  -0.2387  -0.2387

          k =-0.4063 0.4063-0.4063 (  1904 PWs)   bands (ev):

    -7.2492  -5.1536  -0.5032  -0.5032

          k = 0.0000 0.4063 0.0000 (  1916 PWs)   bands (ev):

    -7.6524  -4.3503  -0.5502  -0.5502

          k =-0.2031 0.6094-0.2031 (  1898 PWs)   bands (ev):

    -7.2202  -5.1582  -1.0803  -0.7907

          k = 0.6094-0.2031 0.6094 (  1901 PWs)   bands (ev):

    -6.9506  -5.5536  -1.3956  -0.7097

          k = 0.4063 0.0000 0.4063 (  1909 PWs)   bands (ev):

    -7.4075  -4.8474  -1.0886  -0.3822

          k = 0.0000 0.8125 0.0000 (  1900 PWs)   bands (ev):

    -6.8523  -5.6683  -1.0777  -1.0777

          k = 0.8125 0.0000 0.8125 (  1896 PWs)   bands (ev):

    -6.4584  -6.1219  -1.4544  -1.0390

          k = 0.6094-0.2031 1.0157 (  1906 PWs)   bands (ev):

    -6.7357  -5.8050  -1.4400  -1.0878

     highest occupied level (ev):    -0.0088

!    total energy              =     -16.62752043 Ry
     estimated scf accuracy    <       0.00000002 Ry

     The total energy is the sum of the following terms:
     one-electron contribution =      -0.71704211 Ry
     hartree contribution      =       2.09035740 Ry
     xc contribution           =      -5.49544945 Ry
     ewald contribution        =     -12.50538627 Ry

     convergence has been achieved in   7 iterations

     Forces acting on atoms (cartesian axes, Ry/au):

     atom    1 type  1   force =     0.00000000   -0.00000000    0.00000000
     atom    2 type  1   force =     0.00000000    0.00000000   -0.00000000

     Total force =     0.000000     Total SCF correction =     0.000000


     Computing stress (Cartesian axis) and pressure

          total   stress  (Ry/bohr**3)                   (kbar)     P=      -96.24
  -0.00065420  -0.00000000  -0.00000000          -96.24       -0.00       -0.00
  -0.00000000  -0.00065420   0.00000000           -0.00      -96.24        0.00
  -0.00000000   0.00000000  -0.00065420           -0.00        0.00      -96.24

     Energy error            =      2.0E-02
     Gradient error          =      0.0E+00
     Cell gradient error     =      6.5E-04


     number of scf cycles    =   2
     number of bfgs steps    =   1

     enthalpy old            =     -16.6076844206 Ry
     enthalpy new            =     -16.6275204261 Ry

     CASE: enthalpy_new < enthalpy_old


     WARNING: bfgs curvature condition failed, Theta= 0.778
     new trust radius        =       0.1201453463 bohr
ibrav =      2
 celldm(1) =     13.46065839
Input lattice vectors:
    -0.48073780    -0.00000000     0.48073780
     0.00000000     0.48073780     0.48073780
    -0.48073780     0.48073780    -0.00000000
New lattice vectors in INITIAL alat:
    -0.48073780     0.00000000     0.48073780
     0.00000000     0.48073780     0.48073780
    -0.48073780     0.48073780     0.00000000
New lattice vectors in NEW alat (for information only):
    -0.50000000     0.00000000     0.50000000
     0.00000000     0.50000000     0.50000000
    -0.50000000     0.50000000     0.00000000
Discrepancy in bohr =     0.000000    0.000000    0.000000
     new conv_thr            =       0.0000000010 Ry

     new unit-cell volume =    609.73190 a.u.^3 (    90.35295 Ang^3 )
     density =      1.03233 g/cm^3

CELL_PARAMETERS (alat= 14.00000000)
  -0.480737800   0.000000000   0.480737800
   0.000000000   0.480737800   0.480737800
  -0.480737800   0.480737800   0.000000000

ATOMIC_POSITIONS (alat)
Si            0.0000000000        0.0000000000        0.0000000000    0   0   0
Si            0.2403688998        0.2403688998        0.2403688998    0   0   0



     Writing output data file ./outdir/si.save/
     NEW-OLD atomic charge density approx. for the potential
     extrapolated charge    7.40913, renormalised to    8.00000

     total cpu time spent up to now is        4.0 secs

     Self-consistent Calculation

     iteration #  1     ecut=    30.00 Ry     beta= 0.70
     Davidson diagonalization with overlap
     ethr =  1.00E-06,  avg # of iterations =  8.6

     total cpu time spent up to now is        4.2 secs

     total energy              =     -16.65167456 Ry
     estimated scf accuracy    <       0.00436966 Ry

     iteration #  2     ecut=    30.00 Ry     beta= 0.70
     Davidson diagonalization with overlap
     ethr =  5.46E-05,  avg # of iterations =  3.2

     total cpu time spent up to now is        4.4 secs

     total energy              =     -16.65836720 Ry
     estimated scf accuracy    <       0.00202490 Ry

     iteration #  3     ecut=    30.00 Ry     beta= 0.70
     Davidson diagonalization with overlap
     ethr =  2.53E-05,  avg # of iterations =  1.1

     total cpu time spent up to now is        4.5 secs

     total energy              =     -16.65823409 Ry
     estimated scf accuracy    <       0.00054471 Ry

     iteration #  4     ecut=    30.00 Ry     beta= 0.70
     Davidson diagonalization with overlap
     ethr =  6.81E-06,  avg # of iterations =  2.0

     total cpu time spent up to now is        4.6 secs

     total energy              =     -16.65829781 Ry
     estimated scf accuracy    <       0.00001108 Ry

     iteration #  5     ecut=    30.00 Ry     beta= 0.70
     Davidson diagonalization with overlap
     ethr =  1.39E-07,  avg # of iterations =  4.2

     total cpu time spent up to now is        4.8 secs

     total energy              =     -16.65830427 Ry
     estimated scf accuracy    <       0.00000995 Ry

     iteration #  6     ecut=    30.00 Ry     beta= 0.70
     Davidson diagonalization with overlap
     ethr =  1.24E-07,  avg # of iterations =  1.7

     total cpu time spent up to now is        4.9 secs

     total energy              =     -16.65830497 Ry
     estimated scf accuracy    <       0.00000017 Ry

     iteration #  7     ecut=    30.00 Ry     beta= 0.70
     Davidson diagonalization with overlap
     ethr =  2.16E-09,  avg # of iterations =  4.8

     total cpu time spent up to now is        5.1 secs

     total energy              =     -16.65830521 Ry
     estimated scf accuracy    <       0.00000003 Ry

     iteration #  8     ecut=    30.00 Ry     beta= 0.70
     Davidson diagonalization with overlap
     ethr =  3.14E-10,  avg # of iterations =  2.7

     total cpu time spent up to now is        5.2 secs

     total energy              =     -16.65830521 Ry
     estimated scf accuracy    <       0.00000002 Ry

     iteration #  9     ecut=    30.00 Ry     beta= 0.70
     Davidson diagonalization with overlap
     ethr =  1.95E-10,  avg # of iterations =  1.1

     total cpu time spent up to now is        5.3 secs

     total energy              =     -16.65830521 Ry
     estimated scf accuracy    <          2.2E-09 Ry

     iteration # 10     ecut=    30.00 Ry     beta= 0.70
     Davidson diagonalization with overlap
     ethr =  2.74E-11,  avg # of iterations =  2.6

     total cpu time spent up to now is        5.5 secs

     End of self-consistent calculation

          k = 0.0000 0.0000 0.0000 (  1917 PWs)   bands (ev):

    -7.8025  -2.9245   0.3173   0.3173

          k =-0.2080 0.2080-0.2080 (  1916 PWs)   bands (ev):

    -7.5770  -3.6473   0.0671   0.0671

          k =-0.4160 0.4160-0.4160 (  1904 PWs)   bands (ev):

    -7.0497  -4.7666  -0.2171  -0.2171

          k = 0.0000 0.4160 0.0000 (  1916 PWs)   bands (ev):

    -7.4951  -3.8284  -0.2749  -0.2749

          k =-0.2080 0.6240-0.2080 (  1898 PWs)   bands (ev):

    -7.0209  -4.7523  -0.8491  -0.5329

          k = 0.6240-0.2080 0.6240 (  1901 PWs)   bands (ev):

    -6.7217  -5.2000  -1.1930  -0.4427

          k = 0.4160 0.0000 0.4160 (  1909 PWs)   bands (ev):

    -7.2263  -4.4034  -0.8655  -0.0863

          k = 0.0000 0.8321 0.0000 (  1900 PWs)   bands (ev):

    -6.6193  -5.3142  -0.8437  -0.8437

          k = 0.8321 0.0000 0.8321 (  1896 PWs)   bands (ev):

    -6.1833  -5.8177  -1.2638  -0.8010

          k = 0.6240-0.2080 1.0401 (  1906 PWs)   bands (ev):

    -6.4886  -5.4671  -1.2482  -0.8609

     highest occupied level (ev):     0.3173

!    total energy              =     -16.65830521 Ry
     estimated scf accuracy    <          2.4E-10 Ry

     The total energy is the sum of the following terms:
     one-electron contribution =      -0.31463572 Ry
     hartree contribution      =       1.99303224 Ry
     xc contribution           =      -5.53067602 Ry
     ewald contribution        =     -12.80602572 Ry

     convergence has been achieved in  10 iterations

     Forces acting on atoms (cartesian axes, Ry/au):

     atom    1 type  1   force =     0.00000000    0.00000000    0.00000000
     atom    2 type  1   force =    -0.00000000   -0.00000000   -0.00000000

     Total force =     0.000000     Total SCF correction =     0.000000


     Computing stress (Cartesian axis) and pressure

          total   stress  (Ry/bohr**3)                   (kbar)     P=     -104.96
  -0.00071349   0.00000000   0.00000000         -104.96        0.00        0.00
   0.00000000  -0.00071349  -0.00000000            0.00     -104.96       -0.00
   0.00000000  -0.00000000  -0.00071349            0.00       -0.00     -104.96

     Energy error            =      3.1E-02
     Gradient error          =      0.0E+00
     Cell gradient error     =      7.1E-04


     number of scf cycles    =   3
     number of bfgs steps    =   2

     enthalpy old            =     -16.6275204261 Ry
     enthalpy new            =     -16.6583052142 Ry

     CASE: enthalpy_new < enthalpy_old


     WARNING: bfgs curvature condition failed, Theta= 0.451
     new trust radius        =       0.1780900200 bohr
ibrav =      2
 celldm(1) =     12.97525094
Input lattice vectors:
    -0.46340182     0.00000000     0.46340182
    -0.00000000     0.46340182     0.46340182
    -0.46340182     0.46340182     0.00000000
New lattice vectors in INITIAL alat:
    -0.46340182     0.00000000     0.46340182
     0.00000000     0.46340182     0.46340182
    -0.46340182     0.46340182     0.00000000
New lattice vectors in NEW alat (for information only):
    -0.50000000     0.00000000     0.50000000
     0.00000000     0.50000000     0.50000000
    -0.50000000     0.50000000     0.00000000
Discrepancy in bohr =     0.000000    0.000000    0.000000
     new conv_thr            =       0.0000000010 Ry

     new unit-cell volume =    546.11903 a.u.^3 (    80.92649 Ang^3 )
     density =      1.15258 g/cm^3

CELL_PARAMETERS (alat= 14.00000000)
  -0.463401819   0.000000000   0.463401819
   0.000000000   0.463401819   0.463401819
  -0.463401819   0.463401819   0.000000000

ATOMIC_POSITIONS (alat)
Si            0.0000000000        0.0000000000        0.0000000000    0   0   0
Si            0.2317009097        0.2317009097        0.2317009097    0   0   0



     Writing output data file ./outdir/si.save/
     NEW-OLD atomic charge density approx. for the potential
     extrapolated charge    7.06829, renormalised to    8.00000

     total cpu time spent up to now is        5.9 secs

     Self-consistent Calculation

     iteration #  1     ecut=    30.00 Ry     beta= 0.70
     Davidson diagonalization with overlap
     ethr =  1.00E-06,  avg # of iterations =  9.5

     total cpu time spent up to now is        6.1 secs

     total energy              =     -16.69140563 Ry
     estimated scf accuracy    <       0.01099828 Ry

     iteration #  2     ecut=    30.00 Ry     beta= 0.70
     Davidson diagonalization with overlap
     ethr =  1.37E-04,  avg # of iterations =  3.2

     total cpu time spent up to now is        6.3 secs

     total energy              =     -16.70662491 Ry
     estimated scf accuracy    <       0.00424992 Ry

     iteration #  3     ecut=    30.00 Ry     beta= 0.70
     Davidson diagonalization with overlap
     ethr =  5.31E-05,  avg # of iterations =  1.1

     total cpu time spent up to now is        6.4 secs

     total energy              =     -16.70636029 Ry
     estimated scf accuracy    <       0.00109803 Ry

     iteration #  4     ecut=    30.00 Ry     beta= 0.70
     Davidson diagonalization with overlap
     ethr =  1.37E-05,  avg # of iterations =  2.0

     total cpu time spent up to now is        6.5 secs

     total energy              =     -16.70651204 Ry
     estimated scf accuracy    <       0.00038887 Ry

     iteration #  5     ecut=    30.00 Ry     beta= 0.70
     Davidson diagonalization with overlap
     ethr =  4.86E-06,  avg # of iterations =  1.3

     total cpu time spent up to now is        6.6 secs

     total energy              =     -16.70652653 Ry
     estimated scf accuracy    <       0.00001700 Ry

     iteration #  6     ecut=    30.00 Ry     beta= 0.70
     Davidson diagonalization with overlap
     ethr =  2.12E-07,  avg # of iterations =  3.7

     total cpu time spent up to now is        6.8 secs

     total energy              =     -16.70653704 Ry
     estimated scf accuracy    <       0.00000065 Ry

     iteration #  7     ecut=    30.00 Ry     beta= 0.70
     Davidson diagonalization with overlap
     ethr =  8.07E-09,  avg # of iterations =  5.2

     total cpu time spent up to now is        7.0 secs

     total energy              =     -16.70653800 Ry
     estimated scf accuracy    <       0.00000051 Ry

     iteration #  8     ecut=    30.00 Ry     beta= 0.70
     Davidson diagonalization with overlap
     ethr =  6.41E-09,  avg # of iterations =  1.4

     total cpu time spent up to now is        7.1 secs

     total energy              =     -16.70653758 Ry
     estimated scf accuracy    <       0.00000132 Ry

     iteration #  9     ecut=    30.00 Ry     beta= 0.70
     Davidson diagonalization with overlap
     ethr =  6.41E-09,  avg # of iterations =  2.0

     total cpu time spent up to now is        7.2 secs

     total energy              =     -16.70653764 Ry
     estimated scf accuracy    <       0.00000003 Ry

     iteration # 10     ecut=    30.00 Ry     beta= 0.70
     Davidson diagonalization with overlap
     ethr =  3.61E-10,  avg # of iterations =  2.8

     total cpu time spent up to now is        7.4 secs

     total energy              =     -16.70653765 Ry
     estimated scf accuracy    <          2.0E-09 Ry

     iteration # 11     ecut=    30.00 Ry     beta= 0.70
     Davidson diagonalization with overlap
     ethr =  2.51E-11,  avg # of iterations =  3.1

     total cpu time spent up to now is        7.5 secs

     total energy              =     -16.70653765 Ry
     estimated scf accuracy    <          1.0E-09 Ry

     iteration # 12     ecut=    30.00 Ry     beta= 0.70
     Davidson diagonalization with overlap
     ethr =  1.25E-11,  avg # of iterations =  1.5

     total cpu time spent up to now is        7.6 secs

     End of self-consistent calculation

          k = 0.0000 0.0000 0.0000 (  1917 PWs)   bands (ev):

    -7.5898  -1.7744   0.8697   0.8697

          k =-0.2158 0.2158-0.2158 (  1916 PWs)   bands (ev):

    -7.3330  -2.7682   0.5857   0.5857

          k =-0.4316 0.4316-0.4316 (  1904 PWs)   bands (ev):

    -6.7239  -4.1571   0.2694   0.2694

          k = 0.0000 0.4316 0.0000 (  1916 PWs)   bands (ev):

    -7.2402  -2.9747   0.1917   0.1917

          k =-0.2158 0.6474-0.2158 (  1898 PWs)   bands (ev):

    -6.6966  -4.0965  -0.4545  -0.0950

          k = 0.6474-0.2158 0.6474 (  1901 PWs)   bands (ev):

    -6.3466  -4.6338  -0.8463   0.0114

          k = 0.4316 0.0000 0.4316 (  1909 PWs)   bands (ev):

    -6.9316  -3.6859  -0.4876   0.4165

          k = 0.0000 0.8632 0.0000 (  1900 PWs)   bands (ev):

    -6.2405  -4.7375  -0.4454  -0.4454

          k = 0.8632 0.0000 0.8632 (  1896 PWs)   bands (ev):

    -5.7335  -5.3233  -0.9416  -0.3957

          k = 0.6474-0.2158 1.0790 (  1906 PWs)   bands (ev):

    -6.0850  -4.9173  -0.9236  -0.4768

     highest occupied level (ev):     0.8697

!    total energy              =     -16.70653765 Ry
     estimated scf accuracy    <          1.6E-11 Ry

     The total energy is the sum of the following terms:
     one-electron contribution =       0.32127366 Ry
     hartree contribution      =       1.84868740 Ry
     xc contribution           =      -5.59139630 Ry
     ewald contribution        =     -13.28510240 Ry

     convergence has been achieved in  12 iterations

     Forces acting on atoms (cartesian axes, Ry/au):

     atom    1 type  1   force =     0.00000000   -0.00000000    0.00000000
     atom    2 type  1   force =    -0.00000000    0.00000000   -0.00000000

     Total force =     0.000000     Total SCF correction =     0.000000


     Computing stress (Cartesian axis) and pressure

          total   stress  (Ry/bohr**3)                   (kbar)     P=     -118.25
  -0.00080382   0.00000000   0.00000000         -118.25        0.00        0.00
   0.00000000  -0.00080382  -0.00000000            0.00     -118.25       -0.00
   0.00000000  -0.00000000  -0.00080382            0.00       -0.00     -118.25

     Energy error            =      4.8E-02
     Gradient error          =      0.0E+00
     Cell gradient error     =      8.0E-04


     number of scf cycles    =   4
     number of bfgs steps    =   3

     enthalpy old            =     -16.6583052142 Ry
     enthalpy new            =     -16.7065376466 Ry

     CASE: enthalpy_new < enthalpy_old


     WARNING: bfgs curvature condition failed, Theta= 0.677
     uphill step: resetting bfgs history

     new trust radius        =       0.0939234764 bohr
ibrav =      2
 celldm(1) =     12.71450577
Input lattice vectors:
    -0.45408949    -0.00000000     0.45408949
     0.00000000     0.45408949     0.45408949
    -0.45408949     0.45408949    -0.00000000
New lattice vectors in INITIAL alat:
    -0.45408949     0.00000000     0.45408949
     0.00000000     0.45408949     0.45408949
    -0.45408949     0.45408949     0.00000000
New lattice vectors in NEW alat (for information only):
    -0.50000000     0.00000000     0.50000000
     0.00000000     0.50000000     0.50000000
    -0.50000000     0.50000000     0.00000000
Discrepancy in bohr =     0.000000    0.000000    0.000000
     new conv_thr            =       0.0000000010 Ry

     new unit-cell volume =    513.85248 a.u.^3 (    76.14508 Ang^3 )
     density =      1.22495 g/cm^3

CELL_PARAMETERS (alat= 14.00000000)
  -0.454089492   0.000000000   0.454089492
   0.000000000   0.454089492   0.454089492
  -0.454089492   0.454089492   0.000000000

ATOMIC_POSITIONS (alat)
Si            0.0000000000        0.0000000000        0.0000000000    0   0   0
Si            0.2270447458        0.2270447458        0.2270447458    0   0   0



     Writing output data file ./outdir/si.save/
     NEW-OLD atomic charge density approx. for the potential
     extrapolated charge    7.49773, renormalised to    8.00000

     total cpu time spent up to now is        8.0 secs

     Self-consistent Calculation

     iteration #  1     ecut=    30.00 Ry     beta= 0.70
     Davidson diagonalization with overlap
     ethr =  1.00E-06,  avg # of iterations =  8.0

     total cpu time spent up to now is        8.3 secs

     total energy              =     -16.72893829 Ry
     estimated scf accuracy    <       0.00273642 Ry

     iteration #  2     ecut=    30.00 Ry     beta= 0.70
     Davidson diagonalization with overlap
     ethr =  3.42E-05,  avg # of iterations =  3.4

     total cpu time spent up to now is        8.4 secs

     total energy              =     -16.73327772 Ry
     estimated scf accuracy    <       0.00132729 Ry

     iteration #  3     ecut=    30.00 Ry     beta= 0.70
     Davidson diagonalization with overlap
     ethr =  1.66E-05,  avg # of iterations =  1.0

     total cpu time spent up to now is        8.5 secs

     total energy              =     -16.73316282 Ry
     estimated scf accuracy    <       0.00037084 Ry

     iteration #  4     ecut=    30.00 Ry     beta= 0.70
     Davidson diagonalization with overlap
     ethr =  4.64E-06,  avg # of iterations =  2.0

     total cpu time spent up to now is        8.7 secs

     total energy              =     -16.73322173 Ry
     estimated scf accuracy    <       0.00004348 Ry

     iteration #  5     ecut=    30.00 Ry     beta= 0.70
     Davidson diagonalization with overlap
     ethr =  5.44E-07,  avg # of iterations =  1.4

     total cpu time spent up to now is        8.8 secs

     total energy              =     -16.73322275 Ry
     estimated scf accuracy    <       0.00000395 Ry

     iteration #  6     ecut=    30.00 Ry     beta= 0.70
     Davidson diagonalization with overlap
     ethr =  4.94E-08,  avg # of iterations =  2.9

     total cpu time spent up to now is        8.9 secs

     total energy              =     -16.73322430 Ry
     estimated scf accuracy    <       0.00000002 Ry

     iteration #  7     ecut=    30.00 Ry     beta= 0.70
     Davidson diagonalization with overlap
     ethr =  3.08E-10,  avg # of iterations =  7.9

     total cpu time spent up to now is        9.2 secs

     total energy              =     -16.73322450 Ry
     estimated scf accuracy    <       0.00000004 Ry

     iteration #  8     ecut=    30.00 Ry     beta= 0.70
     Davidson diagonalization with overlap
     ethr =  3.08E-10,  avg # of iterations =  1.1

     total cpu time spent up to now is        9.3 secs

     total energy              =     -16.73322449 Ry
     estimated scf accuracy    <       0.00000005 Ry

     iteration #  9     ecut=    30.00 Ry     beta= 0.70
     Davidson diagonalization with overlap
     ethr =  3.08E-10,  avg # of iterations =  1.0

     total cpu time spent up to now is        9.4 secs

     total energy              =     -16.73322449 Ry
     estimated scf accuracy    <       0.00000002 Ry

     iteration # 10     ecut=    30.00 Ry     beta= 0.70
     Davidson diagonalization with overlap
     ethr =  2.44E-10,  avg # of iterations =  1.8

     total cpu time spent up to now is        9.6 secs

     End of self-consistent calculation

          k = 0.0000 0.0000 0.0000 (  1917 PWs)   bands (ev):

    -7.4664  -1.0773   1.2024   1.2024

          k =-0.2202 0.2202-0.2202 (  1916 PWs)   bands (ev):

    -7.1912  -2.2661   0.8983   0.8983

          k =-0.4404 0.4404-0.4404 (  1904 PWs)   bands (ev):

    -6.5333  -3.8169   0.5635   0.5635

          k = 0.0000 0.4404 0.0000 (  1916 PWs)   bands (ev):

    -7.0922  -2.4804   0.4728   0.4728

          k =-0.2202 0.6607-0.2202 (  1898 PWs)   bands (ev):

    -6.5077  -3.7199  -0.2149   0.1694

          k = 0.6607-0.2202 0.6607 (  1901 PWs)   bands (ev):

    -6.1269  -4.3111  -0.6351   0.2858

          k = 0.4404 0.0000 0.4404 (  1909 PWs)   bands (ev):

    -6.7601  -3.2746  -0.2598   0.7201

          k = 0.0000 0.8809 0.0000 (  1900 PWs)   bands (ev):

    -6.0203  -4.4027  -0.2044  -0.2044

          k = 0.8809 0.0000 0.8809 (  1896 PWs)   bands (ev):

    -5.4707  -5.0366  -0.7479  -0.1504

          k = 0.6607-0.2202 1.1011 (  1906 PWs)   bands (ev):

    -5.8493  -4.5983  -0.7282  -0.2456

     highest occupied level (ev):     1.2024

!    total energy              =     -16.73322449 Ry
     estimated scf accuracy    <          3.0E-10 Ry

     The total energy is the sum of the following terms:
     one-electron contribution =       0.68057144 Ry
     hartree contribution      =       1.77214418 Ry
     xc contribution           =      -5.62839092 Ry
     ewald contribution        =     -13.55754919 Ry

     convergence has been achieved in  10 iterations

     Forces acting on atoms (cartesian axes, Ry/au):

     atom    1 type  1   force =     0.00000000   -0.00000000    0.00000000
     atom    2 type  1   force =     0.00000000    0.00000000    0.00000000

     Total force =     0.000000     Total SCF correction =     0.000000


     Computing stress (Cartesian axis) and pressure

          total   stress  (Ry/bohr**3)                   (kbar)     P=     -125.05
  -0.00085005  -0.00000000  -0.00000000         -125.05       -0.00       -0.00
  -0.00000000  -0.00085005   0.00000000           -0.00     -125.05        0.00
  -0.00000000   0.00000000  -0.00085005           -0.00        0.00     -125.05

     Energy error            =      2.7E-02
     Gradient error          =      0.0E+00
     Cell gradient error     =      8.5E-04


     number of scf cycles    =   5
     number of bfgs steps    =   4

     enthalpy old            =     -16.7065376466 Ry
     enthalpy new            =     -16.7332244891 Ry

     CASE: enthalpy_new < enthalpy_old


     WARNING: bfgs curvature condition failed, Theta= 0.788
     new trust radius        =       0.1394624456 bohr
ibrav =      2
 celldm(1) =     12.32338800
Input lattice vectors:
    -0.44012100    -0.00000000     0.44012100
     0.00000000     0.44012100     0.44012100
    -0.44012100     0.44012100    -0.00000000
New lattice vectors in INITIAL alat:
    -0.44012100     0.00000000     0.44012100
     0.00000000     0.44012100     0.44012100
    -0.44012100     0.44012100     0.00000000
New lattice vectors in NEW alat (for information only):
    -0.50000000     0.00000000     0.50000000
     0.00000000     0.50000000     0.50000000
    -0.50000000     0.50000000     0.00000000
Discrepancy in bohr =     0.000000    0.000000    0.000000
     new conv_thr            =       0.0000000010 Ry

     new unit-cell volume =    467.87558 a.u.^3 (    69.33201 Ang^3 )
     density =      1.34533 g/cm^3

CELL_PARAMETERS (alat= 14.00000000)
  -0.440121000   0.000000000   0.440121000
   0.000000000   0.440121000   0.440121000
  -0.440121000   0.440121000   0.000000000

ATOMIC_POSITIONS (alat)
Si            0.0000000000        0.0000000000        0.0000000000    0   0   0
Si            0.2200605001        0.2200605001        0.2200605001    0   0   0



     Writing output data file ./outdir/si.save/
     NEW-OLD atomic charge density approx. for the potential
     extrapolated charge    7.21398, renormalised to    8.00000

     total cpu time spent up to now is        9.9 secs

     Self-consistent Calculation

     iteration #  1     ecut=    30.00 Ry     beta= 0.70
     Davidson diagonalization with overlap
     ethr =  1.00E-06,  avg # of iterations =  8.9

     total cpu time spent up to now is       10.2 secs

     total energy              =     -16.76388708 Ry
     estimated scf accuracy    <       0.00679108 Ry

     iteration #  2     ecut=    30.00 Ry     beta= 0.70
     Davidson diagonalization with overlap
     ethr =  8.49E-05,  avg # of iterations =  3.4

     total cpu time spent up to now is       10.4 secs

     total energy              =     -16.77381170 Ry
     estimated scf accuracy    <       0.00289331 Ry

     iteration #  3     ecut=    30.00 Ry     beta= 0.70
     Davidson diagonalization with overlap
     ethr =  3.62E-05,  avg # of iterations =  1.0

     total cpu time spent up to now is       10.5 secs

     total energy              =     -16.77360036 Ry
     estimated scf accuracy    <       0.00078383 Ry

     iteration #  4     ecut=    30.00 Ry     beta= 0.70
     Davidson diagonalization with overlap
     ethr =  9.80E-06,  avg # of iterations =  2.0

     total cpu time spent up to now is       10.6 secs

     total energy              =     -16.77369290 Ry
     estimated scf accuracy    <       0.00026800 Ry

     iteration #  5     ecut=    30.00 Ry     beta= 0.70
     Davidson diagonalization with overlap
     ethr =  3.35E-06,  avg # of iterations =  1.1

     total cpu time spent up to now is       10.8 secs

     total energy              =     -16.77370300 Ry
     estimated scf accuracy    <       0.00000784 Ry

     iteration #  6     ecut=    30.00 Ry     beta= 0.70
     Davidson diagonalization with overlap
     ethr =  9.80E-08,  avg # of iterations =  3.4

     total cpu time spent up to now is       10.9 secs

     total energy              =     -16.77370832 Ry
     estimated scf accuracy    <       0.00000056 Ry

     iteration #  7     ecut=    30.00 Ry     beta= 0.70
     Davidson diagonalization with overlap
     ethr =  6.94E-09,  avg # of iterations =  4.4

     total cpu time spent up to now is       11.1 secs

     total energy              =     -16.77370872 Ry
     estimated scf accuracy    <       0.00000031 Ry

     iteration #  8     ecut=    30.00 Ry     beta= 0.70
     Davidson diagonalization with overlap
     ethr =  3.85E-09,  avg # of iterations =  1.2

     total cpu time spent up to now is       11.2 secs

     total energy              =     -16.77370857 Ry
     estimated scf accuracy    <       0.00000048 Ry

     iteration #  9     ecut=    30.00 Ry     beta= 0.70
     Davidson diagonalization with overlap
     ethr =  3.85E-09,  avg # of iterations =  1.1

     total cpu time spent up to now is       11.3 secs

     total energy              =     -16.77370859 Ry
     estimated scf accuracy    <       0.00000002 Ry

     iteration # 10     ecut=    30.00 Ry     beta= 0.70
     Davidson diagonalization with overlap
     ethr =  2.23E-10,  avg # of iterations =  2.5

     total cpu time spent up to now is       11.5 secs

     total energy              =     -16.77370859 Ry
     estimated scf accuracy    <          1.9E-09 Ry

     iteration # 11     ecut=    30.00 Ry     beta= 0.70
     Davidson diagonalization with overlap
     ethr =  2.36E-11,  avg # of iterations =  3.3

     total cpu time spent up to now is       11.6 secs

     End of self-consistent calculation

          k = 0.0000 0.0000 0.0000 (  1917 PWs)   bands (ev):

    -7.2662   0.0883   1.7560   1.7560

          k =-0.2272 0.2272-0.2272 (  1916 PWs)   bands (ev):

    -6.9612  -1.4808   1.4190   1.4190

          k =-0.4544 0.4544-0.4544 (  1904 PWs)   bands (ev):

    -6.2230  -3.2904   1.0548   1.0548

          k = 0.0000 0.4544 0.0000 (  1916 PWs)   bands (ev):

    -6.8523  -1.6914   0.9408   0.9408

          k =-0.2272 0.6816-0.2272 (  1898 PWs)   bands (ev):

    -6.2013  -3.1207   0.1872   0.6109

          k = 0.6816-0.2272 0.6816 (  1901 PWs)   bands (ev):

    -5.7685  -3.8013  -0.2793   0.7443

          k = 0.4544 0.0000 0.4544 (  1909 PWs)   bands (ev):

    -6.4820  -2.6218   0.1200   1.2270

          k = 0.0000 0.9088 0.0000 (  1900 PWs)   bands (ev):

    -5.6639  -3.8631   0.1988   0.1988

          k = 0.9088 0.0000 0.9088 (  1896 PWs)   bands (ev):

    -5.0439  -4.5743  -0.4258   0.2598

          k = 0.6816-0.2272 1.1361 (  1906 PWs)   bands (ev):

    -5.4667  -4.0841  -0.4026   0.1391

     highest occupied level (ev):     1.7560

!    total energy              =     -16.77370859 Ry
     estimated scf accuracy    <          4.5E-10 Ry

     The total energy is the sum of the following terms:
     one-electron contribution =       1.24554602 Ry
     hartree contribution      =       1.65899032 Ry
     xc contribution           =      -5.69040836 Ry
     ewald contribution        =     -13.98783657 Ry

     convergence has been achieved in  11 iterations

     Forces acting on atoms (cartesian axes, Ry/au):

     atom    1 type  1   force =    -0.00000000   -0.00000000   -0.00000000
     atom    2 type  1   force =     0.00000000    0.00000000    0.00000000

     Total force =     0.000000     Total SCF correction =     0.000000


     Computing stress (Cartesian axis) and pressure

          total   stress  (Ry/bohr**3)                   (kbar)     P=     -133.66
  -0.00090859   0.00000000   0.00000000         -133.66        0.00        0.00
   0.00000000  -0.00090859  -0.00000000            0.00     -133.66       -0.00
   0.00000000  -0.00000000  -0.00090859            0.00       -0.00     -133.66

     Energy error            =      4.0E-02
     Gradient error          =      0.0E+00
     Cell gradient error     =      9.1E-04


     number of scf cycles    =   6
     number of bfgs steps    =   5

     enthalpy old            =     -16.7332244891 Ry
     enthalpy new            =     -16.7737085904 Ry

     CASE: enthalpy_new < enthalpy_old


     WARNING: bfgs curvature condition failed, Theta= 0.587
     uphill step: resetting bfgs history

     new trust radius        =       0.0982660361 bohr
ibrav =      2
 celldm(1) =     12.04346513
Input lattice vectors:
    -0.43012375    -0.00000000     0.43012375
     0.00000000     0.43012375     0.43012375
    -0.43012375     0.43012375    -0.00000000
New lattice vectors in INITIAL alat:
    -0.43012375     0.00000000     0.43012375
     0.00000000     0.43012375     0.43012375
    -0.43012375     0.43012375     0.00000000
New lattice vectors in NEW alat (for information only):
    -0.50000000     0.00000000     0.50000000
     0.00000000     0.50000000     0.50000000
    -0.50000000     0.50000000     0.00000000
Discrepancy in bohr =     0.000000    0.000000    0.000000
     new conv_thr            =       0.0000000010 Ry

     new unit-cell volume =    436.71126 a.u.^3 (    64.71393 Ang^3 )
     density =      1.44133 g/cm^3

CELL_PARAMETERS (alat= 14.00000000)
  -0.430123755   0.000000000   0.430123755
   0.000000000   0.430123755   0.430123755
  -0.430123755   0.430123755   0.000000000

ATOMIC_POSITIONS (alat)
Si            0.0000000000        0.0000000000        0.0000000000    0   0   0
Si            0.2150618774        0.2150618774        0.2150618774    0   0   0



     Writing output data file ./outdir/si.save/
     NEW-OLD atomic charge density approx. for the potential
     extrapolated charge    7.42920, renormalised to    8.00000

     total cpu time spent up to now is       12.0 secs

     Self-consistent Calculation

     iteration #  1     ecut=    30.00 Ry     beta= 0.70
     Davidson diagonalization with overlap
     ethr =  1.00E-06,  avg # of iterations =  8.3

     total cpu time spent up to now is       12.3 secs

     total energy              =     -16.79747727 Ry
     estimated scf accuracy    <       0.00323087 Ry

     iteration #  2     ecut=    30.00 Ry     beta= 0.70
     Davidson diagonalization with overlap
     ethr =  4.04E-05,  avg # of iterations =  3.4

     total cpu time spent up to now is       12.5 secs

     total energy              =     -16.80253933 Ry
     estimated scf accuracy    <       0.00154560 Ry

     iteration #  3     ecut=    30.00 Ry     beta= 0.70
     Davidson diagonalization with overlap
     ethr =  1.93E-05,  avg # of iterations =  1.0

     total cpu time spent up to now is       12.6 secs

     total energy              =     -16.80241192 Ry
     estimated scf accuracy    <       0.00043832 Ry

     iteration #  4     ecut=    30.00 Ry     beta= 0.70
     Davidson diagonalization with overlap
     ethr =  5.48E-06,  avg # of iterations =  2.0

     total cpu time spent up to now is       12.7 secs

     total energy              =     -16.80246283 Ry
     estimated scf accuracy    <       0.00013515 Ry

     iteration #  5     ecut=    30.00 Ry     beta= 0.70
     Davidson diagonalization with overlap
     ethr =  1.69E-06,  avg # of iterations =  1.1

     total cpu time spent up to now is       12.8 secs

     total energy              =     -16.80246834 Ry
     estimated scf accuracy    <       0.00000316 Ry

     iteration #  6     ecut=    30.00 Ry     beta= 0.70
     Davidson diagonalization with overlap
     ethr =  3.95E-08,  avg # of iterations =  3.9

     total cpu time spent up to now is       13.0 secs

     total energy              =     -16.80247067 Ry
     estimated scf accuracy    <       0.00000040 Ry

     iteration #  7     ecut=    30.00 Ry     beta= 0.70
     Davidson diagonalization with overlap
     ethr =  5.02E-09,  avg # of iterations =  3.0

     total cpu time spent up to now is       13.1 secs

     total energy              =     -16.80247076 Ry
     estimated scf accuracy    <       0.00000014 Ry

     iteration #  8     ecut=    30.00 Ry     beta= 0.70
     Davidson diagonalization with overlap
     ethr =  1.81E-09,  avg # of iterations =  1.8

     total cpu time spent up to now is       13.2 secs

     total energy              =     -16.80247072 Ry
     estimated scf accuracy    <       0.00000019 Ry

     iteration #  9     ecut=    30.00 Ry     beta= 0.70
     Davidson diagonalization with overlap
     ethr =  1.81E-09,  avg # of iterations =  1.0

     total cpu time spent up to now is       13.3 secs

     total energy              =     -16.80247071 Ry
     estimated scf accuracy    <       0.00000002 Ry

     iteration # 10     ecut=    30.00 Ry     beta= 0.70
     Davidson diagonalization with overlap
     ethr =  2.92E-10,  avg # of iterations =  1.9

     total cpu time spent up to now is       13.5 secs

     End of self-consistent calculation

          k = 0.0000 0.0000 0.0000 (  1917 PWs)   bands (ev):

    -7.1099   1.0216   2.1974   2.1974

          k =-0.2325 0.2325-0.2325 (  1916 PWs)   bands (ev):

    -6.7820  -0.9001   1.8346   1.8346

          k =-0.4650 0.4650-0.4650 (  1904 PWs)   bands (ev):

    -5.9804  -2.9017   1.4481   1.4481

          k = 0.0000 0.4650 0.0000 (  1916 PWs)   bands (ev):

    -6.6655  -1.0913   1.3144   1.3144

          k =-0.2325 0.6975-0.2325 (  1898 PWs)   bands (ev):

    -5.9627  -2.6650   0.5110   0.9641

          k = 0.6975-0.2325 0.6975 (  1901 PWs)   bands (ev):

    -5.4880  -3.4164   0.0084   1.1113

          k = 0.4650 0.0000 0.4650 (  1909 PWs)   bands (ev):

    -6.2653  -2.1271   0.4234   1.6323

          k = 0.0000 0.9300 0.0000 (  1900 PWs)   bands (ev):

    -5.3872  -3.4462   0.5219   0.5219

          k = 0.9300 0.0000 0.9300 (  1896 PWs)   bands (ev):

    -4.7110  -4.2170  -0.1692   0.5886

          k = 0.6975-0.2325 1.1625 (  1906 PWs)   bands (ev):

    -5.1684  -3.6866  -0.1428   0.4457

     highest occupied level (ev):     2.1974

!    total energy              =     -16.80247072 Ry
     estimated scf accuracy    <          5.2E-10 Ry

     The total energy is the sum of the following terms:
     one-electron contribution =       1.67116331 Ry
     hartree contribution      =       1.57945081 Ry
     xc contribution           =      -5.74013292 Ry
     ewald contribution        =     -14.31295192 Ry

     convergence has been achieved in  10 iterations

     Forces acting on atoms (cartesian axes, Ry/au):

     atom    1 type  1   force =    -0.00000000   -0.00000000   -0.00000000
     atom    2 type  1   force =     0.00000000    0.00000000    0.00000000

     Total force =     0.000000     Total SCF correction =     0.000000


     Computing stress (Cartesian axis) and pressure

          total   stress  (Ry/bohr**3)                   (kbar)     P=     -137.47
  -0.00093449   0.00000000   0.00000000         -137.47        0.00        0.00
   0.00000000  -0.00093449  -0.00000000            0.00     -137.47       -0.00
   0.00000000  -0.00000000  -0.00093449            0.00       -0.00     -137.47

     Energy error            =      2.9E-02
     Gradient error          =      0.0E+00
     Cell gradient error     =      9.3E-04


     number of scf cycles    =   7
     number of bfgs steps    =   6

     enthalpy old            =     -16.7737085904 Ry
     enthalpy new            =     -16.8024707175 Ry

     CASE: enthalpy_new < enthalpy_old


     WARNING: bfgs curvature condition failed, Theta= 0.814
     new trust radius        =       0.1457153706 bohr
ibrav =      2
 celldm(1) =     11.62358083
Input lattice vectors:
    -0.41512789     0.00000000     0.41512789
    -0.00000000     0.41512789     0.41512789
    -0.41512789     0.41512789     0.00000000
New lattice vectors in INITIAL alat:
    -0.41512789     0.00000000     0.41512789
     0.00000000     0.41512789     0.41512789
    -0.41512789     0.41512789     0.00000000
New lattice vectors in NEW alat (for information only):
    -0.50000000     0.00000000     0.50000000
     0.00000000     0.50000000     0.50000000
    -0.50000000     0.50000000     0.00000000
Discrepancy in bohr =     0.000000    0.000000    0.000000
     new conv_thr            =       0.0000000010 Ry

     new unit-cell volume =    392.60862 a.u.^3 (    58.17859 Ang^3 )
     density =      1.60324 g/cm^3

CELL_PARAMETERS (alat= 14.00000000)
  -0.415127887   0.000000000   0.415127887
   0.000000000   0.415127887   0.415127887
  -0.415127887   0.415127887   0.000000000

ATOMIC_POSITIONS (alat)
Si            0.0000000000        0.0000000000        0.0000000000    0   0   0
Si            0.2075639434        0.2075639434        0.2075639434    0   0   0



     Writing output data file ./outdir/si.save/
     NEW-OLD atomic charge density approx. for the potential
     extrapolated charge    7.10148, renormalised to    8.00000

     total cpu time spent up to now is       14.0 secs

     Self-consistent Calculation

     iteration #  1     ecut=    30.00 Ry     beta= 0.70
     Davidson diagonalization with overlap
     ethr =  1.00E-06,  avg # of iterations =  9.0

     total cpu time spent up to now is       14.3 secs

     total energy              =     -16.83218260 Ry
     estimated scf accuracy    <       0.00821962 Ry

     iteration #  2     ecut=    30.00 Ry     beta= 0.70
     Davidson diagonalization with overlap
     ethr =  1.03E-04,  avg # of iterations =  3.4

     total cpu time spent up to now is       14.4 secs

     total energy              =     -16.84389111 Ry
     estimated scf accuracy    <       0.00342623 Ry

     iteration #  3     ecut=    30.00 Ry     beta= 0.70
     Davidson diagonalization with overlap
     ethr =  4.28E-05,  avg # of iterations =  1.0

     total cpu time spent up to now is       14.6 secs

     total energy              =     -16.84362021 Ry
     estimated scf accuracy    <       0.00094021 Ry

     iteration #  4     ecut=    30.00 Ry     beta= 0.70
     Davidson diagonalization with overlap
     ethr =  1.18E-05,  avg # of iterations =  2.0

     total cpu time spent up to now is       14.7 secs

     total energy              =     -16.84373803 Ry
     estimated scf accuracy    <       0.00023316 Ry

     iteration #  5     ecut=    30.00 Ry     beta= 0.70
     Davidson diagonalization with overlap
     ethr =  2.91E-06,  avg # of iterations =  1.1

     total cpu time spent up to now is       14.8 secs

     total energy              =     -16.84374676 Ry
     estimated scf accuracy    <       0.00000722 Ry

     iteration #  6     ecut=    30.00 Ry     beta= 0.70
     Davidson diagonalization with overlap
     ethr =  9.02E-08,  avg # of iterations =  3.6

     total cpu time spent up to now is       14.9 secs

     total energy              =     -16.84375092 Ry
     estimated scf accuracy    <       0.00000057 Ry

     iteration #  7     ecut=    30.00 Ry     beta= 0.70
     Davidson diagonalization with overlap
     ethr =  7.14E-09,  avg # of iterations =  3.2

     total cpu time spent up to now is       15.1 secs

     total energy              =     -16.84375112 Ry
     estimated scf accuracy    <       0.00000029 Ry

     iteration #  8     ecut=    30.00 Ry     beta= 0.70
     Davidson diagonalization with overlap
     ethr =  3.59E-09,  avg # of iterations =  1.0

     total cpu time spent up to now is       15.2 secs

     total energy              =     -16.84375113 Ry
     estimated scf accuracy    <       0.00000027 Ry

     iteration #  9     ecut=    30.00 Ry     beta= 0.70
     Davidson diagonalization with overlap
     ethr =  3.41E-09,  avg # of iterations =  1.0

     total cpu time spent up to now is       15.3 secs

     total energy              =     -16.84375142 Ry
     estimated scf accuracy    <       0.00000028 Ry

     iteration # 10     ecut=    30.00 Ry     beta= 0.70
     Davidson diagonalization with overlap
     ethr =  3.41E-09,  avg # of iterations =  1.9

     total cpu time spent up to now is       15.4 secs

     total energy              =     -16.84375093 Ry
     estimated scf accuracy    <       0.00000115 Ry

     iteration # 11     ecut=    30.00 Ry     beta= 0.70
     Davidson diagonalization with overlap
     ethr =  3.41E-09,  avg # of iterations =  2.1

     total cpu time spent up to now is       15.6 secs

     total energy              =     -16.84375105 Ry
     estimated scf accuracy    <       0.00000009 Ry

     iteration # 12     ecut=    30.00 Ry     beta= 0.70
     Davidson diagonalization with overlap
     ethr =  1.08E-09,  avg # of iterations =  1.0

     total cpu time spent up to now is       15.7 secs

     total energy              =     -16.84375105 Ry
     estimated scf accuracy    <       0.00000003 Ry

     iteration # 13     ecut=    30.00 Ry     beta= 0.70
     Davidson diagonalization with overlap
     ethr =  3.66E-10,  avg # of iterations =  1.1

     total cpu time spent up to now is       15.8 secs

     total energy              =     -16.84375105 Ry
     estimated scf accuracy    <          6.6E-09 Ry

     iteration # 14     ecut=    30.00 Ry     beta= 0.70
     Davidson diagonalization with overlap
     ethr =  8.22E-11,  avg # of iterations =  1.3

     total cpu time spent up to now is       15.9 secs

     total energy              =     -16.84375105 Ry
     estimated scf accuracy    <          4.4E-09 Ry

     iteration # 15     ecut=    30.00 Ry     beta= 0.70
     Davidson diagonalization with overlap
     ethr =  5.55E-11,  avg # of iterations =  1.0

     total cpu time spent up to now is       16.0 secs

     total energy              =     -16.84375105 Ry
     estimated scf accuracy    <          7.6E-09 Ry

     iteration # 16     ecut=    30.00 Ry     beta= 0.70
     Davidson diagonalization with overlap
     ethr =  5.55E-11,  avg # of iterations =  1.0

     total cpu time spent up to now is       16.1 secs

     total energy              =     -16.84375105 Ry
     estimated scf accuracy    <          5.8E-09 Ry

     iteration # 17     ecut=    30.00 Ry     beta= 0.70
     Davidson diagonalization with overlap
     ethr =  5.55E-11,  avg # of iterations =  1.2

     total cpu time spent up to now is       16.2 secs

     End of self-consistent calculation

          k = 0.0000 0.0000 0.0000 (  1917 PWs)   bands (ev):

    -6.8510   2.5991   2.9412   2.9412

          k =-0.2409 0.2409-0.2409 (  1916 PWs)   bands (ev):

    -6.4857  -0.0048   2.5359   2.5359

          k =-0.4818 0.4818-0.4818 (  1904 PWs)   bands (ev):

    -5.5783  -2.2970   2.1140   2.1140

          k = 0.0000 0.4818 0.0000 (  1916 PWs)   bands (ev):

    -6.3568  -0.1323   1.9444   1.9444

          k =-0.2409 0.7227-0.2409 (  1898 PWs)   bands (ev):

    -5.5688  -1.9348   1.0632   1.5614

          k = 0.7227-0.2409 0.7227 (  1901 PWs)   bands (ev):

    -5.0224  -2.8047   0.5012   1.7324

          k = 0.4818 0.0000 0.4818 (  1909 PWs)   bands (ev):

    -5.9075  -1.3371   0.9362   2.3179

          k = 0.0000 0.9636 0.0000 (  1900 PWs)   bands (ev):

    -4.9324  -2.7653   1.0696   1.0696

          k = 0.9636 0.0000 0.9636 (  1896 PWs)   bands (ev):

    -4.1614  -3.6328   0.2626   1.1459

          k = 0.7227-0.2409 1.2044 (  1906 PWs)   bands (ev):

    -4.6760  -3.0366   0.2959   0.9621

     highest occupied level (ev):     2.9412

!    total energy              =     -16.84375105 Ry
     estimated scf accuracy    <          2.3E-10 Ry

     The total energy is the sum of the following terms:
     one-electron contribution =       2.34756603 Ry
     hartree contribution      =       1.46279066 Ry
     xc contribution           =      -5.82412204 Ry
     ewald contribution        =     -14.82998569 Ry

     convergence has been achieved in  17 iterations

     Forces acting on atoms (cartesian axes, Ry/au):

     atom    1 type  1   force =    -0.00000000   -0.00000000   -0.00000000
     atom    2 type  1   force =     0.00000000    0.00000000    0.00000000

     Total force =     0.000000     Total SCF correction =     0.000000


     Computing stress (Cartesian axis) and pressure

          total   stress  (Ry/bohr**3)                   (kbar)     P=     -136.10
  -0.00092519   0.00000000   0.00000000         -136.10        0.00        0.00
   0.00000000  -0.00092519  -0.00000000            0.00     -136.10       -0.00
   0.00000000  -0.00000000  -0.00092519            0.00       -0.00     -136.10

     Energy error            =      4.1E-02
     Gradient error          =      0.0E+00
     Cell gradient error     =      9.3E-04


     number of scf cycles    =   8
     number of bfgs steps    =   7

     enthalpy old            =     -16.8024707175 Ry
     enthalpy new            =     -16.8437510454 Ry

     CASE: enthalpy_new < enthalpy_old

     new trust radius        =       0.2147290806 bohr
ibrav =      2
 celldm(1) =     10.99375437
Input lattice vectors:
    -0.39263408    -0.00000000     0.39263408
     0.00000000     0.39263408     0.39263408
    -0.39263408     0.39263408    -0.00000000
New lattice vectors in INITIAL alat:
    -0.39263408     0.00000000     0.39263408
     0.00000000     0.39263408     0.39263408
    -0.39263408     0.39263408     0.00000000
New lattice vectors in NEW alat (for information only):
    -0.50000000     0.00000000     0.50000000
     0.00000000     0.50000000     0.50000000
    -0.50000000     0.50000000     0.00000000
Discrepancy in bohr =     0.000000    0.000000    0.000000
     new conv_thr            =       0.0000000010 Ry

     new unit-cell volume =    332.18353 a.u.^3 (    49.22452 Ang^3 )
     density =      1.89487 g/cm^3

CELL_PARAMETERS (alat= 14.00000000)
  -0.392634085   0.000000000   0.392634085
   0.000000000   0.392634085   0.392634085
  -0.392634085   0.392634085   0.000000000

ATOMIC_POSITIONS (alat)
Si            0.0000000000        0.0000000000        0.0000000000    0   0   0
Si            0.1963170424        0.1963170424        0.1963170424    0   0   0



     Writing output data file ./outdir/si.save/
     NEW-OLD atomic charge density approx. for the potential
     extrapolated charge    6.54500, renormalised to    8.00000

     total cpu time spent up to now is       16.7 secs

     Self-consistent Calculation

     iteration #  1     ecut=    30.00 Ry     beta= 0.70
     Davidson diagonalization with overlap
     ethr =  1.00E-06,  avg # of iterations =  9.9

     total cpu time spent up to now is       17.0 secs

     total energy              =     -16.86735418 Ry
     estimated scf accuracy    <       0.02297095 Ry

     iteration #  2     ecut=    30.00 Ry     beta= 0.70
     Davidson diagonalization with overlap
     ethr =  2.87E-04,  avg # of iterations =  3.0

     total cpu time spent up to now is       17.2 secs

     total energy              =     -16.89499467 Ry
     estimated scf accuracy    <       0.00715653 Ry

     iteration #  3     ecut=    30.00 Ry     beta= 0.70
     Davidson diagonalization with overlap
     ethr =  8.95E-05,  avg # of iterations =  1.2

     total cpu time spent up to now is       17.3 secs

     total energy              =     -16.89446770 Ry
     estimated scf accuracy    <       0.00195471 Ry

     iteration #  4     ecut=    30.00 Ry     beta= 0.70
     Davidson diagonalization with overlap
     ethr =  2.44E-05,  avg # of iterations =  2.0

     total cpu time spent up to now is       17.4 secs

     total energy              =     -16.89472370 Ry
     estimated scf accuracy    <       0.00016721 Ry

     iteration #  5     ecut=    30.00 Ry     beta= 0.70
     Davidson diagonalization with overlap
     ethr =  2.09E-06,  avg # of iterations =  1.7

     total cpu time spent up to now is       17.5 secs

     total energy              =     -16.89473769 Ry
     estimated scf accuracy    <       0.00000526 Ry

     iteration #  6     ecut=    30.00 Ry     beta= 0.70
     Davidson diagonalization with overlap
     ethr =  6.58E-08,  avg # of iterations =  4.3

     total cpu time spent up to now is       17.7 secs

     total energy              =     -16.89474244 Ry
     estimated scf accuracy    <       0.00000003 Ry

     iteration #  7     ecut=    30.00 Ry     beta= 0.70
     Davidson diagonalization with overlap
     ethr =  3.53E-10,  avg # of iterations =  5.8

     total cpu time spent up to now is       17.9 secs

     total energy              =     -16.89474250 Ry
     estimated scf accuracy    <       0.00000020 Ry

     iteration #  8     ecut=    30.00 Ry     beta= 0.70
     Davidson diagonalization with overlap
     ethr =  3.53E-10,  avg # of iterations =  2.0

     total cpu time spent up to now is       18.0 secs

     total energy              =     -16.89474250 Ry
     estimated scf accuracy    <       0.00000002 Ry

     iteration #  9     ecut=    30.00 Ry     beta= 0.70
     Davidson diagonalization with overlap
     ethr =  2.33E-10,  avg # of iterations =  2.0

     total cpu time spent up to now is       18.2 secs

     End of self-consistent calculation

          k = 0.0000 0.0000 0.0000 (  1917 PWs)   bands (ev):

    -6.3925   4.2770   4.2770   5.4354

          k =-0.2547 0.2547-0.2547 (  1916 PWs)   bands (ev):

    -5.9634   1.4052   3.7980   3.7980

          k =-0.5094 0.5094-0.5094 (  1904 PWs)   bands (ev):

    -4.8695  -1.3229   3.3192   3.3192

          k = 0.0000 0.5094 0.0000 (  1916 PWs)   bands (ev):

    -5.8137   1.4596   3.0779   3.0779

          k =-0.2547 0.7641-0.2547 (  1898 PWs)   bands (ev):

    -4.8787  -0.7167   2.0759   2.6406

          k = 0.7641-0.2547 0.7641 (  1901 PWs)   bands (ev):

    -4.1997  -1.7978   1.4115   2.8557

          k = 0.5094 0.0000 0.5094 (  1909 PWs)   bands (ev):

    -5.2795  -0.0226   1.8621   3.5563

          k = 0.0000 1.0188 0.0000 (  1900 PWs)   bands (ev):

    -4.1406  -1.5929   2.0626   2.0626

          k = 1.0188 0.0000 1.0188 (  1896 PWs)   bands (ev):

    -3.1975  -2.6246   1.0369   2.1561

          k = 0.7641-0.2547 1.2735 (  1906 PWs)   bands (ev):

    -3.8131  -1.9143   1.0865   1.8880

     highest occupied level (ev):     5.4354

!    total energy              =     -16.89474250 Ry
     estimated scf accuracy    <          8.2E-12 Ry

     The total energy is the sum of the following terms:
     one-electron contribution =       3.46497130 Ry
     hartree contribution      =       1.29379733 Ry
     xc contribution           =      -5.97392329 Ry
     ewald contribution        =     -15.67958784 Ry

     convergence has been achieved in   9 iterations

     Forces acting on atoms (cartesian axes, Ry/au):

     atom    1 type  1   force =     0.00000000    0.00000000   -0.00000000
     atom    2 type  1   force =    -0.00000000   -0.00000000    0.00000000

     Total force =     0.000000     Total SCF correction =     0.000000


     Computing stress (Cartesian axis) and pressure

          total   stress  (Ry/bohr**3)                   (kbar)     P=     -103.37
  -0.00070268   0.00000000  -0.00000000         -103.37        0.00       -0.00
   0.00000000  -0.00070268  -0.00000000            0.00     -103.37       -0.00
   0.00000000  -0.00000000  -0.00070268            0.00       -0.00     -103.37

     Energy error            =      5.1E-02
     Gradient error          =      0.0E+00
     Cell gradient error     =      7.0E-04


     number of scf cycles    =   9
     number of bfgs steps    =   8

     enthalpy old            =     -16.8437510454 Ry
     enthalpy new            =     -16.8947425033 Ry

     CASE: enthalpy_new < enthalpy_old

     new trust radius        =       0.3132457363 bohr
ibrav =      2
 celldm(1) =     10.04901469
Input lattice vectors:
    -0.35889338     0.00000000     0.35889338
    -0.00000000     0.35889338     0.35889338
    -0.35889338     0.35889338     0.00000000
New lattice vectors in INITIAL alat:
    -0.35889338     0.00000000     0.35889338
     0.00000000     0.35889338     0.35889338
    -0.35889338     0.35889338     0.00000000
New lattice vectors in NEW alat (for information only):
    -0.50000000     0.00000000     0.50000000
     0.00000000     0.50000000     0.50000000
    -0.50000000     0.50000000     0.00000000
Discrepancy in bohr =     0.000000    0.000000    0.000000
     new conv_thr            =       0.0000000010 Ry

     new unit-cell volume =    253.69415 a.u.^3 (    37.59359 Ang^3 )
     density =      2.48112 g/cm^3

CELL_PARAMETERS (alat= 14.00000000)
  -0.358893382   0.000000000   0.358893382
   0.000000000   0.358893382   0.358893382
  -0.358893382   0.358893382   0.000000000

ATOMIC_POSITIONS (alat)
Si            0.0000000000        0.0000000000        0.0000000000    0   0   0
Si            0.1794466909        0.1794466909        0.1794466909    0   0   0



     Writing output data file ./outdir/si.save/
     NEW-OLD atomic charge density approx. for the potential
     extrapolated charge    5.52529, renormalised to    8.00000

     total cpu time spent up to now is       18.5 secs

     Self-consistent Calculation

     iteration #  1     ecut=    30.00 Ry     beta= 0.70
     Davidson diagonalization with overlap
     ethr =  1.00E-06,  avg # of iterations = 10.5

     total cpu time spent up to now is       18.8 secs

     total energy              =     -16.84153685 Ry
     estimated scf accuracy    <       0.07731263 Ry

     iteration #  2     ecut=    30.00 Ry     beta= 0.70
     Davidson diagonalization with overlap
     ethr =  9.66E-04,  avg # of iterations =  2.9

     total cpu time spent up to now is       18.9 secs

     total energy              =     -16.90910677 Ry
     estimated scf accuracy    <       0.01564585 Ry

     iteration #  3     ecut=    30.00 Ry     beta= 0.70
     Davidson diagonalization with overlap
     ethr =  1.96E-04,  avg # of iterations =  1.5

     total cpu time spent up to now is       19.0 secs

     total energy              =     -16.90840276 Ry
     estimated scf accuracy    <       0.00387430 Ry

     iteration #  4     ecut=    30.00 Ry     beta= 0.70
     Davidson diagonalization with overlap
     ethr =  4.84E-05,  avg # of iterations =  2.0

     total cpu time spent up to now is       19.2 secs

     total energy              =     -16.90886287 Ry
     estimated scf accuracy    <       0.00022752 Ry

     iteration #  5     ecut=    30.00 Ry     beta= 0.70
     Davidson diagonalization with overlap
     ethr =  2.84E-06,  avg # of iterations =  2.6

     total cpu time spent up to now is       19.3 secs

     total energy              =     -16.90888416 Ry
     estimated scf accuracy    <       0.00001879 Ry

     iteration #  6     ecut=    30.00 Ry     beta= 0.70
     Davidson diagonalization with overlap
     ethr =  2.35E-07,  avg # of iterations =  3.2

     total cpu time spent up to now is       19.4 secs

     total energy              =     -16.90889164 Ry
     estimated scf accuracy    <       0.00000102 Ry

     iteration #  7     ecut=    30.00 Ry     beta= 0.70
     Davidson diagonalization with overlap
     ethr =  1.27E-08,  avg # of iterations =  2.9

     total cpu time spent up to now is       19.6 secs

     total energy              =     -16.90889196 Ry
     estimated scf accuracy    <       0.00000028 Ry

     iteration #  8     ecut=    30.00 Ry     beta= 0.70
     Davidson diagonalization with overlap
     ethr =  3.55E-09,  avg # of iterations =  2.0

     total cpu time spent up to now is       19.7 secs

     total energy              =     -16.90889199 Ry
     estimated scf accuracy    <          5.9E-09 Ry

     iteration #  9     ecut=    30.00 Ry     beta= 0.70
     Davidson diagonalization with overlap
     ethr =  7.34E-11,  avg # of iterations =  3.9

     total cpu time spent up to now is       19.9 secs

     total energy              =     -16.90889200 Ry
     estimated scf accuracy    <          1.9E-09 Ry

     iteration # 10     ecut=    30.00 Ry     beta= 0.70
     Davidson diagonalization with overlap
     ethr =  2.40E-11,  avg # of iterations =  1.3

     total cpu time spent up to now is       20.0 secs

     total energy              =     -16.90889200 Ry
     estimated scf accuracy    <          2.3E-09 Ry

     iteration # 11     ecut=    30.00 Ry     beta= 0.70
     Davidson diagonalization with overlap
     ethr =  2.40E-11,  avg # of iterations =  1.7

     total cpu time spent up to now is       20.1 secs

     End of self-consistent calculation

          k = 0.0000 0.0000 0.0000 (  1917 PWs)   bands (ev):

    -5.4856   6.9294   6.9294  11.0066

          k =-0.2786 0.2786-0.2786 (  1916 PWs)   bands (ev):

    -4.9391   3.8294   6.3130   6.3130

          k =-0.5573 0.5573-0.5573 (  1904 PWs)   bands (ev):

    -3.4857   0.3938   5.7437   5.7437

          k = 0.0000 0.5573 0.0000 (  1916 PWs)   bands (ev):

    -4.7518   4.3357   5.3354   5.3354

          k =-0.2786 0.8359-0.2786 (  1898 PWs)   bands (ev):

    -3.5420   1.4754   4.1625   4.8041

          k = 0.8359-0.2786 0.8359 (  1901 PWs)   bands (ev):

    -2.5841  -0.0273   3.3037   5.1111

          k = 0.5573 0.0000 0.5573 (  1909 PWs)   bands (ev):

    -4.0588   2.3588   3.7199   6.0402

          k = 0.0000 1.1145 0.0000 (  1900 PWs)   bands (ev):

    -2.6216   0.6235   4.0645   4.0645

          k = 1.1145 0.0000 1.1145 (  1896 PWs)   bands (ev):

    -1.3231  -0.7149   2.5687   4.1921

          k = 0.8359-0.2786 1.3932 (  1906 PWs)   bands (ev):

    -2.1420   0.2215   2.6692   3.7171

     highest occupied level (ev):    11.0066

!    total energy              =     -16.90889200 Ry
     estimated scf accuracy    <          2.5E-11 Ry

     The total energy is the sum of the following terms:
     one-electron contribution =       5.45513262 Ry
     hartree contribution      =       1.05029370 Ry
     xc contribution           =      -6.26064279 Ry
     ewald contribution        =     -17.15367553 Ry

     convergence has been achieved in  11 iterations

     Forces acting on atoms (cartesian axes, Ry/au):

     atom    1 type  1   force =    -0.00000000   -0.00000000   -0.00000000
     atom    2 type  1   force =     0.00000000    0.00000000    0.00000000

     Total force =     0.000000     Total SCF correction =     0.000000


     Computing stress (Cartesian axis) and pressure

          total   stress  (Ry/bohr**3)                   (kbar)     P=      100.23
   0.00068132  -0.00000000  -0.00000000          100.23       -0.00       -0.00
  -0.00000000   0.00068132   0.00000000           -0.00      100.23        0.00
  -0.00000000   0.00000000   0.00068132           -0.00        0.00      100.23

     Energy error            =      1.4E-02
     Gradient error          =      0.0E+00
     Cell gradient error     =      6.8E-04


     number of scf cycles    =  10
     number of bfgs steps    =   9

     enthalpy old            =     -16.8947425033 Ry
     enthalpy new            =     -16.9088919967 Ry

     CASE: enthalpy_new < enthalpy_old

     new trust radius        =       0.1340345250 bohr
ibrav =      2
 celldm(1) =     10.47183413
Input lattice vectors:
    -0.37399408    -0.00000000     0.37399408
    -0.00000000     0.37399408     0.37399408
    -0.37399408     0.37399408     0.00000000
New lattice vectors in INITIAL alat:
    -0.37399408     0.00000000     0.37399408
     0.00000000     0.37399408     0.37399408
    -0.37399408     0.37399408     0.00000000
New lattice vectors in NEW alat (for information only):
    -0.50000000     0.00000000     0.50000000
     0.00000000     0.50000000     0.50000000
    -0.50000000     0.50000000     0.00000000
Discrepancy in bohr =     0.000000    0.000000    0.000000
     new conv_thr            =       0.0000000010 Ry

     new unit-cell volume =    287.08353 a.u.^3 (    42.54139 Ang^3 )
     density =      2.19255 g/cm^3

CELL_PARAMETERS (alat= 14.00000000)
  -0.373994076   0.000000000   0.373994076
   0.000000000   0.373994076   0.373994076
  -0.373994076   0.373994076   0.000000000

ATOMIC_POSITIONS (alat)
Si            0.0000000000        0.0000000000        0.0000000000    0   0   0
Si            0.1869970380        0.1869970380        0.1869970380    0   0   0



     Writing output data file ./outdir/si.save/
     NEW-OLD atomic charge density approx. for the potential
     extrapolated charge    8.93030, renormalised to    8.00000

     total cpu time spent up to now is       20.5 secs

     Self-consistent Calculation

     iteration #  1     ecut=    30.00 Ry     beta= 0.70
     Davidson diagonalization with overlap
     ethr =  1.00E-06,  avg # of iterations =  9.0

     total cpu time spent up to now is       20.8 secs

     total energy              =     -16.90655733 Ry
     estimated scf accuracy    <       0.00351900 Ry

     iteration #  2     ecut=    30.00 Ry     beta= 0.70
     Davidson diagonalization with overlap
     ethr =  4.40E-05,  avg # of iterations =  3.9

     total cpu time spent up to now is       20.9 secs

     total energy              =     -16.91654934 Ry
     estimated scf accuracy    <       0.00425909 Ry

     iteration #  3     ecut=    30.00 Ry     beta= 0.70
     Davidson diagonalization with overlap
     ethr =  4.40E-05,  avg # of iterations =  1.0

     total cpu time spent up to now is       21.0 secs

     total energy              =     -16.91586882 Ry
     estimated scf accuracy    <       0.00159418 Ry

     iteration #  4     ecut=    30.00 Ry     beta= 0.70
     Davidson diagonalization with overlap
     ethr =  1.99E-05,  avg # of iterations =  2.0

     total cpu time spent up to now is       21.2 secs

     total energy              =     -16.91606693 Ry
     estimated scf accuracy    <       0.00024378 Ry

     iteration #  5     ecut=    30.00 Ry     beta= 0.70
     Davidson diagonalization with overlap
     ethr =  3.05E-06,  avg # of iterations =  1.0

     total cpu time spent up to now is       21.3 secs

     total energy              =     -16.91608134 Ry
     estimated scf accuracy    <       0.00000038 Ry

     iteration #  6     ecut=    30.00 Ry     beta= 0.70
     Davidson diagonalization with overlap
     ethr =  4.70E-09,  avg # of iterations =  5.9

     total cpu time spent up to now is       21.5 secs

     total energy              =     -16.91608153 Ry
     estimated scf accuracy    <       0.00000545 Ry

     iteration #  7     ecut=    30.00 Ry     beta= 0.70
     Davidson diagonalization with overlap
     ethr =  4.70E-09,  avg # of iterations =  3.0

     total cpu time spent up to now is       21.6 secs

     total energy              =     -16.91608183 Ry
     estimated scf accuracy    <       0.00000009 Ry

     iteration #  8     ecut=    30.00 Ry     beta= 0.70
     Davidson diagonalization with overlap
     ethr =  1.07E-09,  avg # of iterations =  2.6

     total cpu time spent up to now is       21.8 secs

     total energy              =     -16.91608186 Ry
     estimated scf accuracy    <          7.9E-09 Ry

     iteration #  9     ecut=    30.00 Ry     beta= 0.70
     Davidson diagonalization with overlap
     ethr =  9.92E-11,  avg # of iterations =  2.5
[...]

          k =-0.2707 0.2707-0.2707 (  1916 PWs)   bands (ev):

    -5.2956   3.0170   5.4352   5.4352

          k =-0.5414 0.5414-0.5414 (  1904 PWs)   bands (ev):

    -3.9660  -0.1847   4.8942   4.8942

          k = 0.0000 0.5414 0.0000 (  1916 PWs)   bands (ev):

    -5.1209   3.3607   4.5476   4.5476

          k =-0.2707 0.8121-0.2707 (  1898 PWs)   bands (ev):

    -4.0048   0.7364   3.4246   4.0472

          k = 0.8121-0.2707 0.8121 (  1901 PWs)   bands (ev):

    -3.1465  -0.6185   2.6329   4.3217

          k = 0.5414 0.0000 0.5414 (  1909 PWs)   bands (ev):

    -4.4820   1.5518   3.0697   5.1710

          k = 0.0000 1.0828 0.0000 (  1900 PWs)   bands (ev):

    -3.1456  -0.1376   3.3627   3.3627

          k = 1.0828 0.0000 1.0828 (  1896 PWs)   bands (ev):

    -1.9736  -1.3709   2.0359   3.4784

          k = 0.8121-0.2707 1.3536 (  1906 PWs)   bands (ev):

    -2.7206  -0.5141   2.1157   3.0815

     highest occupied level (ev):     6.0050

!    total energy              =     -16.92033980 Ry
     estimated scf accuracy    <          5.0E-10 Ry

     The total energy is the sum of the following terms:
     one-electron contribution =       4.78238302 Ry
     hartree contribution      =       1.12582822 Ry
     xc contribution           =      -6.16270256 Ry
     ewald contribution        =     -16.66584848 Ry

     convergence has been achieved in   7 iterations

     Forces acting on atoms (cartesian axes, Ry/au):

     atom    1 type  1   force =     0.00000000   -0.00000000    0.00000000
     atom    2 type  1   force =    -0.00000000    0.00000000   -0.00000000

     Total force =     0.000000     Total SCF correction =     0.000000


     Computing stress (Cartesian axis) and pressure

          total   stress  (Ry/bohr**3)                   (kbar)     P=       -0.11
  -0.00000078  -0.00000000  -0.00000000           -0.11       -0.00       -0.00
  -0.00000000  -0.00000078   0.00000000           -0.00       -0.11        0.00
  -0.00000000   0.00000000  -0.00000078           -0.00        0.00       -0.11

     Energy error            =      4.3E-05
     Gradient error          =      0.0E+00
     Cell gradient error     =      7.8E-07


     number of scf cycles    =  14
     number of bfgs steps    =  13

     enthalpy old            =     -16.9202972962 Ry
     enthalpy new            =     -16.9203398026 Ry

     CASE: enthalpy_new < enthalpy_old

     new trust radius        =       0.0001413799 bohr
ibrav =      2
 celldm(1) =     10.34272040
Input lattice vectors:
    -0.36938287     0.00000000     0.36938287
    -0.00000000     0.36938287     0.36938287
    -0.36938287     0.36938287     0.00000000
New lattice vectors in INITIAL alat:
    -0.36938287     0.00000000     0.36938287
     0.00000000     0.36938287     0.36938287
    -0.36938287     0.36938287     0.00000000
New lattice vectors in NEW alat (for information only):
    -0.50000000     0.00000000     0.50000000
     0.00000000     0.50000000     0.50000000
    -0.50000000     0.50000000     0.00000000
Discrepancy in bohr =     0.000000    0.000000    0.000000
     new conv_thr            =       0.0000000010 Ry

     new unit-cell volume =    276.59502 a.u.^3 (    40.98715 Ang^3 )
     density =      2.27569 g/cm^3

CELL_PARAMETERS (alat= 14.00000000)
  -0.369382871   0.000000000   0.369382871
   0.000000000   0.369382871   0.369382871
  -0.369382871   0.369382871   0.000000000

ATOMIC_POSITIONS (alat)
Si            0.0000000000        0.0000000000        0.0000000000    0   0   0
Si            0.1846914357        0.1846914357        0.1846914357    0   0   0



     Writing output data file ./outdir/si.save/
     NEW-OLD atomic charge density approx. for the potential
     extrapolated charge    7.99898, renormalised to    8.00000

     total cpu time spent up to now is       28.5 secs

     Self-consistent Calculation

     iteration #  1     ecut=    30.00 Ry     beta= 0.70
     Davidson diagonalization with overlap
     ethr =  1.00E-06,  avg # of iterations =  1.0

     Threshold (ethr) on eigenvalues was too large:
     Diagonalizing with lowered threshold

     Davidson diagonalization with overlap
     ethr =  7.05E-11,  avg # of iterations =  3.6

     total cpu time spent up to now is       28.7 secs

     total energy              =     -16.92033981 Ry
     estimated scf accuracy    <          5.0E-09 Ry

     iteration #  2     ecut=    30.00 Ry     beta= 0.70
     Davidson diagonalization with overlap
     ethr =  6.22E-11,  avg # of iterations =  3.8

     total cpu time spent up to now is       28.9 secs

     total energy              =     -16.92033982 Ry
     estimated scf accuracy    <          4.7E-09 Ry

     iteration #  3     ecut=    30.00 Ry     beta= 0.70
     Davidson diagonalization with overlap
     ethr =  5.82E-11,  avg # of iterations =  1.0

     total cpu time spent up to now is       29.0 secs

     total energy              =     -16.92033982 Ry
     estimated scf accuracy    <          1.6E-09 Ry

     iteration #  4     ecut=    30.00 Ry     beta= 0.70
     Davidson diagonalization with overlap
     ethr =  1.98E-11,  avg # of iterations =  2.0

     total cpu time spent up to now is       29.1 secs

     End of self-consistent calculation

          k = 0.0000 0.0000 0.0000 (  1917 PWs)   bands (ev):

    -5.8018   6.0063   6.0063   6.0063

          k =-0.2707 0.2707-0.2707 (  1916 PWs)   bands (ev):

    -5.2951   3.0182   5.4365   5.4365

          k =-0.5414 0.5414-0.5414 (  1904 PWs)   bands (ev):

    -3.9653  -0.1838   4.8954   4.8954

          k = 0.0000 0.5414 0.0000 (  1916 PWs)   bands (ev):

    -5.1204   3.3621   4.5488   4.5488

          k =-0.2707 0.8122-0.2707 (  1898 PWs)   bands (ev):

    -4.0041   0.7374   3.4256   4.0483

          k = 0.8122-0.2707 0.8122 (  1901 PWs)   bands (ev):

    -3.1457  -0.6177   2.6339   4.3228

          k = 0.5414 0.0000 0.5414 (  1909 PWs)   bands (ev):

    -4.4814   1.5530   3.0706   5.1722

          k = 0.0000 1.0829 0.0000 (  1900 PWs)   bands (ev):

    -3.1449  -0.1365   3.3637   3.3637

          k = 1.0829 0.0000 1.0829 (  1896 PWs)   bands (ev):

    -1.9726  -1.3699   2.0367   3.4795

          k = 0.8122-0.2707 1.3536 (  1906 PWs)   bands (ev):

    -2.7197  -0.5131   2.1165   3.0824

     highest occupied level (ev):     6.0063

!    total energy              =     -16.92033982 Ry
     estimated scf accuracy    <          1.9E-10 Ry

     The total energy is the sum of the following terms:
     one-electron contribution =       4.78334607 Ry
     hartree contribution      =       1.12571206 Ry
     xc contribution           =      -6.16284112 Ry
     ewald contribution        =     -16.66655684 Ry

     convergence has been achieved in   4 iterations

     Forces acting on atoms (cartesian axes, Ry/au):

     atom    1 type  1   force =    -0.00000000    0.00000000   -0.00000000
     atom    2 type  1   force =    -0.00000000   -0.00000000   -0.00000000

     Total force =     0.000000     Total SCF correction =     0.000000


     Computing stress (Cartesian axis) and pressure

          total   stress  (Ry/bohr**3)                   (kbar)     P=       -0.00
  -0.00000003  -0.00000000  -0.00000000           -0.00       -0.00       -0.00
  -0.00000000  -0.00000003   0.00000000           -0.00       -0.00        0.00
  -0.00000000   0.00000000  -0.00000003           -0.00        0.00       -0.00

     Energy error            =      1.6E-08
     Gradient error          =      0.0E+00
     Cell gradient error     =      2.7E-08

ibrav =      2
 celldm(1) =     10.34272040
Input lattice vectors:
    -0.36938287     0.00000000     0.36938287
     0.00000000     0.36938287     0.36938287
    -0.36938287     0.36938287     0.00000000
New lattice vectors in INITIAL alat:
    -0.36938287     0.00000000     0.36938287
     0.00000000     0.36938287     0.36938287
    -0.36938287     0.36938287     0.00000000
New lattice vectors in NEW alat (for information only):
    -0.50000000     0.00000000     0.50000000
     0.00000000     0.50000000     0.50000000
    -0.50000000     0.50000000     0.00000000
Discrepancy in bohr =     0.000000    0.000000    0.000000

     bfgs converged in  15 scf cycles and  14 bfgs steps
     (criteria: energy <  1.0E-05 Ry, force <  1.0E-04Ry/Bohr, cell <  5.0E-01kbar)

     End of BFGS Geometry Optimization

     Final enthalpy =     -16.9203398182 Ry

     File ./outdir/si.bfgs deleted, as requested
Begin final coordinates
     new unit-cell volume =    276.59502 a.u.^3 (    40.98715 Ang^3 )
     density =      2.27569 g/cm^3

CELL_PARAMETERS (alat= 14.00000000)
  -0.369382871   0.000000000   0.369382871
   0.000000000   0.369382871   0.369382871
  -0.369382871   0.369382871   0.000000000

ATOMIC_POSITIONS (alat)
Si            0.0000000000        0.0000000000        0.0000000000    0   0   0
Si            0.1846914357        0.1846914357        0.1846914357    0   0   0
End final coordinates



     Writing output data file ./outdir/si.save/

     Final scf calculation at the relaxed structure.
     The G-vectors are recalculated for the final unit cell
     Results may differ from those at the preceding step.
 
     Parallelization info
     --------------------
     sticks:   dense  smooth     PW     G-vecs:    dense   smooth      PW
     Min         109     109     37                 1545     1545     284
     Max         110     110     38                 1546     1546     285
     Sum         439     439    151                 6183     6183    1139
 


     bravais-lattice index     =            2
     lattice parameter (alat)  =      14.0000  a.u.
     unit-cell volume          =     276.5950 (a.u.)^3
     number of atoms/cell      =            2
     number of atomic types    =            1
     number of electrons       =         8.00
     number of Kohn-Sham states=            4
     kinetic-energy cutoff     =      30.0000  Ry
     charge density cutoff     =     120.0000  Ry
     scf convergence threshold =      1.0E-09
     mixing beta               =       0.7000
     number of iterations used =            8  plain     mixing
     press convergence thresh. =      5.0E-01
     Exchange-correlation= PBE
                           (   1   4   3   4   0   0   0)

     celldm(1)=  14.000000  celldm(2)=   0.000000  celldm(3)=   0.000000
     celldm(4)=   0.000000  celldm(5)=   0.000000  celldm(6)=   0.000000

     crystal axes: (cart. coord. in units of alat)
               a(1) = (  -0.369383   0.000000   0.369383 )  
               a(2) = (   0.000000   0.369383   0.369383 )  
               a(3) = (  -0.369383   0.369383   0.000000 )  

     reciprocal axes: (cart. coord. in units 2 pi/alat)
               b(1) = ( -1.353609 -1.353609  1.353609 )  
               b(2) = (  1.353609  1.353609  1.353609 )  
               b(3) = ( -1.353609  1.353609 -1.353609 )  


     PseudoPot. # 1 for Si read from file:
     ./Si_r.upf
     MD5 check sum: c84abb4b0aac9c93a8e9f74896432a0a
     Pseudo is Norm-conserving + core correction, Zval =  4.0
     Generated using ONCVPSP code by D. R. Hamann
     Using radial grid of 1528 points,  6 beta functions with: 
                l(1) =   0
                l(2) =   0
                l(3) =   1
                l(4) =   1
                l(5) =   2
                l(6) =   2

     atomic species   valence    mass     pseudopotential
        Si             4.00    28.08550     Si( 1.00)

     48 Sym. Ops., with inversion, found (24 have fractional translation)



   Cartesian axes

     site n.     atom                  positions (alat units)
         1           Si  tau(   1) = (   0.0000000   0.0000000   0.0000000  )
         2           Si  tau(   2) = (   0.1846914   0.1846914   0.1846914  )

     number of k points=    10
                       cart. coord. in units 2pi/alat
        k(    1) = (   0.0000000   0.0000000   0.0000000), wk =   0.0160000
        k(    2) = (  -0.2707218   0.2707218  -0.2707218), wk =   0.1280000
        k(    3) = (  -0.5414436   0.5414436  -0.5414436), wk =   0.1280000
        k(    4) = (   0.0000000   0.5414436   0.0000000), wk =   0.0960000
        k(    5) = (  -0.2707218   0.8121654  -0.2707218), wk =   0.3840000
        k(    6) = (   0.8121654  -0.2707218   0.8121654), wk =   0.3840000
        k(    7) = (   0.5414436   0.0000000   0.5414436), wk =   0.1920000
        k(    8) = (   0.0000000   1.0828872   0.0000000), wk =   0.0960000
        k(    9) = (   1.0828872   0.0000000   1.0828872), wk =   0.1920000
        k(   10) = (   0.8121654  -0.2707218   1.3536091), wk =   0.3840000

     Dense  grid:     6183 G-vectors     FFT dimensions: (  32,  32,  32)

     Estimated max dynamical RAM per process >       3.28 MB

     Estimated total dynamical RAM >      13.11 MB

     Initial potential from superposition of free atoms

     starting charge    7.99877, renormalised to    8.00000
     Starting wfcs are    8 randomized atomic wfcs

     total cpu time spent up to now is       29.5 secs

     Self-consistent Calculation

     iteration #  1     ecut=    30.00 Ry     beta= 0.70
     Davidson diagonalization with overlap
     ethr =  1.00E-06,  avg # of iterations = 10.4

     total cpu time spent up to now is       29.7 secs

     total energy              =     -16.91776864 Ry
     estimated scf accuracy    <       0.05740062 Ry

     iteration #  2     ecut=    30.00 Ry     beta= 0.70
     Davidson diagonalization with overlap
     ethr =  7.18E-04,  avg # of iterations =  1.0

     total cpu time spent up to now is       29.8 secs

     total energy              =     -16.91966467 Ry
     estimated scf accuracy    <       0.00248323 Ry

     iteration #  3     ecut=    30.00 Ry     beta= 0.70
     Davidson diagonalization with overlap
     ethr =  3.10E-05,  avg # of iterations =  1.9

     total cpu time spent up to now is       29.8 secs

     total energy              =     -16.91996489 Ry
     estimated scf accuracy    <       0.00002051 Ry

     iteration #  4     ecut=    30.00 Ry     beta= 0.70
     Davidson diagonalization with overlap
     ethr =  2.56E-07,  avg # of iterations =  4.9

     total cpu time spent up to now is       30.0 secs

     total energy              =     -16.92000573 Ry
     estimated scf accuracy    <       0.00000552 Ry

     iteration #  5     ecut=    30.00 Ry     beta= 0.70
     Davidson diagonalization with overlap
     ethr =  6.91E-08,  avg # of iterations =  2.1

     total cpu time spent up to now is       30.0 secs

     total energy              =     -16.92000607 Ry
     estimated scf accuracy    <       0.00000296 Ry

     iteration #  6     ecut=    30.00 Ry     beta= 0.70
     Davidson diagonalization with overlap
     ethr =  3.70E-08,  avg # of iterations =  1.7

     total cpu time spent up to now is       30.1 secs

     total energy              =     -16.92000633 Ry
     estimated scf accuracy    <          5.0E-09 Ry

     iteration #  7     ecut=    30.00 Ry     beta= 0.70
     Davidson diagonalization with overlap
     ethr =  6.23E-11,  avg # of iterations =  7.5

     total cpu time spent up to now is       30.3 secs

     total energy              =     -16.92000637 Ry
     estimated scf accuracy    <          1.9E-09 Ry

     iteration #  8     ecut=    30.00 Ry     beta= 0.70
     Davidson diagonalization with overlap
     ethr =  2.43E-11,  avg # of iterations =  1.3

     total cpu time spent up to now is       30.3 secs

     End of self-consistent calculation

          k = 0.0000 0.0000 0.0000 (   749 PWs)   bands (ev):

    -5.8020   6.0078   6.0078   6.0078

          k =-0.2707 0.2707-0.2707 (   776 PWs)   bands (ev):

    -5.2952   3.0186   5.4373   5.4373

          k =-0.5414 0.5414-0.5414 (   769 PWs)   bands (ev):

    -3.9653  -0.1837   4.8959   4.8959

          k = 0.0000 0.5414 0.0000 (   785 PWs)   bands (ev):

    -5.1205   3.3626   4.5492   4.5492

          k =-0.2707 0.8122-0.2707 (   763 PWs)   bands (ev):

    -4.0042   0.7377   3.4260   4.0486

          k = 0.8122-0.2707 0.8122 (   775 PWs)   bands (ev):

    -3.1457  -0.6176   2.6341   4.3231

          k = 0.5414 0.0000 0.5414 (   770 PWs)   bands (ev):

    -4.4815   1.5533   3.0709   5.1729

          k = 0.0000 1.0829 0.0000 (   761 PWs)   bands (ev):

    -3.1449  -0.1363   3.3638   3.3638

          k = 1.0829 0.0000 1.0829 (   764 PWs)   bands (ev):

    -1.9726  -1.3699   2.0369   3.4796

          k = 0.8122-0.2707 1.3536 (   754 PWs)   bands (ev):

    -2.7197  -0.5129   2.1167   3.0826

     highest occupied level (ev):     6.0078

!    total energy              =     -16.92000637 Ry
     estimated scf accuracy    <          6.8E-10 Ry

     The total energy is the sum of the following terms:
     one-electron contribution =       4.78372445 Ry
     hartree contribution      =       1.12547287 Ry
     xc contribution           =      -6.16264681 Ry
     ewald contribution        =     -16.66655688 Ry

     convergence has been achieved in   8 iterations

     Forces acting on atoms (cartesian axes, Ry/au):

     atom    1 type  1   force =     0.00000000    0.00000000    0.00000000
     atom    2 type  1   force =     0.00000000    0.00000000    0.00000000

     Total force =     0.000000     Total SCF correction =     0.000000


     Computing stress (Cartesian axis) and pressure

          total   stress  (Ry/bohr**3)                   (kbar)     P=       -0.62
  -0.00000421  -0.00000000  -0.00000000           -0.62       -0.00       -0.00
  -0.00000000  -0.00000421   0.00000000           -0.00       -0.62        0.00
  -0.00000000   0.00000000  -0.00000421           -0.00        0.00       -0.62


     Writing output data file ./outdir/si.save/
 
     init_run     :      0.28s CPU      0.67s WALL (       2 calls)
     electrons    :     21.13s CPU     23.55s WALL (      16 calls)
     update_pot   :      1.60s CPU      1.64s WALL (      14 calls)
     forces       :      1.16s CPU      1.17s WALL (      16 calls)
     stress       :      2.21s CPU      2.26s WALL (      16 calls)

     Called by init_run:
     wfcinit      :      0.08s CPU      0.22s WALL (       2 calls)
     potinit      :      0.06s CPU      0.06s WALL (       2 calls)
     hinit0       :      0.11s CPU      0.36s WALL (       2 calls)

     Called by electrons:
     c_bands      :     17.97s CPU     19.80s WALL (     163 calls)
     sum_band     :      1.88s CPU      2.04s WALL (     163 calls)
     v_of_rho     :      1.17s CPU      1.24s WALL (     177 calls)
     mix_rho      :      0.13s CPU      0.15s WALL (     163 calls)

     Called by c_bands:
     init_us_2    :      0.47s CPU      0.56s WALL (    3600 calls)
     cegterg      :     15.35s CPU     16.28s WALL (    1630 calls)

     Called by *egterg:
     cdiaghg      :      3.13s CPU      3.38s WALL (    6138 calls)
     h_psi        :     10.58s CPU     11.31s WALL (    6318 calls)
     g_psi        :      0.03s CPU      0.03s WALL (    4668 calls)

     Called by h_psi:
     h_psi:calbec :      0.67s CPU      0.72s WALL (    6318 calls)
     vloc_psi     :      9.44s CPU     10.08s WALL (    6318 calls)
     add_vuspsi   :      0.42s CPU      0.45s WALL (    6318 calls)

     General routines
     calbec       :      0.76s CPU      0.81s WALL (    7118 calls)
     fft          :      0.84s CPU      1.15s WALL (    2170 calls)
     ffts         :      0.06s CPU      0.07s WALL (     163 calls)
     fftw         :     10.27s CPU     10.99s WALL (   49372 calls)
 
     Parallel routines
     fft_scatt_xy :      0.69s CPU      0.73s WALL (   51705 calls)
     fft_scatt_yz :      4.15s CPU      4.48s WALL (   51705 calls)
 
     PWSCF        :     26.63s CPU     32.89s WALL

 
   This run was terminated on:  21:21:48   1Jul2021            

=------------------------------------------------------------------------------=
   JOB DONE.
=------------------------------------------------------------------------------=
