
     Program PWSCF v.6.7MaX starts on 12Jun2021 at 18:11: 9 

     This program is part of the open-source Quantum ESPRESSO suite
     for quantum simulation of materials; please cite
         "P. Giannozzi et al., J. Phys.:Condens. Matter 21 395502 (2009);
         "P. Giannozzi et al., J. Phys.:Condens. Matter 29 465901 (2017);
          URL http://www.quantum-espresso.org", 
     in publications or presentations arising from this work. More details at
     http://www.quantum-espresso.org/quote

     Parallel version (MPI), running on    12 processors

     MPI processes distributed on     1 nodes
     R & G space division:  proc/nbgrp/npool/nimage =      12
     Waiting for input...
     Reading input from standard input

     Current dimensions of program PWSCF are:
     Max number of different atomic species (ntypx) = 10
     Max number of k-points (npk) =  40000
     Max angular momentum in pseudopotentials (lmaxx) =  3
     Message from routine read_pp_mesh:
     mesh size missing, using the one in header

     Subspace diagonalization in iterative solution of the eigenvalue problem:
     a serial algorithm will be used

 
     Parallelization info
     --------------------
     sticks:   dense  smooth     PW     G-vecs:    dense   smooth      PW
     Min          68      68     21                 1265     1265     213
     Max          69      69     22                 1267     1267     215
     Sum         817     817    253                15185    15185    2565
 


     bravais-lattice index     =            2
     lattice parameter (alat)  =      14.0000  a.u.
     unit-cell volume          =     686.0000 (a.u.)^3
     number of atoms/cell      =            2
     number of atomic types    =            1
     number of electrons       =         8.00
     number of Kohn-Sham states=            4
     kinetic-energy cutoff     =      30.0000  Ry
     charge density cutoff     =     120.0000  Ry
     scf convergence threshold =      1.0E-07
     mixing beta               =       0.7000
     number of iterations used =            8  plain     mixing
     energy convergence thresh.=      1.0E-05
     force convergence thresh. =      1.0E-04
     press convergence thresh. =      5.0E-01
     Exchange-correlation= PBE
                           (   1   4   3   4   0   0   0)
     nstep                     =           50


     celldm(1)=  14.000000  celldm(2)=   0.000000  celldm(3)=   0.000000
     celldm(4)=   0.000000  celldm(5)=   0.000000  celldm(6)=   0.000000

     crystal axes: (cart. coord. in units of alat)
               a(1) = (  -0.500000   0.000000   0.500000 )  
               a(2) = (   0.000000   0.500000   0.500000 )  
               a(3) = (  -0.500000   0.500000   0.000000 )  

     reciprocal axes: (cart. coord. in units 2 pi/alat)
               b(1) = ( -1.000000 -1.000000  1.000000 )  
               b(2) = (  1.000000  1.000000  1.000000 )  
               b(3) = ( -1.000000  1.000000 -1.000000 )  


     PseudoPot. # 1 for Si read from file:
     ./Si_r.upf
     MD5 check sum: c84abb4b0aac9c93a8e9f74896432a0a
     Pseudo is Norm-conserving + core correction, Zval =  4.0
     Generated using ONCVPSP code by D. R. Hamann
     Using radial grid of 1528 points,  6 beta functions with: 
                l(1) =   0
                l(2) =   0
                l(3) =   1
                l(4) =   1
                l(5) =   2
                l(6) =   2

     atomic species   valence    mass     pseudopotential
        Si             4.00    28.08550     Si( 1.00)

     48 Sym. Ops., with inversion, found (24 have fractional translation)



   Cartesian axes

     site n.     atom                  positions (alat units)
         1           Si  tau(   1) = (   0.0000000   0.0000000   0.0000000  )
         2           Si  tau(   2) = (   0.2500000   0.2500000   0.2500000  )

     number of k points=    10
                       cart. coord. in units 2pi/alat
        k(    1) = (   0.0000000   0.0000000   0.0000000), wk =   0.0160000
        k(    2) = (  -0.2000000   0.2000000  -0.2000000), wk =   0.1280000
        k(    3) = (  -0.4000000   0.4000000  -0.4000000), wk =   0.1280000
        k(    4) = (   0.0000000   0.4000000   0.0000000), wk =   0.0960000
        k(    5) = (  -0.2000000   0.6000000  -0.2000000), wk =   0.3840000
        k(    6) = (   0.6000000  -0.2000000   0.6000000), wk =   0.3840000
        k(    7) = (   0.4000000   0.0000000   0.4000000), wk =   0.1920000
        k(    8) = (   0.0000000   0.8000000   0.0000000), wk =   0.0960000
        k(    9) = (   0.8000000   0.0000000   0.8000000), wk =   0.1920000
        k(   10) = (   0.6000000  -0.2000000   1.0000000), wk =   0.3840000

     Dense  grid:    15185 G-vectors     FFT dimensions: (  36,  36,  36)

     Estimated max dynamical RAM per process >       2.79 MB

     Estimated total dynamical RAM >      33.49 MB

     Initial potential from superposition of free atoms

     starting charge    7.99877, renormalised to    8.00000
     Starting wfcs are    8 randomized atomic wfcs

     total cpu time spent up to now is        0.8 secs

     Self-consistent Calculation

     iteration #  1     ecut=    30.00 Ry     beta= 0.70
     Davidson diagonalization with overlap
     ethr =  1.00E-02,  avg # of iterations =  1.0

     Threshold (ethr) on eigenvalues was too large:
     Diagonalizing with lowered threshold

     Davidson diagonalization with overlap
     ethr =  1.42E-04,  avg # of iterations =  2.9

     total cpu time spent up to now is        1.0 secs

     total energy              =     -16.60702482 Ry
     estimated scf accuracy    <       0.01294989 Ry

     iteration #  2     ecut=    30.00 Ry     beta= 0.70
     Davidson diagonalization with overlap
     ethr =  1.62E-04,  avg # of iterations =  1.0

     total cpu time spent up to now is        1.0 secs

     total energy              =     -16.60753469 Ry
     estimated scf accuracy    <       0.00126724 Ry

     iteration #  3     ecut=    30.00 Ry     beta= 0.70
     Davidson diagonalization with overlap
     ethr =  1.58E-05,  avg # of iterations =  1.7

     total cpu time spent up to now is        1.0 secs

     total energy              =     -16.60765367 Ry
     estimated scf accuracy    <       0.00000810 Ry

     iteration #  4     ecut=    30.00 Ry     beta= 0.70
     Davidson diagonalization with overlap
     c_bands:  1 eigenvalues not converged
     ethr =  1.01E-07,  avg # of iterations =  9.6

     total cpu time spent up to now is        1.1 secs

     total energy              =     -16.60768739 Ry
     estimated scf accuracy    <       0.00000312 Ry

     iteration #  5     ecut=    30.00 Ry     beta= 0.70
     Davidson diagonalization with overlap
     ethr =  3.90E-08,  avg # of iterations =  3.7

     total cpu time spent up to now is        1.1 secs

     End of self-consistent calculation

          k = 0.0000 0.0000 0.0000 (  1917 PWs)   bands (ev):

    -8.0173  -4.0092  -0.2091  -0.2091

          k =-0.2000 0.2000-0.2000 (  1916 PWs)   bands (ev):

    -7.8229  -4.5287  -0.4264  -0.4264

          k =-0.4000 0.4000-0.4000 (  1904 PWs)   bands (ev):

    -7.3746  -5.4015  -0.6784  -0.6784

          k = 0.0000 0.4000 0.0000 (  1916 PWs)   bands (ev):

    -7.7519  -4.6770  -0.7193  -0.7193

          k =-0.2000 0.6000-0.2000 (  1898 PWs)   bands (ev):

    -7.3458  -5.4147  -1.2217  -0.9486

          k = 0.6000-0.2000 0.6000 (  1901 PWs)   bands (ev):

    -7.0944  -5.7783  -1.5193  -0.8733

          k = 0.4000 0.0000 0.4000 (  1909 PWs)   bands (ev):

    -7.5219  -5.1278  -1.2255  -0.5636

          k = 0.0000 0.8000 0.0000 (  1900 PWs)   bands (ev):

    -6.9993  -5.8913  -1.2209  -1.2209

          k = 0.8000 0.0000 0.8000 (  1896 PWs)   bands (ev):

    -6.6313  -6.3138  -1.5716  -1.1847

          k = 0.6000-0.2000 1.0000 (  1906 PWs)   bands (ev):

    -6.8912  -6.0180  -1.5577  -1.2271

     highest occupied level (ev):    -0.2091

!    total energy              =     -16.60768884 Ry
     estimated scf accuracy    <       0.00000006 Ry

     The total energy is the sum of the following terms:
     one-electron contribution =      -0.97645960 Ry
     hartree contribution      =       2.15541051 Ry
     xc contribution           =      -5.47395847 Ry
     ewald contribution        =     -12.31268128 Ry

     convergence has been achieved in   5 iterations

     Forces acting on atoms (cartesian axes, Ry/au):

     atom    1 type  1   force =    -0.00000000    0.00000000    0.00000000
     atom    2 type  1   force =     0.00000000   -0.00000000   -0.00000000

     Total force =     0.000000     Total SCF correction =     0.000000


     Computing stress (Cartesian axis) and pressure

          total   stress  (Ry/bohr**3)                   (kbar)     P=      -90.67
  -0.00061637   0.00000000   0.00000000          -90.67        0.00        0.00
   0.00000000  -0.00061637  -0.00000000            0.00      -90.67       -0.00
   0.00000000  -0.00000000  -0.00061637            0.00       -0.00      -90.67


     BFGS Geometry Optimization
     Energy error            =      0.0E+00
     Gradient error          =      0.0E+00
     Cell gradient error     =      6.2E-04


     number of scf cycles    =   1
     number of bfgs steps    =   0

     enthalpy new            =     -16.6076888380 Ry

     new trust radius        =       0.0807184091 bohr
ibrav =      2
 celldm(1) =     13.78427097
Input lattice vectors:
    -0.49229539    -0.00000000     0.49229539
     0.00000000     0.49229539     0.49229539
    -0.49229539     0.49229539    -0.00000000
New lattice vectors in INITIAL alat:
    -0.49229539     0.00000000     0.49229539
     0.00000000     0.49229539     0.49229539
    -0.49229539     0.49229539     0.00000000
New lattice vectors in NEW alat (for information only):
    -0.50000000     0.00000000     0.50000000
     0.00000000     0.50000000     0.50000000
    -0.50000000     0.50000000     0.00000000
Discrepancy in bohr =     0.000000    0.000000    0.000000
     new conv_thr            =       0.0000001000 Ry

     new unit-cell volume =    654.77398 a.u.^3 (    97.02749 Ang^3 )
     density =      0.96132 g/cm^3

CELL_PARAMETERS (alat= 14.00000000)
  -0.492295392   0.000000000   0.492295392
   0.000000000   0.492295392   0.492295392
  -0.492295392   0.492295392   0.000000000

ATOMIC_POSITIONS (alat)
Si            0.0000000000        0.0000000000        0.0000000000    0   0   0
Si            0.2461476960        0.2461476960        0.2461476960    0   0   0



     Writing output data file ./outdir/si.save/
     NEW-OLD atomic charge density approx. for the potential
     extrapolated charge    7.61854, renormalised to    8.00000

     total cpu time spent up to now is        1.3 secs

     Self-consistent Calculation

     iteration #  1     ecut=    30.00 Ry     beta= 0.70
     Davidson diagonalization with overlap
     ethr =  1.00E-06,  avg # of iterations =  7.7

     total cpu time spent up to now is        1.4 secs

     total energy              =     -16.62458866 Ry
     estimated scf accuracy    <       0.00182932 Ry

     iteration #  2     ecut=    30.00 Ry     beta= 0.70
     Davidson diagonalization with overlap
     ethr =  2.29E-05,  avg # of iterations =  3.2

     total cpu time spent up to now is        1.4 secs

     total energy              =     -16.62755492 Ry
     estimated scf accuracy    <       0.00094520 Ry

     iteration #  3     ecut=    30.00 Ry     beta= 0.70
     Davidson diagonalization with overlap
     ethr =  1.18E-05,  avg # of iterations =  1.0

     total cpu time spent up to now is        1.5 secs

     total energy              =     -16.62753044 Ry
     estimated scf accuracy    <       0.00025923 Ry

     iteration #  4     ecut=    30.00 Ry     beta= 0.70
     Davidson diagonalization with overlap
     ethr =  3.24E-06,  avg # of iterations =  1.2

     total cpu time spent up to now is        1.5 secs

     total energy              =     -16.62750460 Ry
     estimated scf accuracy    <       0.00008613 Ry

     iteration #  5     ecut=    30.00 Ry     beta= 0.70
     Davidson diagonalization with overlap
     ethr =  1.08E-06,  avg # of iterations =  2.1

     total cpu time spent up to now is        1.5 secs

     total energy              =     -16.62751799 Ry
     estimated scf accuracy    <       0.00000487 Ry

     iteration #  6     ecut=    30.00 Ry     beta= 0.70
     Davidson diagonalization with overlap
     ethr =  6.09E-08,  avg # of iterations =  3.3

     total cpu time spent up to now is        1.6 secs

     total energy              =     -16.62751957 Ry
     estimated scf accuracy    <       0.00000023 Ry

     iteration #  7     ecut=    30.00 Ry     beta= 0.70
     Davidson diagonalization with overlap
     ethr =  2.92E-09,  avg # of iterations =  4.5

     total cpu time spent up to now is        1.6 secs

     End of self-consistent calculation

          k = 0.0000 0.0000 0.0000 (  1917 PWs)   bands (ev):

    -7.9347  -3.5986  -0.0094  -0.0094

          k =-0.2031 0.2031-0.2031 (  1916 PWs)   bands (ev):

    -7.7283  -4.1897  -0.2393  -0.2393

          k =-0.4063 0.4063-0.4063 (  1904 PWs)   bands (ev):

    -7.2498  -5.1543  -0.5038  -0.5038

          k = 0.0000 0.4063 0.0000 (  1916 PWs)   bands (ev):

    -7.6530  -4.3511  -0.5508  -0.5508

          k =-0.2031 0.6094-0.2031 (  1898 PWs)   bands (ev):

    -7.2208  -5.1589  -1.0808  -0.7912

          k = 0.6094-0.2031 0.6094 (  1901 PWs)   bands (ev):

    -6.9513  -5.5543  -1.3961  -0.7103

          k = 0.4063 0.0000 0.4063 (  1909 PWs)   bands (ev):

    -7.4082  -4.8482  -1.0891  -0.3828

          k = 0.0000 0.8125 0.0000 (  1900 PWs)   bands (ev):

    -6.8530  -5.6690  -1.0783  -1.0783

          k = 0.8125 0.0000 0.8125 (  1896 PWs)   bands (ev):

    -6.4590  -6.1226  -1.4549  -1.0396

          k = 0.6094-0.2031 1.0157 (  1906 PWs)   bands (ev):

    -6.7364  -5.8057  -1.4405  -1.0883

     highest occupied level (ev):    -0.0094

!    total energy              =     -16.62751970 Ry
     estimated scf accuracy    <       0.00000008 Ry

     The total energy is the sum of the following terms:
     one-electron contribution =      -0.71711844 Ry
     hartree contribution      =       2.09048722 Ry
     xc contribution           =      -5.49550912 Ry
     ewald contribution        =     -12.50537936 Ry

     convergence has been achieved in   7 iterations

     Forces acting on atoms (cartesian axes, Ry/au):

     atom    1 type  1   force =     0.00000000   -0.00000000    0.00000000
     atom    2 type  1   force =     0.00000000    0.00000000    0.00000000

     Total force =     0.000000     Total SCF correction =     0.000000


     Computing stress (Cartesian axis) and pressure

          total   stress  (Ry/bohr**3)                   (kbar)     P=      -96.19
  -0.00065391  -0.00000000  -0.00000000          -96.19       -0.00       -0.00
  -0.00000000  -0.00065391   0.00000000           -0.00      -96.19        0.00
  -0.00000000   0.00000000  -0.00065391           -0.00        0.00      -96.19

     Energy error            =      2.0E-02
     Gradient error          =      0.0E+00
     Cell gradient error     =      6.5E-04


     number of scf cycles    =   2
     number of bfgs steps    =   1

     enthalpy old            =     -16.6076888380 Ry
     enthalpy new            =     -16.6275197000 Ry

     CASE: enthalpy_new < enthalpy_old


     WARNING: bfgs curvature condition failed, Theta= 0.778
     new trust radius        =       0.1201411365 bohr
ibrav =      2
 celldm(1) =     13.46067744
Input lattice vectors:
    -0.48073848    -0.00000000     0.48073848
     0.00000000     0.48073848     0.48073848
    -0.48073848     0.48073848    -0.00000000
New lattice vectors in INITIAL alat:
    -0.48073848     0.00000000     0.48073848
     0.00000000     0.48073848     0.48073848
    -0.48073848     0.48073848     0.00000000
New lattice vectors in NEW alat (for information only):
    -0.50000000     0.00000000     0.50000000
     0.00000000     0.50000000     0.50000000
    -0.50000000     0.50000000     0.00000000
Discrepancy in bohr =     0.000000    0.000000    0.000000
     new conv_thr            =       0.0000000010 Ry

     new unit-cell volume =    609.73449 a.u.^3 (    90.35333 Ang^3 )
     density =      1.03233 g/cm^3

CELL_PARAMETERS (alat= 14.00000000)
  -0.480738480   0.000000000   0.480738480
   0.000000000   0.480738480   0.480738480
  -0.480738480   0.480738480   0.000000000

ATOMIC_POSITIONS (alat)
Si            0.0000000000        0.0000000000        0.0000000000    0   0   0
Si            0.2403692400        0.2403692400        0.2403692400    0   0   0



     Writing output data file ./outdir/si.save/
     NEW-OLD atomic charge density approx. for the potential
     extrapolated charge    7.40915, renormalised to    8.00000

     total cpu time spent up to now is        1.8 secs

     Self-consistent Calculation

     iteration #  1     ecut=    30.00 Ry     beta= 0.70
     Davidson diagonalization with overlap
     ethr =  1.00E-06,  avg # of iterations =  8.6

     total cpu time spent up to now is        1.9 secs

     total energy              =     -16.65167618 Ry
     estimated scf accuracy    <       0.00436056 Ry

     iteration #  2     ecut=    30.00 Ry     beta= 0.70
     Davidson diagonalization with overlap
     ethr =  5.45E-05,  avg # of iterations =  3.2

     total cpu time spent up to now is        1.9 secs

     total energy              =     -16.65836565 Ry
     estimated scf accuracy    <       0.00202551 Ry

     iteration #  3     ecut=    30.00 Ry     beta= 0.70
     Davidson diagonalization with overlap
     ethr =  2.53E-05,  avg # of iterations =  1.1

     total cpu time spent up to now is        1.9 secs

     total energy              =     -16.65823243 Ry
     estimated scf accuracy    <       0.00054536 Ry

     iteration #  4     ecut=    30.00 Ry     beta= 0.70
     Davidson diagonalization with overlap
     ethr =  6.82E-06,  avg # of iterations =  2.0

     total cpu time spent up to now is        2.0 secs

     total energy              =     -16.65829593 Ry
     estimated scf accuracy    <       0.00001133 Ry

     iteration #  5     ecut=    30.00 Ry     beta= 0.70
     Davidson diagonalization with overlap
     ethr =  1.42E-07,  avg # of iterations =  4.1

     total cpu time spent up to now is        2.0 secs

     total energy              =     -16.65830243 Ry
     estimated scf accuracy    <       0.00000995 Ry

     iteration #  6     ecut=    30.00 Ry     beta= 0.70
     Davidson diagonalization with overlap
     ethr =  1.24E-07,  avg # of iterations =  1.7

     total cpu time spent up to now is        2.0 secs

     total energy              =     -16.65830311 Ry
     estimated scf accuracy    <       0.00000019 Ry

     iteration #  7     ecut=    30.00 Ry     beta= 0.70
     Davidson diagonalization with overlap
     ethr =  2.32E-09,  avg # of iterations =  5.1

     total cpu time spent up to now is        2.1 secs

     total energy              =     -16.65830337 Ry
     estimated scf accuracy    <       0.00000003 Ry

     iteration #  8     ecut=    30.00 Ry     beta= 0.70
     Davidson diagonalization with overlap
     ethr =  3.48E-10,  avg # of iterations =  2.5

     total cpu time spent up to now is        2.1 secs

     total energy              =     -16.65830337 Ry
     estimated scf accuracy    <       0.00000002 Ry

     iteration #  9     ecut=    30.00 Ry     beta= 0.70
     Davidson diagonalization with overlap
     ethr =  1.89E-10,  avg # of iterations =  2.0

     total cpu time spent up to now is        2.2 secs

     total energy              =     -16.65830337 Ry
     estimated scf accuracy    <          1.3E-09 Ry

     iteration # 10     ecut=    30.00 Ry     beta= 0.70
     Davidson diagonalization with overlap
     ethr =  1.61E-11,  avg # of iterations =  2.7

     total cpu time spent up to now is        2.2 secs

     End of self-consistent calculation

          k = 0.0000 0.0000 0.0000 (  1917 PWs)   bands (ev):

    -7.8025  -2.9246   0.3172   0.3172

          k =-0.2080 0.2080-0.2080 (  1916 PWs)   bands (ev):

    -7.5770  -3.6474   0.0671   0.0671

          k =-0.4160 0.4160-0.4160 (  1904 PWs)   bands (ev):

    -7.0498  -4.7666  -0.2171  -0.2171

          k = 0.0000 0.4160 0.0000 (  1916 PWs)   bands (ev):

    -7.4951  -3.8285  -0.2749  -0.2749

          k =-0.2080 0.6240-0.2080 (  1898 PWs)   bands (ev):

    -7.0209  -4.7523  -0.8491  -0.5330

          k = 0.6240-0.2080 0.6240 (  1901 PWs)   bands (ev):

    -6.7217  -5.2001  -1.1931  -0.4427

          k = 0.4160 0.0000 0.4160 (  1909 PWs)   bands (ev):

    -7.2263  -4.4034  -0.8655  -0.0863

          k = 0.0000 0.8321 0.0000 (  1900 PWs)   bands (ev):

    -6.6193  -5.3142  -0.8438  -0.8438

          k = 0.8321 0.0000 0.8321 (  1896 PWs)   bands (ev):

    -6.1833  -5.8177  -1.2638  -0.8010

          k = 0.6240-0.2080 1.0401 (  1906 PWs)   bands (ev):

    -6.4886  -5.4671  -1.2482  -0.8610

     highest occupied level (ev):     0.3172

!    total energy              =     -16.65830337 Ry
     estimated scf accuracy    <          3.1E-10 Ry

     The total energy is the sum of the following terms:
     one-electron contribution =      -0.31466395 Ry
     hartree contribution      =       1.99304566 Ry
     xc contribution           =      -5.53067748 Ry
     ewald contribution        =     -12.80600760 Ry

     convergence has been achieved in  10 iterations

     Forces acting on atoms (cartesian axes, Ry/au):

     atom    1 type  1   force =     0.00000000    0.00000000   -0.00000000
     atom    2 type  1   force =     0.00000000    0.00000000    0.00000000

     Total force =     0.000000     Total SCF correction =     0.000000


     Computing stress (Cartesian axis) and pressure

          total   stress  (Ry/bohr**3)                   (kbar)     P=     -104.95
  -0.00071347   0.00000000  -0.00000000         -104.95        0.00       -0.00
   0.00000000  -0.00071347   0.00000000            0.00     -104.95        0.00
   0.00000000   0.00000000  -0.00071347            0.00        0.00     -104.95

     Energy error            =      3.1E-02
     Gradient error          =      0.0E+00
     Cell gradient error     =      7.1E-04


     number of scf cycles    =   3
     number of bfgs steps    =   2

     enthalpy old            =     -16.6275197000 Ry
     enthalpy new            =     -16.6583033675 Ry

     CASE: enthalpy_new < enthalpy_old


     WARNING: bfgs curvature condition failed, Theta= 0.442
     new trust radius        =       0.1780838567 bohr
ibrav =      2
 celldm(1) =     12.97528713
Input lattice vectors:
    -0.46340311    -0.00000000     0.46340311
     0.00000000     0.46340311     0.46340311
    -0.46340311     0.46340311    -0.00000000
New lattice vectors in INITIAL alat:
    -0.46340311     0.00000000     0.46340311
     0.00000000     0.46340311     0.46340311
    -0.46340311     0.46340311     0.00000000
New lattice vectors in NEW alat (for information only):
    -0.50000000     0.00000000     0.50000000
     0.00000000     0.50000000     0.50000000
    -0.50000000     0.50000000     0.00000000
Discrepancy in bohr =     0.000000    0.000000    0.000000
     new conv_thr            =       0.0000000010 Ry

     new unit-cell volume =    546.12359 a.u.^3 (    80.92717 Ang^3 )
     density =      1.15257 g/cm^3

CELL_PARAMETERS (alat= 14.00000000)
  -0.463403112   0.000000000   0.463403112
   0.000000000   0.463403112   0.463403112
  -0.463403112   0.463403112   0.000000000

ATOMIC_POSITIONS (alat)
Si            0.0000000000        0.0000000000        0.0000000000    0   0   0
Si            0.2317015559        0.2317015559        0.2317015559    0   0   0



     Writing output data file ./outdir/si.save/
     NEW-OLD atomic charge density approx. for the potential
     extrapolated charge    7.06833, renormalised to    8.00000

     total cpu time spent up to now is        2.4 secs

     Self-consistent Calculation

     iteration #  1     ecut=    30.00 Ry     beta= 0.70
     Davidson diagonalization with overlap
     ethr =  1.00E-06,  avg # of iterations =  9.5

     total cpu time spent up to now is        2.4 secs

     total energy              =     -16.69140330 Ry
     estimated scf accuracy    <       0.01099652 Ry

     iteration #  2     ecut=    30.00 Ry     beta= 0.70
     Davidson diagonalization with overlap
     ethr =  1.37E-04,  avg # of iterations =  3.2

     total cpu time spent up to now is        2.5 secs

     total energy              =     -16.70662126 Ry
     estimated scf accuracy    <       0.00424973 Ry

     iteration #  3     ecut=    30.00 Ry     beta= 0.70
     Davidson diagonalization with overlap
     ethr =  5.31E-05,  avg # of iterations =  1.1

     total cpu time spent up to now is        2.5 secs

     total energy              =     -16.70635662 Ry
     estimated scf accuracy    <       0.00109802 Ry

     iteration #  4     ecut=    30.00 Ry     beta= 0.70
     Davidson diagonalization with overlap
     ethr =  1.37E-05,  avg # of iterations =  2.0

     total cpu time spent up to now is        2.5 secs

     total energy              =     -16.70650837 Ry
     estimated scf accuracy    <       0.00038884 Ry

     iteration #  5     ecut=    30.00 Ry     beta= 0.70
     Davidson diagonalization with overlap
     ethr =  4.86E-06,  avg # of iterations =  1.3

     total cpu time spent up to now is        2.6 secs

     total energy              =     -16.70652286 Ry
     estimated scf accuracy    <       0.00001700 Ry

     iteration #  6     ecut=    30.00 Ry     beta= 0.70
     Davidson diagonalization with overlap
     ethr =  2.12E-07,  avg # of iterations =  3.7

     total cpu time spent up to now is        2.6 secs

     total energy              =     -16.70653337 Ry
     estimated scf accuracy    <       0.00000065 Ry

     iteration #  7     ecut=    30.00 Ry     beta= 0.70
     Davidson diagonalization with overlap
     ethr =  8.07E-09,  avg # of iterations =  5.2

     total cpu time spent up to now is        2.7 secs

     total energy              =     -16.70653433 Ry
     estimated scf accuracy    <       0.00000051 Ry

     iteration #  8     ecut=    30.00 Ry     beta= 0.70
     Davidson diagonalization with overlap
     ethr =  6.41E-09,  avg # of iterations =  1.4

     total cpu time spent up to now is        2.7 secs

     total energy              =     -16.70653390 Ry
     estimated scf accuracy    <       0.00000132 Ry

     iteration #  9     ecut=    30.00 Ry     beta= 0.70
     Davidson diagonalization with overlap
     ethr =  6.41E-09,  avg # of iterations =  2.0

     total cpu time spent up to now is        2.7 secs

     total energy              =     -16.70653396 Ry
     estimated scf accuracy    <       0.00000003 Ry

     iteration # 10     ecut=    30.00 Ry     beta= 0.70
     Davidson diagonalization with overlap
     ethr =  3.58E-10,  avg # of iterations =  2.8

     total cpu time spent up to now is        2.8 secs

     total energy              =     -16.70653397 Ry
     estimated scf accuracy    <          2.0E-09 Ry

     iteration # 11     ecut=    30.00 Ry     beta= 0.70
     Davidson diagonalization with overlap
     ethr =  2.50E-11,  avg # of iterations =  3.1

     total cpu time spent up to now is        2.8 secs

     End of self-consistent calculation

          k = 0.0000 0.0000 0.0000 (  1917 PWs)   bands (ev):

    -7.5900  -1.7746   0.8696   0.8696

          k =-0.2158 0.2158-0.2158 (  1916 PWs)   bands (ev):

    -7.3331  -2.7684   0.5856   0.5856

          k =-0.4316 0.4316-0.4316 (  1904 PWs)   bands (ev):

    -6.7240  -4.1573   0.2693   0.2693

          k = 0.0000 0.4316 0.0000 (  1916 PWs)   bands (ev):

    -7.2403  -2.9749   0.1916   0.1916

          k =-0.2158 0.6474-0.2158 (  1898 PWs)   bands (ev):

    -6.6967  -4.0967  -0.4546  -0.0952

          k = 0.6474-0.2158 0.6474 (  1901 PWs)   bands (ev):

    -6.3467  -4.6339  -0.8464   0.0113

          k = 0.4316 0.0000 0.4316 (  1909 PWs)   bands (ev):

    -6.9317  -3.6861  -0.4877   0.4164

          k = 0.0000 0.8632 0.0000 (  1900 PWs)   bands (ev):

    -6.2406  -4.7377  -0.4455  -0.4455

          k = 0.8632 0.0000 0.8632 (  1896 PWs)   bands (ev):

    -5.7336  -5.3235  -0.9417  -0.3958

          k = 0.6474-0.2158 1.0790 (  1906 PWs)   bands (ev):

    -6.0851  -4.9175  -0.9237  -0.4770

     highest occupied level (ev):     0.8696

!    total energy              =     -16.70653397 Ry
     estimated scf accuracy    <          9.7E-10 Ry

     The total energy is the sum of the following terms:
     one-electron contribution =       0.32121991 Ry
     hartree contribution      =       1.84870725 Ry
     xc contribution           =      -5.59139579 Ry
     ewald contribution        =     -13.28506535 Ry

     convergence has been achieved in  11 iterations

     Forces acting on atoms (cartesian axes, Ry/au):

     atom    1 type  1   force =     0.00000000    0.00000000    0.00000000
     atom    2 type  1   force =    -0.00000000   -0.00000000   -0.00000000

     Total force =     0.000000     Total SCF correction =     0.000000


     Computing stress (Cartesian axis) and pressure

          total   stress  (Ry/bohr**3)                   (kbar)     P=     -118.24
  -0.00080379   0.00000000   0.00000000         -118.24        0.00        0.00
   0.00000000  -0.00080379  -0.00000000            0.00     -118.24       -0.00
   0.00000000  -0.00000000  -0.00080379            0.00       -0.00     -118.24

     Energy error            =      4.8E-02
     Gradient error          =      0.0E+00
     Cell gradient error     =      8.0E-04


     number of scf cycles    =   4
     number of bfgs steps    =   3

     enthalpy old            =     -16.6583033675 Ry
     enthalpy new            =     -16.7065339733 Ry

     CASE: enthalpy_new < enthalpy_old


     WARNING: bfgs curvature condition failed, Theta= 0.661
     uphill step: resetting bfgs history

     new trust radius        =       0.0939197610 bohr
ibrav =      2
 celldm(1) =     12.71455263
Input lattice vectors:
    -0.45409117    -0.00000000     0.45409117
     0.00000000     0.45409117     0.45409117
    -0.45409117     0.45409117    -0.00000000
New lattice vectors in INITIAL alat:
    -0.45409117     0.00000000     0.45409117
     0.00000000     0.45409117     0.45409117
    -0.45409117     0.45409117     0.00000000
New lattice vectors in NEW alat (for information only):
    -0.50000000     0.00000000     0.50000000
     0.00000000     0.50000000     0.50000000
    -0.50000000     0.50000000     0.00000000
Discrepancy in bohr =     0.000000    0.000000    0.000000
     new conv_thr            =       0.0000000010 Ry

     new unit-cell volume =    513.85816 a.u.^3 (    76.14592 Ang^3 )
     density =      1.22494 g/cm^3

CELL_PARAMETERS (alat= 14.00000000)
  -0.454091166   0.000000000   0.454091166
   0.000000000   0.454091166   0.454091166
  -0.454091166   0.454091166   0.000000000

ATOMIC_POSITIONS (alat)
Si            0.0000000000        0.0000000000        0.0000000000    0   0   0
Si            0.2270455828        0.2270455828        0.2270455828    0   0   0



     Writing output data file ./outdir/si.save/
     NEW-OLD atomic charge density approx. for the potential
     extrapolated charge    7.49775, renormalised to    8.00000

     total cpu time spent up to now is        3.0 secs

     Self-consistent Calculation

     iteration #  1     ecut=    30.00 Ry     beta= 0.70
     Davidson diagonalization with overlap
     ethr =  1.00E-06,  avg # of iterations =  8.0

     total cpu time spent up to now is        3.1 secs

     total energy              =     -16.72893401 Ry
     estimated scf accuracy    <       0.00273562 Ry

     iteration #  2     ecut=    30.00 Ry     beta= 0.70
     Davidson diagonalization with overlap
     ethr =  3.42E-05,  avg # of iterations =  3.4

     total cpu time spent up to now is        3.1 secs

     total energy              =     -16.73327291 Ry
     estimated scf accuracy    <       0.00132724 Ry

     iteration #  3     ecut=    30.00 Ry     beta= 0.70
     Davidson diagonalization with overlap
     ethr =  1.66E-05,  avg # of iterations =  1.0

     total cpu time spent up to now is        3.2 secs

     total energy              =     -16.73315799 Ry
     estimated scf accuracy    <       0.00037086 Ry

     iteration #  4     ecut=    30.00 Ry     beta= 0.70
     Davidson diagonalization with overlap
     ethr =  4.64E-06,  avg # of iterations =  2.0

     total cpu time spent up to now is        3.2 secs

     total energy              =     -16.73321690 Ry
     estimated scf accuracy    <       0.00004342 Ry

     iteration #  5     ecut=    30.00 Ry     beta= 0.70
     Davidson diagonalization with overlap
     ethr =  5.43E-07,  avg # of iterations =  1.4

     total cpu time spent up to now is        3.2 secs

     total energy              =     -16.73321792 Ry
     estimated scf accuracy    <       0.00000395 Ry

     iteration #  6     ecut=    30.00 Ry     beta= 0.70
     Davidson diagonalization with overlap
     ethr =  4.94E-08,  avg # of iterations =  2.9

     total cpu time spent up to now is        3.3 secs

     total energy              =     -16.73321947 Ry
     estimated scf accuracy    <       0.00000002 Ry

     iteration #  7     ecut=    30.00 Ry     beta= 0.70
     Davidson diagonalization with overlap
     ethr =  3.08E-10,  avg # of iterations =  7.9

     total cpu time spent up to now is        3.4 secs

     total energy              =     -16.73321967 Ry
     estimated scf accuracy    <       0.00000004 Ry

     iteration #  8     ecut=    30.00 Ry     beta= 0.70
     Davidson diagonalization with overlap
     ethr =  3.08E-10,  avg # of iterations =  1.1

     total cpu time spent up to now is        3.4 secs

     total energy              =     -16.73321966 Ry
     estimated scf accuracy    <       0.00000005 Ry

     iteration #  9     ecut=    30.00 Ry     beta= 0.70
     Davidson diagonalization with overlap
     ethr =  3.08E-10,  avg # of iterations =  1.0

     total cpu time spent up to now is        3.4 secs

     total energy              =     -16.73321966 Ry
     estimated scf accuracy    <       0.00000002 Ry

     iteration # 10     ecut=    30.00 Ry     beta= 0.70
     Davidson diagonalization with overlap
     ethr =  2.45E-10,  avg # of iterations =  1.7

     total cpu time spent up to now is        3.5 secs

     End of self-consistent calculation

          k = 0.0000 0.0000 0.0000 (  1917 PWs)   bands (ev):

    -7.4664  -1.0775   1.2023   1.2023

          k =-0.2202 0.2202-0.2202 (  1916 PWs)   bands (ev):

    -7.1912  -2.2662   0.8982   0.8982

          k =-0.4404 0.4404-0.4404 (  1904 PWs)   bands (ev):

    -6.5334  -3.8169   0.5635   0.5635

          k = 0.0000 0.4404 0.0000 (  1916 PWs)   bands (ev):

    -7.0922  -2.4805   0.4727   0.4727

          k =-0.2202 0.6607-0.2202 (  1898 PWs)   bands (ev):

    -6.5078  -3.7200  -0.2150   0.1694

          k = 0.6607-0.2202 0.6607 (  1901 PWs)   bands (ev):

    -6.1269  -4.3112  -0.6351   0.2858

          k = 0.4404 0.0000 0.4404 (  1909 PWs)   bands (ev):

    -6.7602  -3.2747  -0.2598   0.7201

          k = 0.0000 0.8809 0.0000 (  1900 PWs)   bands (ev):

    -6.0203  -4.4028  -0.2044  -0.2044

          k = 0.8809 0.0000 0.8809 (  1896 PWs)   bands (ev):

    -5.4707  -5.0367  -0.7479  -0.1505

          k = 0.6607-0.2202 1.1011 (  1906 PWs)   bands (ev):

    -5.8494  -4.5984  -0.7282  -0.2457

     highest occupied level (ev):     1.2023

!    total energy              =     -16.73321966 Ry
     estimated scf accuracy    <          3.0E-10 Ry

     The total energy is the sum of the following terms:
     one-electron contribution =       0.68050574 Ry
     hartree contribution      =       1.77215774 Ry
     xc contribution           =      -5.62838392 Ry
     ewald contribution        =     -13.55749922 Ry

     convergence has been achieved in  10 iterations

     Forces acting on atoms (cartesian axes, Ry/au):

     atom    1 type  1   force =    -0.00000000   -0.00000000   -0.00000000
     atom    2 type  1   force =     0.00000000    0.00000000    0.00000000

     Total force =     0.000000     Total SCF correction =     0.000000


     Computing stress (Cartesian axis) and pressure

          total   stress  (Ry/bohr**3)                   (kbar)     P=     -125.05
  -0.00085005   0.00000000   0.00000000         -125.05        0.00        0.00
  -0.00000000  -0.00085005  -0.00000000           -0.00     -125.05       -0.00
   0.00000000  -0.00000000  -0.00085005            0.00       -0.00     -125.05

     Energy error            =      2.7E-02
     Gradient error          =      0.0E+00
     Cell gradient error     =      8.5E-04


     number of scf cycles    =   5
     number of bfgs steps    =   4

     enthalpy old            =     -16.7065339733 Ry
     enthalpy new            =     -16.7332196587 Ry

     CASE: enthalpy_new < enthalpy_old


     WARNING: bfgs curvature condition failed, Theta= 0.788
     new trust radius        =       0.1394569913 bohr
ibrav =      2
 celldm(1) =     12.32345089
Input lattice vectors:
    -0.44012325    -0.00000000     0.44012325
     0.00000000     0.44012325     0.44012325
    -0.44012325     0.44012325    -0.00000000
New lattice vectors in INITIAL alat:
    -0.44012325     0.00000000     0.44012325
     0.00000000     0.44012325     0.44012325
    -0.44012325     0.44012325     0.00000000
New lattice vectors in NEW alat (for information only):
    -0.50000000     0.00000000     0.50000000
     0.00000000     0.50000000     0.50000000
    -0.50000000     0.50000000     0.00000000
Discrepancy in bohr =     0.000000    0.000000    0.000000
     new conv_thr            =       0.0000000010 Ry

     new unit-cell volume =    467.88274 a.u.^3 (    69.33307 Ang^3 )
     density =      1.34531 g/cm^3

CELL_PARAMETERS (alat= 14.00000000)
  -0.440123246   0.000000000   0.440123246
   0.000000000   0.440123246   0.440123246
  -0.440123246   0.440123246   0.000000000

ATOMIC_POSITIONS (alat)
Si            0.0000000000        0.0000000000        0.0000000000    0   0   0
Si            0.2200616230        0.2200616230        0.2200616230    0   0   0



     Writing output data file ./outdir/si.save/
     NEW-OLD atomic charge density approx. for the potential
     extrapolated charge    7.21402, renormalised to    8.00000

     total cpu time spent up to now is        3.9 secs

     Self-consistent Calculation

     iteration #  1     ecut=    30.00 Ry     beta= 0.70
     Davidson diagonalization with overlap
     ethr =  1.00E-06,  avg # of iterations =  8.9

     total cpu time spent up to now is        4.0 secs

     total energy              =     -16.76388140 Ry
     estimated scf accuracy    <       0.00679044 Ry

     iteration #  2     ecut=    30.00 Ry     beta= 0.70
     Davidson diagonalization with overlap
     ethr =  8.49E-05,  avg # of iterations =  3.4

     total cpu time spent up to now is        4.0 secs

     total energy              =     -16.77380519 Ry
     estimated scf accuracy    <       0.00289308 Ry

     iteration #  3     ecut=    30.00 Ry     beta= 0.70
     Davidson diagonalization with overlap
     ethr =  3.62E-05,  avg # of iterations =  1.0

     total cpu time spent up to now is        4.0 secs

     total energy              =     -16.77359386 Ry
     estimated scf accuracy    <       0.00078377 Ry

     iteration #  4     ecut=    30.00 Ry     beta= 0.70
     Davidson diagonalization with overlap
     ethr =  9.80E-06,  avg # of iterations =  2.0

     total cpu time spent up to now is        4.1 secs

     total energy              =     -16.77368639 Ry
     estimated scf accuracy    <       0.00026798 Ry

     iteration #  5     ecut=    30.00 Ry     beta= 0.70
     Davidson diagonalization with overlap
     ethr =  3.35E-06,  avg # of iterations =  1.1

     total cpu time spent up to now is        4.1 secs

     total energy              =     -16.77369649 Ry
     estimated scf accuracy    <       0.00000784 Ry

     iteration #  6     ecut=    30.00 Ry     beta= 0.70
     Davidson diagonalization with overlap
     ethr =  9.80E-08,  avg # of iterations =  3.4

     total cpu time spent up to now is        4.1 secs

     total energy              =     -16.77370181 Ry
     estimated scf accuracy    <       0.00000056 Ry

     iteration #  7     ecut=    30.00 Ry     beta= 0.70
     Davidson diagonalization with overlap
     ethr =  6.94E-09,  avg # of iterations =  4.4

     total cpu time spent up to now is        4.2 secs

     total energy              =     -16.77370221 Ry
     estimated scf accuracy    <       0.00000031 Ry

     iteration #  8     ecut=    30.00 Ry     beta= 0.70
     Davidson diagonalization with overlap
     ethr =  3.85E-09,  avg # of iterations =  1.2

     total cpu time spent up to now is        4.2 secs

     total energy              =     -16.77370206 Ry
     estimated scf accuracy    <       0.00000048 Ry

     iteration #  9     ecut=    30.00 Ry     beta= 0.70
     Davidson diagonalization with overlap
     ethr =  3.85E-09,  avg # of iterations =  1.1

     total cpu time spent up to now is        4.2 secs

     total energy              =     -16.77370208 Ry
     estimated scf accuracy    <       0.00000002 Ry

     iteration # 10     ecut=    30.00 Ry     beta= 0.70
     Davidson diagonalization with overlap
     ethr =  2.23E-10,  avg # of iterations =  2.5

     total cpu time spent up to now is        4.3 secs

     total energy              =     -16.77370208 Ry
     estimated scf accuracy    <          1.9E-09 Ry

     iteration # 11     ecut=    30.00 Ry     beta= 0.70
     Davidson diagonalization with overlap
     ethr =  2.36E-11,  avg # of iterations =  3.3

     total cpu time spent up to now is        4.3 secs

     End of self-consistent calculation

          k = 0.0000 0.0000 0.0000 (  1917 PWs)   bands (ev):

    -7.2662   0.0881   1.7559   1.7559

          k =-0.2272 0.2272-0.2272 (  1916 PWs)   bands (ev):

    -6.9613  -1.4810   1.4189   1.4189

          k =-0.4544 0.4544-0.4544 (  1904 PWs)   bands (ev):

    -6.2231  -3.2904   1.0547   1.0547

          k = 0.0000 0.4544 0.0000 (  1916 PWs)   bands (ev):

    -6.8523  -1.6916   0.9408   0.9408

          k =-0.2272 0.6816-0.2272 (  1898 PWs)   bands (ev):

    -6.2014  -3.1208   0.1871   0.6108

          k = 0.6816-0.2272 0.6816 (  1901 PWs)   bands (ev):

    -5.7686  -3.8014  -0.2794   0.7442

          k = 0.4544 0.0000 0.4544 (  1909 PWs)   bands (ev):

    -6.4820  -2.6219   0.1199   1.2269

          k = 0.0000 0.9088 0.0000 (  1900 PWs)   bands (ev):

    -5.6640  -3.8632   0.1987   0.1987

          k = 0.9088 0.0000 0.9088 (  1896 PWs)   bands (ev):

    -5.0439  -4.5744  -0.4258   0.2597

          k = 0.6816-0.2272 1.1360 (  1906 PWs)   bands (ev):

    -5.4667  -4.0842  -0.4027   0.1390

     highest occupied level (ev):     1.7559

!    total energy              =     -16.77370208 Ry
     estimated scf accuracy    <          4.5E-10 Ry

     The total energy is the sum of the following terms:
     one-electron contribution =       1.24545249 Ry
     hartree contribution      =       1.65900834 Ry
     xc contribution           =      -5.69039772 Ry
     ewald contribution        =     -13.98776519 Ry

     convergence has been achieved in  11 iterations

     Forces acting on atoms (cartesian axes, Ry/au):

     atom    1 type  1   force =    -0.00000000    0.00000000   -0.00000000
     atom    2 type  1   force =    -0.00000000   -0.00000000   -0.00000000

     Total force =     0.000000     Total SCF correction =     0.000000


     Computing stress (Cartesian axis) and pressure

          total   stress  (Ry/bohr**3)                   (kbar)     P=     -133.66
  -0.00090858   0.00000000   0.00000000         -133.66        0.00        0.00
   0.00000000  -0.00090858  -0.00000000            0.00     -133.66       -0.00
   0.00000000  -0.00000000  -0.00090858            0.00       -0.00     -133.66

     Energy error            =      4.0E-02
     Gradient error          =      0.0E+00
     Cell gradient error     =      9.1E-04


     number of scf cycles    =   6
     number of bfgs steps    =   5

     enthalpy old            =     -16.7332196587 Ry
     enthalpy new            =     -16.7737020828 Ry

     CASE: enthalpy_new < enthalpy_old


     WARNING: bfgs curvature condition failed, Theta= 0.588
     uphill step: resetting bfgs history

     new trust radius        =       0.0982659511 bohr
ibrav =      2
 celldm(1) =     12.04352898
Input lattice vectors:
    -0.43012603    -0.00000000     0.43012603
     0.00000000     0.43012603     0.43012603
    -0.43012603     0.43012603    -0.00000000
New lattice vectors in INITIAL alat:
    -0.43012603     0.00000000     0.43012603
     0.00000000     0.43012603     0.43012603
    -0.43012603     0.43012603     0.00000000
New lattice vectors in NEW alat (for information only):
    -0.50000000     0.00000000     0.50000000
     0.00000000     0.50000000     0.50000000
    -0.50000000     0.50000000     0.00000000
Discrepancy in bohr =     0.000000    0.000000    0.000000
     new conv_thr            =       0.0000000010 Ry

     new unit-cell volume =    436.71820 a.u.^3 (    64.71496 Ang^3 )
     density =      1.44131 g/cm^3

CELL_PARAMETERS (alat= 14.00000000)
  -0.430126035   0.000000000   0.430126035
   0.000000000   0.430126035   0.430126035
  -0.430126035   0.430126035   0.000000000

ATOMIC_POSITIONS (alat)
Si            0.0000000000        0.0000000000        0.0000000000    0   0   0
Si            0.2150630174        0.2150630174        0.2150630174    0   0   0



     Writing output data file ./outdir/si.save/
     NEW-OLD atomic charge density approx. for the potential
     extrapolated charge    7.42920, renormalised to    8.00000

     total cpu time spent up to now is        4.5 secs

     Self-consistent Calculation

     iteration #  1     ecut=    30.00 Ry     beta= 0.70
     Davidson diagonalization with overlap
     ethr =  1.00E-06,  avg # of iterations =  8.3

     total cpu time spent up to now is        4.6 secs

     total energy              =     -16.79747082 Ry
     estimated scf accuracy    <       0.00323084 Ry

     iteration #  2     ecut=    30.00 Ry     beta= 0.70
     Davidson diagonalization with overlap
     ethr =  4.04E-05,  avg # of iterations =  3.4

     total cpu time spent up to now is        4.6 secs

     total energy              =     -16.80253284 Ry
     estimated scf accuracy    <       0.00154559 Ry

     iteration #  3     ecut=    30.00 Ry     beta= 0.70
     Davidson diagonalization with overlap
     ethr =  1.93E-05,  avg # of iterations =  1.0

     total cpu time spent up to now is        4.6 secs

     total energy              =     -16.80240543 Ry
     estimated scf accuracy    <       0.00043831 Ry

     iteration #  4     ecut=    30.00 Ry     beta= 0.70
     Davidson diagonalization with overlap
     ethr =  5.48E-06,  avg # of iterations =  2.0

     total cpu time spent up to now is        4.7 secs

     total energy              =     -16.80245634 Ry
     estimated scf accuracy    <       0.00013515 Ry

     iteration #  5     ecut=    30.00 Ry     beta= 0.70
     Davidson diagonalization with overlap
     ethr =  1.69E-06,  avg # of iterations =  1.1

     total cpu time spent up to now is        4.7 secs

     total energy              =     -16.80246185 Ry
     estimated scf accuracy    <       0.00000316 Ry

     iteration #  6     ecut=    30.00 Ry     beta= 0.70
     Davidson diagonalization with overlap
     ethr =  3.95E-08,  avg # of iterations =  3.9

     total cpu time spent up to now is        4.8 secs

     total energy              =     -16.80246418 Ry
     estimated scf accuracy    <       0.00000040 Ry

     iteration #  7     ecut=    30.00 Ry     beta= 0.70
     Davidson diagonalization with overlap
     ethr =  5.02E-09,  avg # of iterations =  3.0

     total cpu time spent up to now is        4.8 secs

     total energy              =     -16.80246427 Ry
     estimated scf accuracy    <       0.00000014 Ry

     iteration #  8     ecut=    30.00 Ry     beta= 0.70
     Davidson diagonalization with overlap
     ethr =  1.81E-09,  avg # of iterations =  1.8

     total cpu time spent up to now is        4.8 secs

     total energy              =     -16.80246423 Ry
     estimated scf accuracy    <       0.00000019 Ry

     iteration #  9     ecut=    30.00 Ry     beta= 0.70
     Davidson diagonalization with overlap
     ethr =  1.81E-09,  avg # of iterations =  1.0

     total cpu time spent up to now is        4.8 secs

     total energy              =     -16.80246422 Ry
     estimated scf accuracy    <       0.00000002 Ry

     iteration # 10     ecut=    30.00 Ry     beta= 0.70
     Davidson diagonalization with overlap
     ethr =  2.92E-10,  avg # of iterations =  1.9

     total cpu time spent up to now is        4.9 secs

     End of self-consistent calculation

          k = 0.0000 0.0000 0.0000 (  1917 PWs)   bands (ev):

    -7.1100   1.0213   2.1972   2.1972

          k =-0.2325 0.2325-0.2325 (  1916 PWs)   bands (ev):

    -6.7821  -0.9002   1.8345   1.8345

          k =-0.4650 0.4650-0.4650 (  1904 PWs)   bands (ev):

    -5.9804  -2.9018   1.4480   1.4480

          k = 0.0000 0.4650 0.0000 (  1916 PWs)   bands (ev):

    -6.6655  -1.0914   1.3143   1.3143

          k =-0.2325 0.6975-0.2325 (  1898 PWs)   bands (ev):

    -5.9627  -2.6651   0.5109   0.9640

          k = 0.6975-0.2325 0.6975 (  1901 PWs)   bands (ev):

    -5.4881  -3.4165   0.0083   1.1112

          k = 0.4650 0.0000 0.4650 (  1909 PWs)   bands (ev):

    -6.2654  -2.1272   0.4234   1.6322

          k = 0.0000 0.9300 0.0000 (  1900 PWs)   bands (ev):

    -5.3873  -3.4463   0.5218   0.5218

          k = 0.9300 0.0000 0.9300 (  1896 PWs)   bands (ev):

    -4.7111  -4.2171  -0.1693   0.5885

          k = 0.6975-0.2325 1.1624 (  1906 PWs)   bands (ev):

    -5.1685  -3.6867  -0.1428   0.4456

     highest occupied level (ev):     2.1972

!    total energy              =     -16.80246423 Ry
     estimated scf accuracy    <          5.2E-10 Ry

     The total energy is the sum of the following terms:
     one-electron contribution =       1.67106405 Ry
     hartree contribution      =       1.57946880 Ry
     xc contribution           =      -5.74012103 Ry
     ewald contribution        =     -14.31287605 Ry

     convergence has been achieved in  10 iterations

     Forces acting on atoms (cartesian axes, Ry/au):

     atom    1 type  1   force =     0.00000000    0.00000000   -0.00000000
     atom    2 type  1   force =     0.00000000    0.00000000   -0.00000000

     Total force =     0.000000     Total SCF correction =     0.000000


     Computing stress (Cartesian axis) and pressure

          total   stress  (Ry/bohr**3)                   (kbar)     P=     -137.47
  -0.00093449  -0.00000000  -0.00000000         -137.47       -0.00       -0.00
  -0.00000000  -0.00093449   0.00000000           -0.00     -137.47        0.00
  -0.00000000   0.00000000  -0.00093449           -0.00        0.00     -137.47

     Energy error            =      2.9E-02
     Gradient error          =      0.0E+00
     Cell gradient error     =      9.3E-04


     number of scf cycles    =   7
     number of bfgs steps    =   6

     enthalpy old            =     -16.7737020828 Ry
     enthalpy new            =     -16.8024642280 Ry

     CASE: enthalpy_new < enthalpy_old


     WARNING: bfgs curvature condition failed, Theta= 0.814
     new trust radius        =       0.1457152591 bohr
ibrav =      2
 celldm(1) =     11.62364611
Input lattice vectors:
    -0.41513022     0.00000000     0.41513022
    -0.00000000     0.41513022     0.41513022
    -0.41513022     0.41513022     0.00000000
New lattice vectors in INITIAL alat:
    -0.41513022     0.00000000     0.41513022
     0.00000000     0.41513022     0.41513022
    -0.41513022     0.41513022     0.00000000
New lattice vectors in NEW alat (for information only):
    -0.50000000     0.00000000     0.50000000
     0.00000000     0.50000000     0.50000000
    -0.50000000     0.50000000     0.00000000
Discrepancy in bohr =     0.000000    0.000000    0.000000
     new conv_thr            =       0.0000000010 Ry

     new unit-cell volume =    392.61523 a.u.^3 (    58.17958 Ang^3 )
     density =      1.60321 g/cm^3

CELL_PARAMETERS (alat= 14.00000000)
  -0.415130218   0.000000000   0.415130218
   0.000000000   0.415130218   0.415130218
  -0.415130218   0.415130218   0.000000000

ATOMIC_POSITIONS (alat)
Si            0.0000000000        0.0000000000        0.0000000000    0   0   0
Si            0.2075651090        0.2075651090        0.2075651090    0   0   0



     Writing output data file ./outdir/si.save/
     NEW-OLD atomic charge density approx. for the potential
     extrapolated charge    7.10149, renormalised to    8.00000

     total cpu time spent up to now is        5.1 secs

     Self-consistent Calculation

     iteration #  1     ecut=    30.00 Ry     beta= 0.70
     Davidson diagonalization with overlap
     ethr =  1.00E-06,  avg # of iterations =  9.0

     total cpu time spent up to now is        5.1 secs

     total energy              =     -16.83217658 Ry
     estimated scf accuracy    <       0.00821953 Ry

     iteration #  2     ecut=    30.00 Ry     beta= 0.70
     Davidson diagonalization with overlap
     ethr =  1.03E-04,  avg # of iterations =  3.4

     total cpu time spent up to now is        5.2 secs

     total energy              =     -16.84388498 Ry
     estimated scf accuracy    <       0.00342619 Ry

     iteration #  3     ecut=    30.00 Ry     beta= 0.70
     Davidson diagonalization with overlap
     ethr =  4.28E-05,  avg # of iterations =  1.0

     total cpu time spent up to now is        5.2 secs

     total energy              =     -16.84361409 Ry
     estimated scf accuracy    <       0.00094020 Ry

     iteration #  4     ecut=    30.00 Ry     beta= 0.70
     Davidson diagonalization with overlap
     ethr =  1.18E-05,  avg # of iterations =  2.0

     total cpu time spent up to now is        5.2 secs

     total energy              =     -16.84373191 Ry
     estimated scf accuracy    <       0.00023316 Ry

     iteration #  5     ecut=    30.00 Ry     beta= 0.70
     Davidson diagonalization with overlap
     ethr =  2.91E-06,  avg # of iterations =  1.1

     total cpu time spent up to now is        5.3 secs

     total energy              =     -16.84374063 Ry
     estimated scf accuracy    <       0.00000722 Ry

     iteration #  6     ecut=    30.00 Ry     beta= 0.70
     Davidson diagonalization with overlap
     ethr =  9.02E-08,  avg # of iterations =  3.6

     total cpu time spent up to now is        5.3 secs

     total energy              =     -16.84374480 Ry
     estimated scf accuracy    <       0.00000057 Ry

     iteration #  7     ecut=    30.00 Ry     beta= 0.70
     Davidson diagonalization with overlap
     ethr =  7.14E-09,  avg # of iterations =  3.2

     total cpu time spent up to now is        5.3 secs

     total energy              =     -16.84374500 Ry
     estimated scf accuracy    <       0.00000029 Ry

     iteration #  8     ecut=    30.00 Ry     beta= 0.70
     Davidson diagonalization with overlap
     ethr =  3.59E-09,  avg # of iterations =  1.0

     total cpu time spent up to now is        5.4 secs

     total energy              =     -16.84374501 Ry
     estimated scf accuracy    <       0.00000027 Ry

     iteration #  9     ecut=    30.00 Ry     beta= 0.70
     Davidson diagonalization with overlap
     ethr =  3.41E-09,  avg # of iterations =  1.0

     total cpu time spent up to now is        5.4 secs

     total energy              =     -16.84374528 Ry
     estimated scf accuracy    <       0.00000028 Ry

     iteration # 10     ecut=    30.00 Ry     beta= 0.70
     Davidson diagonalization with overlap
     ethr =  3.41E-09,  avg # of iterations =  1.7

     total cpu time spent up to now is        5.4 secs

     total energy              =     -16.84374482 Ry
     estimated scf accuracy    <       0.00000108 Ry

     iteration # 11     ecut=    30.00 Ry     beta= 0.70
     Davidson diagonalization with overlap
     ethr =  3.41E-09,  avg # of iterations =  2.1

     total cpu time spent up to now is        5.5 secs

     total energy              =     -16.84374494 Ry
     estimated scf accuracy    <       0.00000009 Ry

     iteration # 12     ecut=    30.00 Ry     beta= 0.70
     Davidson diagonalization with overlap
     ethr =  1.07E-09,  avg # of iterations =  1.0

     total cpu time spent up to now is        5.5 secs

     total energy              =     -16.84374493 Ry
     estimated scf accuracy    <       0.00000003 Ry

     iteration # 13     ecut=    30.00 Ry     beta= 0.70
     Davidson diagonalization with overlap
     ethr =  4.04E-10,  avg # of iterations =  1.1

     total cpu time spent up to now is        5.5 secs

     total energy              =     -16.84374493 Ry
     estimated scf accuracy    <          7.8E-09 Ry

     iteration # 14     ecut=    30.00 Ry     beta= 0.70
     Davidson diagonalization with overlap
     ethr =  9.79E-11,  avg # of iterations =  1.1

     total cpu time spent up to now is        5.6 secs

     total energy              =     -16.84374493 Ry
     estimated scf accuracy    <          4.1E-09 Ry

     iteration # 15     ecut=    30.00 Ry     beta= 0.70
     Davidson diagonalization with overlap
     ethr =  5.16E-11,  avg # of iterations =  1.3

     total cpu time spent up to now is        5.6 secs

     total energy              =     -16.84374493 Ry
     estimated scf accuracy    <       0.00000001 Ry

     iteration # 16     ecut=    30.00 Ry     beta= 0.70
     Davidson diagonalization with overlap
     ethr =  5.16E-11,  avg # of iterations =  1.0

     total cpu time spent up to now is        5.6 secs

     total energy              =     -16.84374492 Ry
     estimated scf accuracy    <       0.00000001 Ry

     iteration # 17     ecut=    30.00 Ry     beta= 0.70
     Davidson diagonalization with overlap
     ethr =  5.16E-11,  avg # of iterations =  2.0

     total cpu time spent up to now is        5.6 secs

     End of self-consistent calculation

          k = 0.0000 0.0000 0.0000 (  1917 PWs)   bands (ev):

    -6.8510   2.5988   2.9410   2.9410

          k =-0.2409 0.2409-0.2409 (  1916 PWs)   bands (ev):

    -6.4857  -0.0050   2.5357   2.5357

          k =-0.4818 0.4818-0.4818 (  1904 PWs)   bands (ev):

    -5.5784  -2.2971   2.1139   2.1139

          k = 0.0000 0.4818 0.0000 (  1916 PWs)   bands (ev):

    -6.3568  -0.1325   1.9443   1.9443

          k =-0.2409 0.7227-0.2409 (  1898 PWs)   bands (ev):

    -5.5689  -1.9349   1.0631   1.5613

          k = 0.7227-0.2409 0.7227 (  1901 PWs)   bands (ev):

    -5.0225  -2.8048   0.5011   1.7323

          k = 0.4818 0.0000 0.4818 (  1909 PWs)   bands (ev):

    -5.9075  -1.3373   0.9361   2.3177

          k = 0.0000 0.9636 0.0000 (  1900 PWs)   bands (ev):

    -4.9325  -2.7654   1.0695   1.0695

          k = 0.9636 0.0000 0.9636 (  1896 PWs)   bands (ev):

    -4.1615  -3.6329   0.2626   1.1458

          k = 0.7227-0.2409 1.2044 (  1906 PWs)   bands (ev):

    -4.6761  -3.0368   0.2958   0.9620

     highest occupied level (ev):     2.9410

!    total energy              =     -16.84374493 Ry
     estimated scf accuracy    <          4.0E-10 Ry

     The total energy is the sum of the following terms:
     one-electron contribution =       2.34745589 Ry
     hartree contribution      =       1.46281094 Ry
     xc contribution           =      -5.82410934 Ry
     ewald contribution        =     -14.82990241 Ry

     convergence has been achieved in  17 iterations

     Forces acting on atoms (cartesian axes, Ry/au):

     atom    1 type  1   force =    -0.00000000   -0.00000000   -0.00000000
     atom    2 type  1   force =     0.00000000    0.00000000    0.00000000

     Total force =     0.000000     Total SCF correction =     0.000000


     Computing stress (Cartesian axis) and pressure

          total   stress  (Ry/bohr**3)                   (kbar)     P=     -136.10
  -0.00092518  -0.00000000  -0.00000000         -136.10       -0.00       -0.00
  -0.00000000  -0.00092518   0.00000000           -0.00     -136.10        0.00
  -0.00000000   0.00000000  -0.00092518           -0.00        0.00     -136.10

     Energy error            =      4.1E-02
     Gradient error          =      0.0E+00
     Cell gradient error     =      9.3E-04


     number of scf cycles    =   8
     number of bfgs steps    =   7

     enthalpy old            =     -16.8024642280 Ry
     enthalpy new            =     -16.8437449255 Ry

     CASE: enthalpy_new < enthalpy_old

     new trust radius        =       0.2147289499 bohr
ibrav =      2
 celldm(1) =     10.99382180
Input lattice vectors:
    -0.39263649     0.00000000     0.39263649
    -0.00000000     0.39263649     0.39263649
    -0.39263649     0.39263649     0.00000000
New lattice vectors in INITIAL alat:
    -0.39263649     0.00000000     0.39263649
     0.00000000     0.39263649     0.39263649
    -0.39263649     0.39263649     0.00000000
New lattice vectors in NEW alat (for information only):
    -0.50000000     0.00000000     0.50000000
     0.00000000     0.50000000     0.50000000
    -0.50000000     0.50000000     0.00000000
Discrepancy in bohr =     0.000000    0.000000    0.000000
     new conv_thr            =       0.0000000010 Ry

     new unit-cell volume =    332.18964 a.u.^3 (    49.22543 Ang^3 )
     density =      1.89484 g/cm^3

CELL_PARAMETERS (alat= 14.00000000)
  -0.392636493   0.000000000   0.392636493
   0.000000000   0.392636493   0.392636493
  -0.392636493   0.392636493   0.000000000

ATOMIC_POSITIONS (alat)
Si            0.0000000000        0.0000000000        0.0000000000    0   0   0
Si            0.1963182465        0.1963182465        0.1963182465    0   0   0



     Writing output data file ./outdir/si.save/
     NEW-OLD atomic charge density approx. for the potential
     extrapolated charge    6.54502, renormalised to    8.00000

     total cpu time spent up to now is        5.8 secs

     Self-consistent Calculation

     iteration #  1     ecut=    30.00 Ry     beta= 0.70
     Davidson diagonalization with overlap
     ethr =  1.00E-06,  avg # of iterations =  9.9

     total cpu time spent up to now is        5.9 secs

     total energy              =     -16.86735031 Ry
     estimated scf accuracy    <       0.02297010 Ry

     iteration #  2     ecut=    30.00 Ry     beta= 0.70
     Davidson diagonalization with overlap
     ethr =  2.87E-04,  avg # of iterations =  3.0

     total cpu time spent up to now is        6.0 secs

     total energy              =     -16.89499038 Ry
     estimated scf accuracy    <       0.00715647 Ry

     iteration #  3     ecut=    30.00 Ry     beta= 0.70
     Davidson diagonalization with overlap
     ethr =  8.95E-05,  avg # of iterations =  1.2

     total cpu time spent up to now is        6.0 secs

     total energy              =     -16.89446341 Ry
     estimated scf accuracy    <       0.00195472 Ry

     iteration #  4     ecut=    30.00 Ry     beta= 0.70
     Davidson diagonalization with overlap
     ethr =  2.44E-05,  avg # of iterations =  2.0

     total cpu time spent up to now is        6.0 secs

     total energy              =     -16.89471941 Ry
     estimated scf accuracy    <       0.00016721 Ry

     iteration #  5     ecut=    30.00 Ry     beta= 0.70
     Davidson diagonalization with overlap
     ethr =  2.09E-06,  avg # of iterations =  1.7

     total cpu time spent up to now is        6.0 secs

     total energy              =     -16.89473340 Ry
     estimated scf accuracy    <       0.00000526 Ry

     iteration #  6     ecut=    30.00 Ry     beta= 0.70
     Davidson diagonalization with overlap
     ethr =  6.58E-08,  avg # of iterations =  4.3

     total cpu time spent up to now is        6.1 secs

     total energy              =     -16.89473814 Ry
     estimated scf accuracy    <       0.00000003 Ry

     iteration #  7     ecut=    30.00 Ry     beta= 0.70
     Davidson diagonalization with overlap
     ethr =  3.53E-10,  avg # of iterations =  5.8

     total cpu time spent up to now is        6.1 secs

     total energy              =     -16.89473821 Ry
     estimated scf accuracy    <       0.00000020 Ry

     iteration #  8     ecut=    30.00 Ry     beta= 0.70
     Davidson diagonalization with overlap
     ethr =  3.53E-10,  avg # of iterations =  2.0

     total cpu time spent up to now is        6.2 secs

     total energy              =     -16.89473821 Ry
     estimated scf accuracy    <       0.00000002 Ry

     iteration #  9     ecut=    30.00 Ry     beta= 0.70
     Davidson diagonalization with overlap
     ethr =  2.33E-10,  avg # of iterations =  2.0

     total cpu time spent up to now is        6.2 secs

     End of self-consistent calculation

          k = 0.0000 0.0000 0.0000 (  1917 PWs)   bands (ev):

    -6.3926   4.2769   4.2769   5.4350

          k =-0.2547 0.2547-0.2547 (  1916 PWs)   bands (ev):

    -5.9634   1.4050   3.7978   3.7978

          k =-0.5094 0.5094-0.5094 (  1904 PWs)   bands (ev):

    -4.8696  -1.3230   3.3190   3.3190

          k = 0.0000 0.5094 0.0000 (  1916 PWs)   bands (ev):

    -5.8137   1.4594   3.0778   3.0778

          k =-0.2547 0.7641-0.2547 (  1898 PWs)   bands (ev):

    -4.8788  -0.7168   2.0758   2.6405

          k = 0.7641-0.2547 0.7641 (  1901 PWs)   bands (ev):

    -4.1998  -1.7979   1.4113   2.8556

          k = 0.5094 0.0000 0.5094 (  1909 PWs)   bands (ev):

    -5.2795  -0.0227   1.8620   3.5562

          k = 0.0000 1.0188 0.0000 (  1900 PWs)   bands (ev):

    -4.1407  -1.5930   2.0625   2.0625

          k = 1.0188 0.0000 1.0188 (  1896 PWs)   bands (ev):

    -3.1976  -2.6248   1.0368   2.1560

          k = 0.7641-0.2547 1.2734 (  1906 PWs)   bands (ev):

    -3.8132  -1.9144   1.0864   1.8879

     highest occupied level (ev):     5.4350

!    total energy              =     -16.89473821 Ry
     estimated scf accuracy    <          8.2E-12 Ry

     The total energy is the sum of the following terms:
     one-electron contribution =       3.46484400 Ry
     hartree contribution      =       1.29381506 Ry
     xc contribution           =      -5.97390559 Ry
     ewald contribution        =     -15.67949167 Ry

     convergence has been achieved in   9 iterations

     Forces acting on atoms (cartesian axes, Ry/au):

     atom    1 type  1   force =     0.00000000    0.00000000    0.00000000
     atom    2 type  1   force =     0.00000000    0.00000000    0.00000000

     Total force =     0.000000     Total SCF correction =     0.000000


     Computing stress (Cartesian axis) and pressure

          total   stress  (Ry/bohr**3)                   (kbar)     P=     -103.37
  -0.00070272   0.00000000   0.00000000         -103.37        0.00        0.00
   0.00000000  -0.00070272  -0.00000000            0.00     -103.37       -0.00
   0.00000000   0.00000000  -0.00070272            0.00        0.00     -103.37

     Energy error            =      5.1E-02
     Gradient error          =      0.0E+00
     Cell gradient error     =      7.0E-04


     number of scf cycles    =   9
     number of bfgs steps    =   8

     enthalpy old            =     -16.8437449255 Ry
     enthalpy new            =     -16.8947382086 Ry

     CASE: enthalpy_new < enthalpy_old

     new trust radius        =       0.3132456268 bohr
ibrav =      2
 celldm(1) =     10.04908535
Input lattice vectors:
    -0.35889591    -0.00000000     0.35889591
     0.00000000     0.35889591     0.35889591
    -0.35889591     0.35889591    -0.00000000
New lattice vectors in INITIAL alat:
    -0.35889591     0.00000000     0.35889591
     0.00000000     0.35889591     0.35889591
    -0.35889591     0.35889591     0.00000000
New lattice vectors in NEW alat (for information only):
    -0.50000000     0.00000000     0.50000000
     0.00000000     0.50000000     0.50000000
    -0.50000000     0.50000000     0.00000000
Discrepancy in bohr =     0.000000    0.000000    0.000000
     new conv_thr            =       0.0000000010 Ry

     new unit-cell volume =    253.69950 a.u.^3 (    37.59439 Ang^3 )
     density =      2.48107 g/cm^3

CELL_PARAMETERS (alat= 14.00000000)
  -0.358895905   0.000000000   0.358895905
   0.000000000   0.358895905   0.358895905
  -0.358895905   0.358895905   0.000000000

ATOMIC_POSITIONS (alat)
Si            0.0000000000        0.0000000000        0.0000000000    0   0   0
Si            0.1794479526        0.1794479526        0.1794479526    0   0   0



     Writing output data file ./outdir/si.save/
     NEW-OLD atomic charge density approx. for the potential
     extrapolated charge    5.52532, renormalised to    8.00000

     total cpu time spent up to now is        6.4 secs

     Self-consistent Calculation

     iteration #  1     ecut=    30.00 Ry     beta= 0.70
     Davidson diagonalization with overlap
     ethr =  1.00E-06,  avg # of iterations = 10.5

     total cpu time spent up to now is        6.5 secs

     total energy              =     -16.84154124 Ry
     estimated scf accuracy    <       0.07731155 Ry

     iteration #  2     ecut=    30.00 Ry     beta= 0.70
     Davidson diagonalization with overlap
     ethr =  9.66E-04,  avg # of iterations =  2.9

     total cpu time spent up to now is        6.5 secs

     total energy              =     -16.90911041 Ry
     estimated scf accuracy    <       0.01564557 Ry

     iteration #  3     ecut=    30.00 Ry     beta= 0.70
     Davidson diagonalization with overlap
     ethr =  1.96E-04,  avg # of iterations =  1.5

     total cpu time spent up to now is        6.5 secs

     total energy              =     -16.90840641 Ry
     estimated scf accuracy    <       0.00387423 Ry

     iteration #  4     ecut=    30.00 Ry     beta= 0.70
     Davidson diagonalization with overlap
     ethr =  4.84E-05,  avg # of iterations =  2.0

     total cpu time spent up to now is        6.6 secs

     total energy              =     -16.90886652 Ry
     estimated scf accuracy    <       0.00022752 Ry

     iteration #  5     ecut=    30.00 Ry     beta= 0.70
     Davidson diagonalization with overlap
     ethr =  2.84E-06,  avg # of iterations =  2.6

     total cpu time spent up to now is        6.6 secs

     total energy              =     -16.90888781 Ry
     estimated scf accuracy    <       0.00001879 Ry

     iteration #  6     ecut=    30.00 Ry     beta= 0.70
     Davidson diagonalization with overlap
     ethr =  2.35E-07,  avg # of iterations =  3.2

     total cpu time spent up to now is        6.6 secs

     total energy              =     -16.90889529 Ry
     estimated scf accuracy    <       0.00000102 Ry

     iteration #  7     ecut=    30.00 Ry     beta= 0.70
     Davidson diagonalization with overlap
     ethr =  1.27E-08,  avg # of iterations =  2.9

     total cpu time spent up to now is        6.7 secs

     total energy              =     -16.90889561 Ry
     estimated scf accuracy    <       0.00000028 Ry

     iteration #  8     ecut=    30.00 Ry     beta= 0.70
     Davidson diagonalization with overlap
     ethr =  3.55E-09,  avg # of iterations =  2.0

     total cpu time spent up to now is        6.7 secs

     total energy              =     -16.90889564 Ry
     estimated scf accuracy    <          5.9E-09 Ry

     iteration #  9     ecut=    30.00 Ry     beta= 0.70
     Davidson diagonalization with overlap
     ethr =  7.34E-11,  avg # of iterations =  3.9

     total cpu time spent up to now is        6.8 secs

     total energy              =     -16.90889564 Ry
     estimated scf accuracy    <          1.9E-09 Ry

     iteration # 10     ecut=    30.00 Ry     beta= 0.70
     Davidson diagonalization with overlap
     ethr =  2.40E-11,  avg # of iterations =  1.3

     total cpu time spent up to now is        6.8 secs

     total energy              =     -16.90889564 Ry
     estimated scf accuracy    <          2.3E-09 Ry

     iteration # 11     ecut=    30.00 Ry     beta= 0.70
     Davidson diagonalization with overlap
     ethr =  2.40E-11,  avg # of iterations =  1.7

     total cpu time spent up to now is        6.8 secs

     End of self-consistent calculation

          k = 0.0000 0.0000 0.0000 (  1917 PWs)   bands (ev):

    -5.4857   6.9292   6.9292  11.0061

          k =-0.2786 0.2786-0.2786 (  1916 PWs)   bands (ev):

    -4.9392   3.8292   6.3128   6.3128

          k =-0.5573 0.5573-0.5573 (  1904 PWs)   bands (ev):

    -3.4858   0.3936   5.7435   5.7435

          k = 0.0000 0.5573 0.0000 (  1916 PWs)   bands (ev):

    -4.7519   4.3355   5.3352   5.3352

          k =-0.2786 0.8359-0.2786 (  1898 PWs)   bands (ev):

    -3.5421   1.4752   4.1623   4.8039

          k = 0.8359-0.2786 0.8359 (  1901 PWs)   bands (ev):

    -2.5843  -0.0275   3.3035   5.1109

          k = 0.5573 0.0000 0.5573 (  1909 PWs)   bands (ev):

    -4.0589   2.3586   3.7198   6.0400

          k = 0.0000 1.1145 0.0000 (  1900 PWs)   bands (ev):

    -2.6217   0.6233   4.0643   4.0643

          k = 1.1145 0.0000 1.1145 (  1896 PWs)   bands (ev):

    -1.3233  -0.7150   2.5685   4.1919

          k = 0.8359-0.2786 1.3932 (  1906 PWs)   bands (ev):

    -2.1422   0.2213   2.6690   3.7170

     highest occupied level (ev):    11.0061

!    total energy              =     -16.90889564 Ry
     estimated scf accuracy    <          2.4E-11 Ry

     The total energy is the sum of the following terms:
     one-electron contribution =       5.45496585 Ry
     hartree contribution      =       1.05031171 Ry
     xc contribution           =      -6.26061827 Ry
     ewald contribution        =     -17.15355492 Ry

     convergence has been achieved in  11 iterations

     Forces acting on atoms (cartesian axes, Ry/au):

     atom    1 type  1   force =     0.00000000    0.00000000    0.00000000
     atom    2 type  1   force =     0.00000000    0.00000000    0.00000000

     Total force =     0.000000     Total SCF correction =     0.000000


     Computing stress (Cartesian axis) and pressure

          total   stress  (Ry/bohr**3)                   (kbar)     P=      100.20
   0.00068114  -0.00000000   0.00000000          100.20       -0.00        0.00
  -0.00000000   0.00068114   0.00000000           -0.00      100.20        0.00
   0.00000000   0.00000000   0.00068114            0.00        0.00      100.20

     Energy error            =      1.4E-02
     Gradient error          =      0.0E+00
     Cell gradient error     =      6.8E-04


     number of scf cycles    =  10
     number of bfgs steps    =   9

     enthalpy old            =     -16.8947382086 Ry
     enthalpy new            =     -16.9088956422 Ry

     CASE: enthalpy_new < enthalpy_old

     new trust radius        =       0.1340102209 bohr
ibrav =      2
 celldm(1) =     10.47182663
Input lattice vectors:
    -0.37399381     0.00000000     0.37399381
    -0.00000000     0.37399381     0.37399381
    -0.37399381     0.37399381     0.00000000
New lattice vectors in INITIAL alat:
    -0.37399381     0.00000000     0.37399381
     0.00000000     0.37399381     0.37399381
    -0.37399381     0.37399381     0.00000000
New lattice vectors in NEW alat (for information only):
    -0.50000000     0.00000000     0.50000000
     0.00000000     0.50000000     0.50000000
    -0.50000000     0.50000000     0.00000000
Discrepancy in bohr =     0.000000    0.000000    0.000000
     new conv_thr            =       0.0000000010 Ry

     new unit-cell volume =    287.08291 a.u.^3 (    42.54130 Ang^3 )
     density =      2.19256 g/cm^3

CELL_PARAMETERS (alat= 14.00000000)
  -0.373993808   0.000000000   0.373993808
   0.000000000   0.373993808   0.373993808
  -0.373993808   0.373993808   0.000000000

ATOMIC_POSITIONS (alat)
Si            0.0000000000        0.0000000000        0.0000000000    0   0   0
Si            0.1869969041        0.1869969041        0.1869969041    0   0   0



     Writing output data file ./outdir/si.save/
     NEW-OLD atomic charge density approx. for the potential
     extrapolated charge    8.93014, renormalised to    8.00000

     total cpu time spent up to now is        7.0 secs

     Self-consistent Calculation

     iteration #  1     ecut=    30.00 Ry     beta= 0.70
     Davidson diagonalization with overlap
     ethr =  1.00E-06,  avg # of iterations =  9.0

     total cpu time spent up to now is        7.1 secs

     total energy              =     -16.90656069 Ry
     estimated scf accuracy    <       0.00351799 Ry

     iteration #  2     ecut=    30.00 Ry     beta= 0.70
     Davidson diagonalization with overlap
     ethr =  4.40E-05,  avg # of iterations =  3.9

     total cpu time spent up to now is        7.1 secs

     total energy              =     -16.91654925 Ry
     estimated scf accuracy    <       0.00425755 Ry

     iteration #  3     ecut=    30.00 Ry     beta= 0.70
     Davidson diagonalization with overlap
     ethr =  4.40E-05,  avg # of iterations =  1.0

     total cpu time spent up to now is        7.1 secs

     total energy              =     -16.91586900 Ry
     estimated scf accuracy    <       0.00159356 Ry

     iteration #  4     ecut=    30.00 Ry     beta= 0.70
     Davidson diagonalization with overlap
     ethr =  1.99E-05,  avg # of iterations =  2.0

     total cpu time spent up to now is        7.2 secs

     total energy              =     -16.91606704 Ry
     estimated scf accuracy    <       0.00024369 Ry

     iteration #  5     ecut=    30.00 Ry     beta= 0.70
     Davidson diagonalization with overlap
     ethr =  3.05E-06,  avg # of iterations =  1.0

     total cpu time spent up to now is        7.2 secs

     total energy              =     -16.91608144 Ry
     estimated scf accuracy    <       0.00000038 Ry

     iteration #  6     ecut=    30.00 Ry     beta= 0.70
     Davidson diagonalization with overlap
     ethr =  4.70E-09,  avg # of iterations =  5.9

     total cpu time spent up to now is        7.3 secs

     total energy              =     -16.91608163 Ry
     estimated scf accuracy    <       0.00000544 Ry

     iteration #  7     ecut=    30.00 Ry     beta= 0.70
     Davidson diagonalization with overlap
     ethr =  4.70E-09,  avg # of iterations =  3.0

     total cpu time spent up to now is        7.3 secs

     total energy              =     -16.91608193 Ry
     estimated scf accuracy    <       0.00000009 Ry

     iteration #  8     ecut=    30.00 Ry     beta= 0.70
     Davidson diagonalization with overlap
     ethr =  1.07E-09,  avg # of iterations =  2.6

     total cpu time spent up to now is        7.3 secs

     total energy              =     -16.91608196 Ry
     estimated scf accuracy    <          7.9E-09 Ry

     iteration #  9     ecut=    30.00 Ry     beta= 0.70
     Davidson diagonalization with overlap
     ethr =  9.92E-11,  avg # of iterations =  2.5

     total cpu time spent up to now is        7.4 secs

     total energy              =     -16.91608196 Ry
     estimated scf accuracy    <          3.4E-09 Ry

     iteration # 10     ecut=    30.00 Ry     beta= 0.70
     Davidson diagonalization with overlap
     ethr =  4.20E-11,  avg # of iterations =  2.0

     total cpu time spent up to now is        7.4 secs

     End of self-consistent calculation

          k = 0.0000 0.0000 0.0000 (  1917 PWs)   bands (ev):

    -5.9305   5.6305   5.6305   8.2951

[...]

          k =-0.2707 0.2707-0.2707 (  1916 PWs)   bands (ev):

    -5.2956   3.0170   5.4352   5.4352

          k =-0.5414 0.5414-0.5414 (  1904 PWs)   bands (ev):

    -3.9660  -0.1847   4.8942   4.8942

          k = 0.0000 0.5414 0.0000 (  1916 PWs)   bands (ev):

    -5.1209   3.3607   4.5476   4.5476

          k =-0.2707 0.8121-0.2707 (  1898 PWs)   bands (ev):

    -4.0048   0.7364   3.4246   4.0472

          k = 0.8121-0.2707 0.8121 (  1901 PWs)   bands (ev):

    -3.1465  -0.6185   2.6329   4.3217

          k = 0.5414 0.0000 0.5414 (  1909 PWs)   bands (ev):

    -4.4820   1.5518   3.0697   5.1710

          k = 0.0000 1.0828 0.0000 (  1900 PWs)   bands (ev):

    -3.1456  -0.1376   3.3627   3.3627

          k = 1.0828 0.0000 1.0828 (  1896 PWs)   bands (ev):

    -1.9736  -1.3709   2.0359   3.4784

          k = 0.8121-0.2707 1.3536 (  1906 PWs)   bands (ev):

    -2.7206  -0.5141   2.1157   3.0815

     highest occupied level (ev):     6.0050

!    total energy              =     -16.92033980 Ry
     estimated scf accuracy    <          5.0E-10 Ry

     The total energy is the sum of the following terms:
     one-electron contribution =       4.78238458 Ry
     hartree contribution      =       1.12582804 Ry
     xc contribution           =      -6.16270279 Ry
     ewald contribution        =     -16.66584963 Ry

     convergence has been achieved in   7 iterations

     Forces acting on atoms (cartesian axes, Ry/au):

     atom    1 type  1   force =     0.00000000    0.00000000   -0.00000000
     atom    2 type  1   force =     0.00000000    0.00000000    0.00000000

     Total force =     0.000000     Total SCF correction =     0.000000


     Computing stress (Cartesian axis) and pressure

          total   stress  (Ry/bohr**3)                   (kbar)     P=       -0.11
  -0.00000078  -0.00000000  -0.00000000           -0.11       -0.00       -0.00
  -0.00000000  -0.00000078  -0.00000000           -0.00       -0.11       -0.00
   0.00000000  -0.00000000  -0.00000078            0.00       -0.00       -0.11

     Energy error            =      4.3E-05
     Gradient error          =      0.0E+00
     Cell gradient error     =      7.8E-07


     number of scf cycles    =  14
     number of bfgs steps    =  13

     enthalpy old            =     -16.9202972827 Ry
     enthalpy new            =     -16.9203398027 Ry

     CASE: enthalpy_new < enthalpy_old

     new trust radius        =       0.0001411523 bohr
ibrav =      2
 celldm(1) =     10.34272040
Input lattice vectors:
    -0.36938287     0.00000000     0.36938287
    -0.00000000     0.36938287     0.36938287
    -0.36938287     0.36938287     0.00000000
New lattice vectors in INITIAL alat:
    -0.36938287     0.00000000     0.36938287
     0.00000000     0.36938287     0.36938287
    -0.36938287     0.36938287     0.00000000
New lattice vectors in NEW alat (for information only):
    -0.50000000     0.00000000     0.50000000
     0.00000000     0.50000000     0.50000000
    -0.50000000     0.50000000     0.00000000
Discrepancy in bohr =     0.000000    0.000000    0.000000
     new conv_thr            =       0.0000000010 Ry

     new unit-cell volume =    276.59502 a.u.^3 (    40.98715 Ang^3 )
     density =      2.27569 g/cm^3

CELL_PARAMETERS (alat= 14.00000000)
  -0.369382871   0.000000000   0.369382871
   0.000000000   0.369382871   0.369382871
  -0.369382871   0.369382871   0.000000000

ATOMIC_POSITIONS (alat)
Si            0.0000000000        0.0000000000        0.0000000000    0   0   0
Si            0.1846914356        0.1846914356        0.1846914356    0   0   0



     Writing output data file ./outdir/si.save/
     NEW-OLD atomic charge density approx. for the potential
     extrapolated charge    7.99898, renormalised to    8.00000

     total cpu time spent up to now is        9.4 secs

     Self-consistent Calculation

     iteration #  1     ecut=    30.00 Ry     beta= 0.70
     Davidson diagonalization with overlap
     ethr =  1.00E-06,  avg # of iterations =  1.0

     Threshold (ethr) on eigenvalues was too large:
     Diagonalizing with lowered threshold

     Davidson diagonalization with overlap
     ethr =  7.02E-11,  avg # of iterations =  3.6

     total cpu time spent up to now is        9.5 secs

     total energy              =     -16.92033981 Ry
     estimated scf accuracy    <          5.0E-09 Ry

     iteration #  2     ecut=    30.00 Ry     beta= 0.70
     Davidson diagonalization with overlap
     ethr =  6.20E-11,  avg # of iterations =  3.8

     total cpu time spent up to now is        9.5 secs

     total energy              =     -16.92033982 Ry
     estimated scf accuracy    <          4.6E-09 Ry

     iteration #  3     ecut=    30.00 Ry     beta= 0.70
     Davidson diagonalization with overlap
     ethr =  5.80E-11,  avg # of iterations =  1.0

     total cpu time spent up to now is        9.6 secs

     total energy              =     -16.92033982 Ry
     estimated scf accuracy    <          1.6E-09 Ry

     iteration #  4     ecut=    30.00 Ry     beta= 0.70
     Davidson diagonalization with overlap
     ethr =  1.98E-11,  avg # of iterations =  2.0

     total cpu time spent up to now is        9.6 secs

     End of self-consistent calculation

          k = 0.0000 0.0000 0.0000 (  1917 PWs)   bands (ev):

    -5.8018   6.0063   6.0063   6.0063

          k =-0.2707 0.2707-0.2707 (  1916 PWs)   bands (ev):

    -5.2951   3.0182   5.4365   5.4365

          k =-0.5414 0.5414-0.5414 (  1904 PWs)   bands (ev):

    -3.9653  -0.1838   4.8954   4.8954

          k = 0.0000 0.5414 0.0000 (  1916 PWs)   bands (ev):

    -5.1204   3.3621   4.5488   4.5488

          k =-0.2707 0.8122-0.2707 (  1898 PWs)   bands (ev):

    -4.0041   0.7374   3.4256   4.0483

          k = 0.8122-0.2707 0.8122 (  1901 PWs)   bands (ev):

    -3.1457  -0.6177   2.6339   4.3228

          k = 0.5414 0.0000 0.5414 (  1909 PWs)   bands (ev):

    -4.4814   1.5530   3.0706   5.1722

          k = 0.0000 1.0829 0.0000 (  1900 PWs)   bands (ev):

    -3.1449  -0.1365   3.3637   3.3637

          k = 1.0829 0.0000 1.0829 (  1896 PWs)   bands (ev):

    -1.9726  -1.3699   2.0367   3.4795

          k = 0.8122-0.2707 1.3536 (  1906 PWs)   bands (ev):

    -2.7197  -0.5131   2.1165   3.0824

     highest occupied level (ev):     6.0063

!    total energy              =     -16.92033982 Ry
     estimated scf accuracy    <          1.9E-10 Ry

     The total energy is the sum of the following terms:
     one-electron contribution =       4.78334608 Ry
     hartree contribution      =       1.12571206 Ry
     xc contribution           =      -6.16284111 Ry
     ewald contribution        =     -16.66655685 Ry

     convergence has been achieved in   4 iterations

     Forces acting on atoms (cartesian axes, Ry/au):

     atom    1 type  1   force =     0.00000000    0.00000000   -0.00000000
     atom    2 type  1   force =    -0.00000000   -0.00000000   -0.00000000

     Total force =     0.000000     Total SCF correction =     0.000000


     Computing stress (Cartesian axis) and pressure

          total   stress  (Ry/bohr**3)                   (kbar)     P=       -0.00
  -0.00000003   0.00000000   0.00000000           -0.00        0.00        0.00
   0.00000000  -0.00000003  -0.00000000            0.00       -0.00       -0.00
   0.00000000  -0.00000000  -0.00000003            0.00       -0.00       -0.00

     Energy error            =      1.6E-08
     Gradient error          =      0.0E+00
     Cell gradient error     =      2.7E-08

ibrav =      2
 celldm(1) =     10.34272040
Input lattice vectors:
    -0.36938287     0.00000000     0.36938287
     0.00000000     0.36938287     0.36938287
    -0.36938287     0.36938287     0.00000000
New lattice vectors in INITIAL alat:
    -0.36938287     0.00000000     0.36938287
     0.00000000     0.36938287     0.36938287
    -0.36938287     0.36938287     0.00000000
New lattice vectors in NEW alat (for information only):
    -0.50000000     0.00000000     0.50000000
     0.00000000     0.50000000     0.50000000
    -0.50000000     0.50000000     0.00000000
Discrepancy in bohr =     0.000000    0.000000    0.000000

     bfgs converged in  15 scf cycles and  14 bfgs steps
     (criteria: energy <  1.0E-05 Ry, force <  1.0E-04Ry/Bohr, cell <  5.0E-01kbar)

     End of BFGS Geometry Optimization

     Final enthalpy =     -16.9203398182 Ry

     File ./outdir/si.bfgs deleted, as requested
Begin final coordinates
     new unit-cell volume =    276.59502 a.u.^3 (    40.98715 Ang^3 )
     density =      2.27569 g/cm^3

CELL_PARAMETERS (alat= 14.00000000)
  -0.369382871   0.000000000   0.369382871
   0.000000000   0.369382871   0.369382871
  -0.369382871   0.369382871   0.000000000

ATOMIC_POSITIONS (alat)
Si            0.0000000000        0.0000000000        0.0000000000    0   0   0
Si            0.1846914356        0.1846914356        0.1846914356    0   0   0
End final coordinates



     Writing output data file ./outdir/si.save/

     Final scf calculation at the relaxed structure.
     The G-vectors are recalculated for the final unit cell
     Results may differ from those at the preceding step.
 
     Parallelization info
     --------------------
     sticks:   dense  smooth     PW     G-vecs:    dense   smooth      PW
     Min          36      36     12                  514      514      94
     Max          37      37     14                  518      518      95
     Sum         439     439    151                 6183     6183    1139
 


     bravais-lattice index     =            2
     lattice parameter (alat)  =      14.0000  a.u.
     unit-cell volume          =     276.5950 (a.u.)^3
     number of atoms/cell      =            2
     number of atomic types    =            1
     number of electrons       =         8.00
     number of Kohn-Sham states=            4
     kinetic-energy cutoff     =      30.0000  Ry
     charge density cutoff     =     120.0000  Ry
     scf convergence threshold =      1.0E-09
     mixing beta               =       0.7000
     number of iterations used =            8  plain     mixing
     press convergence thresh. =      5.0E-01
     Exchange-correlation= PBE
                           (   1   4   3   4   0   0   0)

     celldm(1)=  14.000000  celldm(2)=   0.000000  celldm(3)=   0.000000
     celldm(4)=   0.000000  celldm(5)=   0.000000  celldm(6)=   0.000000

     crystal axes: (cart. coord. in units of alat)
               a(1) = (  -0.369383   0.000000   0.369383 )  
               a(2) = (   0.000000   0.369383   0.369383 )  
               a(3) = (  -0.369383   0.369383   0.000000 )  

     reciprocal axes: (cart. coord. in units 2 pi/alat)
               b(1) = ( -1.353609 -1.353609  1.353609 )  
               b(2) = (  1.353609  1.353609  1.353609 )  
               b(3) = ( -1.353609  1.353609 -1.353609 )  


     PseudoPot. # 1 for Si read from file:
     ./Si_r.upf
     MD5 check sum: c84abb4b0aac9c93a8e9f74896432a0a
     Pseudo is Norm-conserving + core correction, Zval =  4.0
     Generated using ONCVPSP code by D. R. Hamann
     Using radial grid of 1528 points,  6 beta functions with: 
                l(1) =   0
                l(2) =   0
                l(3) =   1
                l(4) =   1
                l(5) =   2
                l(6) =   2

     atomic species   valence    mass     pseudopotential
        Si             4.00    28.08550     Si( 1.00)

     48 Sym. Ops., with inversion, found (24 have fractional translation)



   Cartesian axes

     site n.     atom                  positions (alat units)
         1           Si  tau(   1) = (   0.0000000   0.0000000   0.0000000  )
         2           Si  tau(   2) = (   0.1846914   0.1846914   0.1846914  )

     number of k points=    10
                       cart. coord. in units 2pi/alat
        k(    1) = (   0.0000000   0.0000000   0.0000000), wk =   0.0160000
        k(    2) = (  -0.2707218   0.2707218  -0.2707218), wk =   0.1280000
        k(    3) = (  -0.5414436   0.5414436  -0.5414436), wk =   0.1280000
        k(    4) = (   0.0000000   0.5414436   0.0000000), wk =   0.0960000
        k(    5) = (  -0.2707218   0.8121654  -0.2707218), wk =   0.3840000
        k(    6) = (   0.8121654  -0.2707218   0.8121654), wk =   0.3840000
        k(    7) = (   0.5414436   0.0000000   0.5414436), wk =   0.1920000
        k(    8) = (   0.0000000   1.0828872   0.0000000), wk =   0.0960000
        k(    9) = (   1.0828872   0.0000000   1.0828872), wk =   0.1920000
        k(   10) = (   0.8121654  -0.2707218   1.3536091), wk =   0.3840000

     Dense  grid:     6183 G-vectors     FFT dimensions: (  32,  32,  32)

     Estimated max dynamical RAM per process >       2.29 MB

     Estimated total dynamical RAM >      27.52 MB

     Initial potential from superposition of free atoms

     starting charge    7.99877, renormalised to    8.00000
     Starting wfcs are    8 randomized atomic wfcs

     total cpu time spent up to now is        9.8 secs

     Self-consistent Calculation

     iteration #  1     ecut=    30.00 Ry     beta= 0.70
     Davidson diagonalization with overlap
     ethr =  1.00E-06,  avg # of iterations = 10.3

     total cpu time spent up to now is        9.8 secs

     total energy              =     -16.91776977 Ry
     estimated scf accuracy    <       0.05739268 Ry

     iteration #  2     ecut=    30.00 Ry     beta= 0.70
     Davidson diagonalization with overlap
     ethr =  7.17E-04,  avg # of iterations =  1.0

     total cpu time spent up to now is        9.8 secs

     total energy              =     -16.91966169 Ry
     estimated scf accuracy    <       0.00248733 Ry

     iteration #  3     ecut=    30.00 Ry     beta= 0.70
     Davidson diagonalization with overlap
     ethr =  3.11E-05,  avg # of iterations =  1.9

     total cpu time spent up to now is        9.9 secs

     total energy              =     -16.91996386 Ry
     estimated scf accuracy    <       0.00002062 Ry

     iteration #  4     ecut=    30.00 Ry     beta= 0.70
     Davidson diagonalization with overlap
     ethr =  2.58E-07,  avg # of iterations =  4.9

     total cpu time spent up to now is        9.9 secs

     total energy              =     -16.92000570 Ry
     estimated scf accuracy    <       0.00000556 Ry

     iteration #  5     ecut=    30.00 Ry     beta= 0.70
     Davidson diagonalization with overlap
     ethr =  6.95E-08,  avg # of iterations =  2.0

     total cpu time spent up to now is        9.9 secs

     total energy              =     -16.92000611 Ry
     estimated scf accuracy    <       0.00000265 Ry

     iteration #  6     ecut=    30.00 Ry     beta= 0.70
     Davidson diagonalization with overlap
     ethr =  3.32E-08,  avg # of iterations =  1.6

     total cpu time spent up to now is        9.9 secs

     total energy              =     -16.92000633 Ry
     estimated scf accuracy    <          4.3E-09 Ry

     iteration #  7     ecut=    30.00 Ry     beta= 0.70
     Davidson diagonalization with overlap
     ethr =  5.39E-11,  avg # of iterations =  7.6

     total cpu time spent up to now is       10.0 secs

     total energy              =     -16.92000637 Ry
     estimated scf accuracy    <          3.2E-09 Ry

     iteration #  8     ecut=    30.00 Ry     beta= 0.70
     Davidson diagonalization with overlap
     ethr =  3.95E-11,  avg # of iterations =  1.1

     total cpu time spent up to now is       10.0 secs

     End of self-consistent calculation

          k = 0.0000 0.0000 0.0000 (   749 PWs)   bands (ev):

    -5.8020   6.0078   6.0078   6.0078

          k =-0.2707 0.2707-0.2707 (   776 PWs)   bands (ev):

    -5.2952   3.0186   5.4373   5.4373

          k =-0.5414 0.5414-0.5414 (   769 PWs)   bands (ev):

    -3.9653  -0.1837   4.8959   4.8959

          k = 0.0000 0.5414 0.0000 (   785 PWs)   bands (ev):

    -5.1205   3.3626   4.5492   4.5492

          k =-0.2707 0.8122-0.2707 (   763 PWs)   bands (ev):

    -4.0042   0.7377   3.4260   4.0486

          k = 0.8122-0.2707 0.8122 (   775 PWs)   bands (ev):

    -3.1457  -0.6176   2.6342   4.3231

          k = 0.5414 0.0000 0.5414 (   770 PWs)   bands (ev):

    -4.4815   1.5533   3.0709   5.1729

          k = 0.0000 1.0829 0.0000 (   761 PWs)   bands (ev):

    -3.1449  -0.1363   3.3638   3.3638

          k = 1.0829 0.0000 1.0829 (   764 PWs)   bands (ev):

    -1.9726  -1.3698   2.0369   3.4796

          k = 0.8122-0.2707 1.3536 (   754 PWs)   bands (ev):

    -2.7197  -0.5129   2.1167   3.0827

     highest occupied level (ev):     6.0078

!    total energy              =     -16.92000637 Ry
     estimated scf accuracy    <          8.8E-10 Ry

     The total energy is the sum of the following terms:
     one-electron contribution =       4.78372552 Ry
     hartree contribution      =       1.12547092 Ry
     xc contribution           =      -6.16264593 Ry
     ewald contribution        =     -16.66655689 Ry

     convergence has been achieved in   8 iterations

     Forces acting on atoms (cartesian axes, Ry/au):

     atom    1 type  1   force =     0.00000000    0.00000000    0.00000000
     atom    2 type  1   force =     0.00000000    0.00000000    0.00000000

     Total force =     0.000000     Total SCF correction =     0.000000


     Computing stress (Cartesian axis) and pressure

          total   stress  (Ry/bohr**3)                   (kbar)     P=       -0.62
  -0.00000421  -0.00000000  -0.00000000           -0.62       -0.00       -0.00
   0.00000000  -0.00000421  -0.00000000            0.00       -0.62       -0.00
  -0.00000000   0.00000000  -0.00000421           -0.00        0.00       -0.62


     Writing output data file ./outdir/si.save/
 
     init_run     :      0.09s CPU      0.23s WALL (       2 calls)
     electrons    :      5.11s CPU      6.44s WALL (      16 calls)
     update_pot   :      1.25s CPU      1.27s WALL (      14 calls)
     forces       :      0.38s CPU      0.41s WALL (      16 calls)
     stress       :      0.82s CPU      0.86s WALL (      16 calls)

     Called by init_run:
     wfcinit      :      0.02s CPU      0.06s WALL (       2 calls)
     potinit      :      0.03s CPU      0.03s WALL (       2 calls)
     hinit0       :      0.04s CPU      0.12s WALL (       2 calls)

     Called by electrons:
     c_bands      :      4.13s CPU      4.88s WALL (     162 calls)
     sum_band     :      0.56s CPU      0.63s WALL (     162 calls)
     v_of_rho     :      0.36s CPU      0.38s WALL (     176 calls)
     mix_rho      :      0.05s CPU      0.06s WALL (     162 calls)

     Called by c_bands:
     init_us_2    :      0.17s CPU      0.20s WALL (    3580 calls)
     cegterg      :      3.37s CPU      3.76s WALL (    1620 calls)

     Called by *egterg:
     cdiaghg      :      0.20s CPU      0.25s WALL (    6092 calls)
     h_psi        :      2.79s CPU      3.12s WALL (    6272 calls)
     g_psi        :      0.02s CPU      0.02s WALL (    4632 calls)

     Called by h_psi:
     h_psi:calbec :      0.16s CPU      0.18s WALL (    6272 calls)
     vloc_psi     :      2.50s CPU      2.80s WALL (    6272 calls)
     add_vuspsi   :      0.08s CPU      0.09s WALL (    6272 calls)

     General routines
     calbec       :      0.17s CPU      0.19s WALL (    7072 calls)
     fft          :      0.22s CPU      0.32s WALL (    2160 calls)
     ffts         :      0.01s CPU      0.01s WALL (     162 calls)
     fftw         :      2.66s CPU      2.99s WALL (   49194 calls)
 
     Parallel routines
     fft_scatt_xy :      0.26s CPU      0.28s WALL (   51516 calls)
     fft_scatt_yz :      0.98s CPU      1.10s WALL (   51516 calls)
 
     PWSCF        :      7.85s CPU     10.07s WALL

 
   This run was terminated on:  18:11:19  12Jun2021            

=------------------------------------------------------------------------------=
   JOB DONE.
=------------------------------------------------------------------------------=
