 argument  1 = /lustre/ukt/milias/work/projects/open-collection/theoretical_chemistry/projects/adsorbate_on_surface/on_quartz/quartz/nwchem/Quartz-G_molecular_slab_153atoms/ecp/Bi_on_quartz/BiQ.geopt_ecp_b3lyp.nw



============================== echo of input deck ==============================
echo

start molecule

print low

title "Bi@Quartz ecp"
charge 0

geometry units angstroms print xyz autosym
  load format xyz Bi_Qgeom.xyz
end

basis
 * library lanl2dz_ecp
end

ecp
  Si library lanl2dz_ecp
  Bi library lanl2dz_ecp
end

dft
  rodft
  mult 4
  xc b3lyp
  maxiter 100
end

driver
  maxiter 999
  xyz BiQgeo
end

task dft optimize

#task dft frequencies

================================================================================


                                         
                                         


             Northwest Computational Chemistry Package (NWChem) 7.2.0
             --------------------------------------------------------


                    Environmental Molecular Sciences Laboratory
                       Pacific Northwest National Laboratory
                                Richland, WA 99352

                              Copyright (c) 1994-2022
                       Pacific Northwest National Laboratory
                            Battelle Memorial Institute

             NWChem is an open-source computational chemistry package
                        distributed under the terms of the
                      Educational Community License (ECL) 2.0
             A copy of the license is included with this distribution
                              in the LICENSE.TXT file

                                  ACKNOWLEDGMENT
                                  --------------

            This software and its documentation were developed at the
            EMSL at Pacific Northwest National Laboratory, a multiprogram
            national laboratory, operated for the U.S. Department of Energy
            by Battelle under Contract Number DE-AC05-76RL01830. Support
            for this work was provided by the Department of Energy Office
            of Biological and Environmental Research, Office of Basic
            Energy Sciences, and the Office of Advanced Scientific Computing.


           Job information
           ---------------

    hostname        = lxbk0874
    program         = /lustre/ukt/milias/work/software/nwchem/nwchem-7.2.0_gnu_openmpi_openblas/bin/LINUX64/nwchem
    date            = Tue Aug  1 11:03:19 2023

    compiled        = Sun_Jul_02_11:55:06_2023
    source          = /lustre/ukt/milias/work/software/nwchem/nwchem-7.2.0_gnu_openmpi_openblas
    nwchem branch   = 7.2.0
    nwchem revision = v7.2.0-beta1-192-gd0d141fdfb
    ga revision     = 5.8.0
    use scalapack   = F
    input           = /lustre/ukt/milias/work/projects/open-collection/theoretical_chemistry/projects/adsorbate_on_surface/on_quartz/quartz/nwchem/Quartz-G_molecular_slab_153atoms/ecp/Bi_on_quartz/BiQ.geopt_ecp_b3lyp.nw
    prefix          = molecule.
    data base       = ./molecule.db
    status          = startup
    nproc           =      140
    time left       =     -1s



           Memory information
           ------------------

    heap     =   26214398 doubles =    200.0 Mbytes
    stack    =   26214395 doubles =    200.0 Mbytes
    global   =   52428800 doubles =    400.0 Mbytes (distinct from heap & stack)
    total    =  104857593 doubles =    800.0 Mbytes
    verify   = yes
    hardfail = no 


           Directory information
           ---------------------

  0 permanent = .
  0 scratch   = .




                                NWChem Input Module
                                -------------------


                                   Bi@Quartz ecp
                                   -------------

 Scaling coordinates for geometry "geometry" by  1.889725989
 (inverse scale =  0.529177249)


          ------
          auto-z
          ------
  autoz: The atoms group into disjoint clusters
 cluster   1:    1    2    3    4    5    6    7    8    9   10   11
                12   13   14   15   16   17   18   19   20   21   22
                23   24   25   26   27   28   29   30   31   32   33
                34   35   36   37   38   39   40   41   42   43   44
                45   46   47   48   49   50   51   52   53   54   55
                56   57   58   59   60   61   62   63   64   65   66
                67   68   69   70   71   72   73   74   75   76   77
                78   79   80   81   82   83   84   85   86   87   88
                89   90   91   92   93   94   95   96   97   98   99
               100  101  102  103  104  105  106  107  108  109  110
               111  112  113  114  115  116  117  118  119  120  121
               122  123  124  125  126  127  128  129  130  131  132
               133  134  135  136  137  138  139  140  141  142  143
               144  145  146  147  148  149  150  151  152  153
 cluster   2:  154
 Connecting clusters   1   2 via atoms   30  154 r = 3.58
  autoz: regenerating connections with new bonds
  no constraints, skipping    0.0000000000000000     
  no constraints, skipping    0.0000000000000000     


                             Geometry "geometry" -> ""
                             -------------------------

 Output coordinates in angstroms (scale by  1.889725989 to convert to a.u.)

  No.       Tag          Charge          X              Y              Z
 ---- ---------------- ---------- -------------- -------------- --------------
    1 O                    8.0000     4.10397118    -1.54824795    -4.06333586
    2 H                    1.0000    -1.93789860     5.21938651    -0.07502083
    3 H                    1.0000     4.93564507    -7.36897507     0.25862526
    4 Si                  14.0000    -1.74561360     8.15259019     3.07124032
    5 Si                  14.0000     0.37182687     7.01590844    -0.59726637
    6 Si                  14.0000     2.97906547     4.77765753    -4.48385983
    7 H                    1.0000     1.31314619    -6.05109916    -1.11711580
    8 Si                  14.0000    -3.38704834     4.40801069     1.59542647
    9 Si                  14.0000     0.19999686     2.36187470    -1.07798912
   10 Si                  14.0000     3.65079326    -0.39141613    -2.96178744
   11 H                    1.0000    -2.40586605    -3.40408786    -2.89672807
   12 Si                  14.0000    -4.51984786     0.29124871    -1.11865525
   13 Si                  14.0000    -0.65771361    -2.45651177    -1.08998011
   14 Si                  14.0000     3.63134479    -4.63583755    -0.34309803
   15 H                    1.0000    -1.77132557     7.17363298     0.57036463
   16 Si                  14.0000    -4.36183801    -4.75425795    -3.10598789
   17 Si                  14.0000    -0.85213033    -7.12374703    -0.86903901
   18 Si                  14.0000     3.48889511    -8.20483024     1.92692154
   19 O                    8.0000    -2.95691103     0.29587468    -1.75517691
   20 O                    8.0000     2.67302779     4.67838584     4.67593444
   21 O                    8.0000     6.21039658     4.43221132     0.38540923
   22 O                    8.0000    -1.62671479    -6.61031022    -2.23918543
   23 O                    8.0000     0.82945360    -2.62036774    -1.88525646
   24 O                    8.0000    -1.07650534     1.47305420     4.52162938
   25 O                    8.0000     3.42575217     0.86739547     2.84903085
   26 O                    8.0000     2.07081846    -8.25017941     1.07797561
   27 O                    8.0000     4.56353779    -5.96330532    -0.80301553
   28 O                    8.0000    -4.16104776    -2.26041240     2.90086854
   29 O                    8.0000     0.31134767    -2.61840990     4.04377950
   30 H                    1.0000    -2.37874719     1.11287096    -1.68903526
   31 H                    1.0000    -5.18588156    -4.99413086    -5.32071573
   32 O                    8.0000     2.26630885    -4.63813667    -1.28600283
   33 O                    8.0000     0.95151890     2.13339480    -2.56277514
   34 O                    8.0000    -2.28428552     4.74612522     5.61036965
   35 O                    8.0000    -5.08544772    -1.23173643    -1.28423158
   36 Si                  14.0000    -4.51144434    -3.54526463     1.92631959
   37 Si                  14.0000     0.16656947    -4.25716734     3.65539200
   38 O                    8.0000     1.72386595     4.35640756     2.15317974
   39 O                    8.0000     5.05252301     2.97651258    -1.59616223
   40 H                    1.0000     4.72417995    -6.21968754    -1.72615227
   41 H                    1.0000    -3.47087545     7.17774081     1.66554058
   42 Si                  14.0000    -1.54595529     5.17029275     4.19475919
   43 O                    8.0000    -5.12591425    -3.82356081    -1.98217949
   44 O                    8.0000    -1.48578711    -6.27861399     0.43757765
   45 O                    8.0000    -2.72554420    -4.33887894    -3.06133800
   46 Si                  14.0000     1.93599074     4.55755217     0.55325381
   47 O                    8.0000    -0.67028937    -4.44325547     2.27455468
   48 H                    1.0000    -1.82218316    -5.69148629    -2.59317969
   49 H                    1.0000     5.06941394    -4.46239172     4.06254878
   50 Si                  14.0000     4.99050387     2.55803284    -3.18275774
   51 O                    8.0000    -3.11116138    -4.23579032     1.35704744
   52 O                    8.0000     0.81765276    -6.86595999    -0.81948115
   53 O                    8.0000     1.55556411     6.10277464     0.08699257
   54 O                    8.0000     3.29503734    -4.84776050     1.24430428
   55 O                    8.0000    -5.92508470     1.18012078     2.70928517
   56 O                    8.0000     4.82804088    -8.07384081     0.93949249
   57 O                    8.0000     4.07827332     3.64928633    -4.00919311
   58 H                    1.0000    -2.75379453     9.44371908     4.82339572
   59 O                    8.0000    -0.72667242     0.42791096     2.09790438
   60 H                    1.0000     3.65280534    -1.86367546    -4.85815446
   61 H                    1.0000    -2.31588478    -1.10281488    -2.12637770
   62 O                    8.0000    -4.39779428    -6.39199517    -2.84056270
   63 O                    8.0000     4.24236651    -1.11004380     1.16743839
   64 H                    1.0000    -5.38629671    -5.02402691     3.59064187
   65 O                    8.0000    -4.25334284     3.04053761     1.71185998
   66 O                    8.0000    -1.11480089    -8.74618743    -0.70764602
   67 H                    1.0000    -0.47942889    -5.15374207     5.79259134
   68 O                    8.0000     3.63340733    -9.50620982     2.93464776
   69 H                    1.0000     6.92811377     2.27504034    -4.58156308
   70 H                    1.0000     7.27287228    -1.73722812    -0.60939288
   71 H                    1.0000    -8.08399127    -3.19589637    -1.06412449
   72 H                    1.0000     2.86637273     5.58853811     4.93586812
   73 H                    1.0000     6.66083518     5.14904496    -0.07983377
   74 O                    8.0000    -2.38465515     4.64444553     2.86665720
   75 O                    8.0000     0.87251779     3.67297357    -0.33887706
   76 H                    1.0000    -0.12708987     1.77858163     4.46776010
   77 H                    1.0000     4.00623940     1.47687617     2.30955744
   78 O                    8.0000     4.19891277    -4.22288537     3.70709195
   79 O                    8.0000     1.69377001    -4.81312812     3.41457603
   80 O                    8.0000    -5.12151549    -4.41066235    -4.55101685
   81 O                    8.0000    -1.16217082     6.64612111    -0.09867255
   82 H                    1.0000    -5.35891296     5.74987495     1.42345553
   83 O                    8.0000     4.26305541     1.09134942    -3.33669437
   84 O                    8.0000     1.45239916     2.36424292     3.98377915
   85 O                    8.0000     5.00418670     2.12648835     1.02529741
   86 O                    8.0000     1.65901474     4.56855446    -3.47119684
   87 H                    1.0000    -3.34016622    -1.89462671     3.33590289
   88 O                    8.0000    -1.92748496    -1.15900324     3.90167802
   89 O                    8.0000     2.96652316    -1.80888036     3.52000083
   90 H                    1.0000     1.20927321     2.96064726    -3.07297592
   91 O                    8.0000    -0.01277173     4.59308778     4.12845761
   92 O                    8.0000    -5.47044869    -4.66346594     2.69760710
   93 O                    8.0000    -0.66056720    -5.04499837     4.85004846
   94 O                    8.0000    -4.39779908     5.77528940     1.56044765
   95 O                    8.0000     3.48042842     4.14544801     0.19498929
   96 H                    1.0000     1.20228514    -2.17850605     3.98014966
   97 O                    8.0000    -5.34194201    -3.07949617     0.58965331
   98 O                    8.0000    -1.45535616     2.50498977    -1.21856127
   99 H                    1.0000     1.21492685    -1.83367492    -2.37605338
  100 H                    1.0000    -2.31655765     3.85446953     5.99460579
  101 O                    8.0000     6.55240785     2.54067525    -3.73219162
  102 H                    1.0000     1.65599782    -7.74763404     0.31883574
  103 O                    8.0000    -4.41554301     0.73554373     0.46078712
  104 O                    8.0000    -5.48403746     1.40034204    -1.89643919
  105 H                    1.0000    -6.26223331     0.35319721     3.08740549
  106 Si                  14.0000    -5.74599420    -2.70785703    -0.95415286
  107 O                    8.0000    -0.47137484    -1.31940837     0.07459660
  108 O                    8.0000     0.56272066     1.05619099    -0.16963231
  109 O                    8.0000    -3.21314165     0.92715811     2.88738855
  110 Si                  14.0000    -1.61197626    -4.73049670     0.96331932
  111 H                    1.0000     1.21053790     5.31973060    -2.98334445
  112 H                    1.0000     3.54418665    -2.59470276     3.73395000
  113 H                    1.0000     2.19847866     1.75207238     3.71517092
  114 Si                  14.0000     3.15572978    -5.24331148     2.84249656
  115 O                    8.0000    -1.01017054    -3.85898034    -0.32891851
  116 O                    8.0000    -2.63934321     9.28403098     3.87709748
  117 O                    8.0000     1.97618285    -0.32451185    -2.89237784
  118 H                    1.0000     1.70489338    -3.83851155    -1.59708600
  119 O                    8.0000     4.48877444    -3.23389957    -0.46707786
  120 H                    1.0000    -6.16904674     1.25258733    -2.56317078
  121 H                    1.0000    -0.07578346     7.10656431    -2.92747404
  122 Si                  14.0000    -4.47428884     1.41237896     1.95439045
  123 H                    1.0000    -1.98638917     3.22082544    -0.71894098
  124 H                    1.0000     2.28765811     3.83516284    -6.60922462
  125 O                    8.0000    -0.30819666     8.70967581     2.49375912
  126 Si                  14.0000     0.24168318    -0.12716160     0.92016741
  127 O                    8.0000     1.64555003    -0.64737132     1.57271297
  128 O                    8.0000    -2.58377232     7.64488764     1.67973821
  129 O                    8.0000     0.61063872     8.62842405    -0.17971147
  130 Si                  14.0000     4.90099728    -1.65728141    -0.23518933
  131 H                    1.0000     1.49145290     0.55974653    -2.83414357
  132 O                    8.0000    -7.38645203    -2.53037281    -1.14046463
  133 O                    8.0000    -2.47797388     4.40128963     0.17756549
  134 O                    8.0000     0.49000828     6.68224092    -2.25894613
  135 O                    8.0000     6.53303038    -1.40562726    -0.08265333
  136 O                    8.0000    -1.53388542     6.81734190     4.03061083
  137 O                    8.0000     3.52859211     6.33320548    -4.30791952
  138 O                    8.0000     2.61133354     4.58466357    -6.09263605
  139 Si                  14.0000     1.47174498     4.01403459     3.75384135
  140 Si                  14.0000    -1.74221723     0.43393583     3.41078225
  141 H                    1.0000     0.02332776     8.90388333     1.59126588
  142 H                    1.0000     1.38247128     9.18112244    -0.38331403
  143 Si                  14.0000     4.94753603     3.45024994    -0.02719156
  144 Si                  14.0000     3.11428757    -0.69118002     2.29621069
  145 H                    1.0000     3.94020333     6.90944271    -4.96673311
  146 O                    8.0000     3.48948078    -6.83970951     2.93573423
  147 O                    8.0000    -1.83983798    -2.00622477    -2.16795031
  148 H                    1.0000     5.75408244     1.50265019     1.03610214
  149 O                    8.0000     4.29637491    -0.82950140    -1.51854465
  150 H                    1.0000    -1.12751588    -1.73318493     4.10505919
  151 H                    1.0000     3.57475143   -10.44683977     2.72591152
  152 H                    1.0000    -0.71180280    -9.35821100    -0.07512272
  153 H                    1.0000    -3.62021500    -6.91689638    -2.55025010
  154 Bi                  83.0000    -1.87798809     0.69604571    -5.21305617

      Atomic Mass 
      ----------- 

      O                 15.994910
      H                  1.007825
      Si                27.976930
      Bi               208.980400


 Effective nuclear repulsion energy (a.u.)   50141.5326242490

            Nuclear Dipole moment (a.u.) 
            ----------------------------
        X                 Y               Z
 ---------------- ---------------- ----------------
     0.0000000000     0.0000000000     0.0000000000



                                Z-matrix (autoz)
                                -------- 

 Units are Angstrom for bonds and degrees for angles

      Type          Name      I     J     K     L     M      Value
      ----------- --------  ----- ----- ----- ----- ----- ----------
    1 Stretch                  1    10                       1.66043
    2 Stretch                  1    60                       0.96684
    3 Stretch                  2   133                       1.01231
    4 Stretch                  3    56                       0.98590
    5 Stretch                  4   116                       1.65176
    6 Stretch                  4   125                       1.64621
    7 Stretch                  4   128                       1.70193
    8 Stretch                  4   136                       1.65774
    9 Stretch                  5    53                       1.64416
   10 Stretch                  5    81                       1.65484
   11 Stretch                  5   129                       1.68273
   12 Stretch                  5   134                       1.69896
   13 Stretch                  6    57                       1.64523
   14 Stretch                  6    86                       1.67683
   15 Stretch                  6   137                       1.65912
   16 Stretch                  6   138                       1.66152
   17 Stretch                  7    52                       0.99905
   18 Stretch                  8    65                       1.62296
   19 Stretch                  8    74                       1.63607
   20 Stretch                  8    94                       1.70067
   21 Stretch                  8   133                       1.68428
   22 Stretch                  9    33                       1.67976
   23 Stretch                  9    75                       1.64850
   24 Stretch                  9    98                       1.66746
   25 Stretch                  9   108                       1.63141
   26 Stretch                 10    83                       1.64743
   27 Stretch                 10   117                       1.67738
   28 Stretch                 10   149                       1.64062
   29 Stretch                 11    45                       1.00156
   30 Stretch                 12    19                       1.68759
   31 Stretch                 12    35                       1.63303
   32 Stretch                 12   103                       1.64405
   33 Stretch                 12   104                       1.66274
   34 Stretch                 13    23                       1.69440
   35 Stretch                 13   107                       1.63828
   36 Stretch                 13   115                       1.63412
   37 Stretch                 13   147                       1.66199
   38 Stretch                 14    27                       1.68602
   39 Stretch                 14    32                       1.65904
   40 Stretch                 14    54                       1.63642
   41 Stretch                 14   119                       1.64803
   42 Stretch                 15    81                       1.04735
   43 Stretch                 16    43                       1.64711
   44 Stretch                 16    45                       1.68878
   45 Stretch                 16    62                       1.65950
   46 Stretch                 16    80                       1.66832
   47 Stretch                 17    22                       1.65557
   48 Stretch                 17    44                       1.68018
   49 Stretch                 17    52                       1.69029
   50 Stretch                 17    66                       1.65147
   51 Stretch                 18    26                       1.65339
   52 Stretch                 18    56                       1.66898
   53 Stretch                 18    68                       1.65227
   54 Stretch                 18   146                       1.69743
   55 Stretch                 19    30                       1.00306
   56 Stretch                 20    72                       0.96609
   57 Stretch                 20   139                       1.65369
   58 Stretch                 21    73                       0.96602
   59 Stretch                 21   143                       1.65206
   60 Stretch                 22    48                       1.00387
   61 Stretch                 23    99                       1.00417
   62 Stretch                 24    76                       0.99882
   63 Stretch                 24   140                       1.66040
   64 Stretch                 25    77                       0.99973
   65 Stretch                 25   144                       1.68279
   66 Stretch                 26   102                       1.00046
   67 Stretch                 27    40                       0.97145
   68 Stretch                 28    36                       1.65026
   69 Stretch                 28    87                       0.99845
   70 Stretch                 29    37                       1.69036
   71 Stretch                 29    96                       0.99566
   72 Stretch                 30   154                       3.58374
   73 Stretch                 31    80                       0.96800
   74 Stretch                 32   118                       1.02536
   75 Stretch                 33    90                       1.00553
   76 Stretch                 34    42                       1.65197
   77 Stretch                 34   100                       0.97146
   78 Stretch                 35   106                       1.65052
   79 Stretch                 36    51                       1.66183
   80 Stretch                 36    92                       1.66281
   81 Stretch                 36    97                       1.64114
   82 Stretch                 37    47                       1.62532
   83 Stretch                 37    79                       1.64299
   84 Stretch                 37    93                       1.65289
   85 Stretch                 38    46                       1.62641
   86 Stretch                 38   139                       1.65617
   87 Stretch                 39    50                       1.64203
   88 Stretch                 39   143                       1.64229
   89 Stretch                 41   128                       1.00269
   90 Stretch                 42    74                       1.65644
   91 Stretch                 42    91                       1.63958
   92 Stretch                 42   136                       1.65525
   93 Stretch                 43   106                       1.63894
   94 Stretch                 44   110                       1.63982
   95 Stretch                 46    53                       1.65826
   96 Stretch                 46    75                       1.64601
   97 Stretch                 46    95                       1.63813
   98 Stretch                 47   110                       1.63970
   99 Stretch                 49    78                       0.97030
  100 Stretch                 50    57                       1.64499
  101 Stretch                 50    83                       1.64440
  102 Stretch                 50   101                       1.65581
  103 Stretch                 51   110                       1.62706
  104 Stretch                 54   114                       1.65230
  105 Stretch                 55   105                       0.96977
  106 Stretch                 55   122                       1.65185
  107 Stretch                 58   116                       0.96648
  108 Stretch                 59   126                       1.62262
  109 Stretch                 59   140                       1.65982
  110 Stretch                 61   147                       1.02201
  111 Stretch                 62   153                       0.98206
  112 Stretch                 63   130                       1.64336
  113 Stretch                 63   144                       1.64989
  114 Stretch                 64    92                       0.96675
  115 Stretch                 65   122                       1.66088
  116 Stretch                 66   152                       0.96802
  117 Stretch                 67    93                       0.96593
  118 Stretch                 68   151                       0.96530
  119 Stretch                 69   101                       0.96600
  120 Stretch                 70   135                       0.96684
  121 Stretch                 71   132                       0.96711
  122 Stretch                 78   114                       1.69618
  123 Stretch                 79   114                       1.62778
  124 Stretch                 82    94                       0.97116
  125 Stretch                 84   113                       1.00177
  126 Stretch                 84   139                       1.66585
  127 Stretch                 85   143                       1.69213
  128 Stretch                 85   148                       0.97552
  129 Stretch                 86   111                       1.00170
  130 Stretch                 88   140                       1.67713
  131 Stretch                 88   150                       1.00548
  132 Stretch                 89   112                       0.99849
  133 Stretch                 89   144                       1.66396
  134 Stretch                 91   139                       1.63690
  135 Stretch                 95   143                       1.63862
  136 Stretch                 97   106                       1.63851
  137 Stretch                 98   123                       1.02178
  138 Stretch                103   122                       1.64086
  139 Stretch                104   120                       0.96726
  140 Stretch                106   132                       1.66052
  141 Stretch                107   126                       1.62631
  142 Stretch                108   126                       1.64044
  143 Stretch                109   122                       1.64208
  144 Stretch                109   140                       1.63732
  145 Stretch                110   115                       1.67081
  146 Stretch                114   146                       1.63358
  147 Stretch                117   131                       1.01008
  148 Stretch                119   130                       1.64603
  149 Stretch                121   134                       0.97319
  150 Stretch                124   138                       0.96612
  151 Stretch                125   141                       0.98088
  152 Stretch                126   127                       1.63318
  153 Stretch                127   144                       1.63785
  154 Stretch                129   142                       0.97090
  155 Stretch                130   135                       1.65835
  156 Stretch                130   149                       1.64249
  157 Stretch                137   145                       0.96722
  158 Bend                     1    10    83               112.00348
  159 Bend                     1    10   117               109.13026
  160 Bend                     1    10   149               106.86774
  161 Bend                     2   133     8               119.65526
  162 Bend                     3    56    18               123.52321
  163 Bend                     4   116    58               130.91542
  164 Bend                     4   125   141               133.22659
  165 Bend                     4   128    41               125.89246
  166 Bend                     4   136    42               149.08490
  167 Bend                     5    53    46               143.10228
  168 Bend                     5    81    15               128.24744
  169 Bend                     5   129   142               127.32183
  170 Bend                     5   134   121               123.07917
  171 Bend                     6    57    50               166.03081
  172 Bend                     6    86   111               123.57760
  173 Bend                     6   137   145               128.85122
  174 Bend                     6   138   124               132.99974
  175 Bend                     7    52    17               127.27246
  176 Bend                     8    65   122               155.15664
  177 Bend                     8    74    42               168.26044
  178 Bend                     8    94    82               124.75285
  179 Bend                     9    33    90               116.82604
  180 Bend                     9    75    46               159.06729
  181 Bend                     9    98   123               122.33344
  182 Bend                     9   108   126               154.65145
  183 Bend                    10     1    60               130.18914
  184 Bend                    10    83    50               161.06474
  185 Bend                    10   117   131               121.09117
  186 Bend                    10   149   130               165.18764
  187 Bend                    11    45    16               122.89973
  188 Bend                    12    19    30               120.74288
  189 Bend                    12    35   106               162.25142
  190 Bend                    12   103   122               169.63645
  191 Bend                    12   104   120               129.13939
  192 Bend                    13    23    99               119.37774
  193 Bend                    13   107   126               158.17058
  194 Bend                    13   115   110               152.32105
  195 Bend                    13   147    61               122.98486
  196 Bend                    14    27    40               123.94760
  197 Bend                    14    32   118               128.45148
  198 Bend                    14    54   114               170.61436
  199 Bend                    14   119   130               159.14762
  200 Bend                    16    43   106               171.16437
  201 Bend                    16    62   153               123.89074
  202 Bend                    16    80    31               126.50288
  203 Bend                    17    22    48               131.81981
  204 Bend                    17    44   110               138.87017
  205 Bend                    17    66   152               128.22628
  206 Bend                    18    26   102               137.00784
  207 Bend                    18    68   151               129.07269
  208 Bend                    18   146   114               138.75825
  209 Bend                    19    12    35               106.56363
  210 Bend                    19    12   103               107.62927
  211 Bend                    19    12   104               111.02568
  212 Bend                    19    30   154                85.46690
  213 Bend                    20   139    38               110.19850
  214 Bend                    20   139    84               109.22849
  215 Bend                    20   139    91               112.89701
  216 Bend                    21   143    39               111.17327
  217 Bend                    21   143    85               106.50257
  218 Bend                    21   143    95               113.47624
  219 Bend                    22    17    44               108.12857
  220 Bend                    22    17    52               116.05010
  221 Bend                    22    17    66               108.12790
  222 Bend                    23    13   107               107.51376
  223 Bend                    23    13   115               108.95981
  224 Bend                    23    13   147               110.24625
  225 Bend                    24   140    59               106.62731
  226 Bend                    24   140    88               116.28754
  227 Bend                    24   140   109               112.67667
  228 Bend                    25   144    63               109.47145
  229 Bend                    25   144    89               113.38794
  230 Bend                    25   144   127               106.63780
  231 Bend                    26    18    56               112.74006
  232 Bend                    26    18    68               111.50436
  233 Bend                    26    18   146               109.11780
  234 Bend                    27    14    32               107.38492
  235 Bend                    27    14    54               106.03808
  236 Bend                    27    14   119               111.19786
  237 Bend                    28    36    51               110.29766
  238 Bend                    28    36    92               111.84577
  239 Bend                    28    36    97               111.55927
  240 Bend                    29    37    47               110.50572
  241 Bend                    29    37    79               106.38655
  242 Bend                    29    37    93               109.80868
  243 Bend                    32    14    54               112.46056
  244 Bend                    32    14   119               112.73695
  245 Bend                    33     9    75               108.78231
  246 Bend                    33     9    98               112.41464
  247 Bend                    33     9   108               106.48893
  248 Bend                    34    42    74               112.28760
  249 Bend                    34    42    91               111.23517
  250 Bend                    34    42   136               110.10433
  251 Bend                    35    12   103               111.80276
  252 Bend                    35    12   104               111.95067
  253 Bend                    35   106    43               109.38792
  254 Bend                    35   106    97               107.01286
  255 Bend                    35   106   132               106.10161
  256 Bend                    36    28    87               135.81599
  257 Bend                    36    51   110               170.27360
  258 Bend                    36    92    64               128.98261
  259 Bend                    36    97   106               163.05032
  260 Bend                    37    29    96               119.35969
  261 Bend                    37   110    44               111.08362
  262 Bend                    37   110    51               104.98871
  263 Bend                    37   110   115               111.48900
  264 Bend                    37    79   114               167.36261
  265 Bend                    37    93    67               131.68894
  266 Bend                    38    46    53               111.21800
  267 Bend                    38    46    75               112.48487
  268 Bend                    38    46    95               107.87819
  269 Bend                    38   139    84               109.87106
  270 Bend                    38   139    91               106.62567
  271 Bend                    39    50    57               109.71333
  272 Bend                    39    50    83               109.54056
  273 Bend                    39    50   101               106.71809
  274 Bend                    39   143    85               111.49488
  275 Bend                    39   143    95               108.00833
  276 Bend                    42    34   100               126.11835
  277 Bend                    42    91   139               169.06711
  278 Bend                    43    16    45               107.00476
  279 Bend                    43    16    62               116.00581
  280 Bend                    43    16    80               105.26988
  281 Bend                    43   106    97               110.07771
  282 Bend                    43   106   132               112.09569
  283 Bend                    44    17    52               105.84562
  284 Bend                    44    17    66               110.98819
  285 Bend                    44   110    47               112.18348
  286 Bend                    44   110    51               115.81946
  287 Bend                    44   110   115               102.51887
  288 Bend                    45    16    62               105.04059
  289 Bend                    45    16    80               114.42151
  290 Bend                    46   139    20               112.01031
  291 Bend                    46   139    84               107.48722
  292 Bend                    46   139    91               107.04429
  293 Bend                    46    95   143               168.66902
  294 Bend                    47    37    79               108.38098
  295 Bend                    47    37    93               107.56676
  296 Bend                    47   110    51               106.40309
  297 Bend                    47   110   115               108.67840
  298 Bend                    49    78   114               126.15677
  299 Bend                    50    39   143               173.82869
  300 Bend                    50   101    69               131.41553
  301 Bend                    51    36    92               111.43414
  302 Bend                    51    36    97               105.38645
  303 Bend                    51   110   115               111.12744
  304 Bend                    52    17    66               107.70324
  305 Bend                    53     5    81               114.70182
  306 Bend                    53     5   129               109.07215
  307 Bend                    53     5   134               104.35253
  308 Bend                    53    46    75               101.54612
  309 Bend                    53    46    95               112.90588
  310 Bend                    54    14   119               106.86196
  311 Bend                    54   114    78               107.28748
  312 Bend                    54   114    79               110.63396
  313 Bend                    54   114   146               105.77901
  314 Bend                    55   122    65               108.74789
  315 Bend                    55   122   103               112.91925
  316 Bend                    55   122   109               111.92134
  317 Bend                    56    18    68               110.63919
  318 Bend                    56    18   146               106.75168
  319 Bend                    57     6    86               105.43833
  320 Bend                    57     6   137               113.02571
  321 Bend                    57     6   138               110.33803
  322 Bend                    57    50    83               107.41762
  323 Bend                    57    50   101               111.30593
  324 Bend                    59   126   107               111.49992
  325 Bend                    59   126   108               110.62287
  326 Bend                    59   126   127               109.38704
  327 Bend                    59   140    88               107.19705
  328 Bend                    59   140   109               107.33186
  329 Bend                    62    16    80               109.38557
  330 Bend                    63   130   119               109.80544
  331 Bend                    63   130   135               105.38976
  332 Bend                    63   130   149               110.58097
  333 Bend                    63   144    89               113.16367
  334 Bend                    63   144   127               108.52445
  335 Bend                    65     8    74               113.14477
  336 Bend                    65     8    94               111.20114
  337 Bend                    65     8   133               110.18979
  338 Bend                    65   122   103               105.46670
  339 Bend                    65   122   109               105.69220
  340 Bend                    68    18   146               105.71957
  341 Bend                    70   135   130               130.61060
  342 Bend                    71   132   106               129.06013
  343 Bend                    72    20   139               132.36759
  344 Bend                    73    21   143               132.62639
  345 Bend                    74     8    94               105.30337
  346 Bend                    74     8   133               108.90401
  347 Bend                    74    42    91               109.22566
  348 Bend                    74    42   136               103.89032
  349 Bend                    75     9    98               111.99542
  350 Bend                    75     9   108               107.22886
  351 Bend                    75    46    95               110.81834
  352 Bend                    76    24   140               122.44261
  353 Bend                    77    25   144               119.65933
  354 Bend                    78   114    79               102.37066
  355 Bend                    78   114   146               115.66859
  356 Bend                    79    37    93               114.19241
  357 Bend                    79   114   146               114.94181
  358 Bend                    81     5   129               105.71939
  359 Bend                    81     5   134               108.37759
  360 Bend                    83    10   117               110.15437
  361 Bend                    83    10   149               107.11465
  362 Bend                    83    50   101               112.14042
  363 Bend                    84   139    91               107.95194
  364 Bend                    85   143    95               106.11340
  365 Bend                    86     6   137               108.27750
  366 Bend                    86     6   138               113.33022
  367 Bend                    88   140   109               106.28650
  368 Bend                    89   144   127               105.26100
  369 Bend                    91    42   136               109.84467
  370 Bend                    92    36    97               106.06851
  371 Bend                    94     8   133               107.85897
  372 Bend                    97   106   132               111.93645
  373 Bend                    98     9   108               109.65490
  374 Bend                   103    12   104               107.81346
  375 Bend                   103   122   109               111.58052
  376 Bend                   105    55   122               127.11564
  377 Bend                   107    13   115               106.80740
  378 Bend                   107    13   147               110.72678
  379 Bend                   107   126   108               105.61828
  380 Bend                   107   126   127               110.55577
  381 Bend                   108   126   127               109.08597
  382 Bend                   110    37    29               112.15433
  383 Bend                   110    37    79               109.68440
  384 Bend                   110    37    93               104.74726
  385 Bend                   112    89   144               129.40953
  386 Bend                   113    84   139               124.02398
  387 Bend                   115    13   147               112.40735
  388 Bend                   116     4   125               114.31744
  389 Bend                   116     4   128               109.67979
  390 Bend                   116     4   136               109.78524
  391 Bend                   117    10   149               111.53667
  392 Bend                   119   130   135               113.87658
  393 Bend                   119   130   149               106.28781
  394 Bend                   122   109   140               163.86452
  395 Bend                   125     4   128               104.13184
  396 Bend                   125     4   136               111.34996
  397 Bend                   126    59   140               160.13378
  398 Bend                   126   127   144               162.91168
  399 Bend                   128     4   136               107.20472
  400 Bend                   129     5   134               114.89918
  401 Bend                   130    63   144               160.47544
  402 Bend                   135   130   149               110.95658
  403 Bend                   137     6   138               106.55222
  404 Bend                   139    46    53               113.35177
  405 Bend                   139    46    75               110.39161
  406 Bend                   139    46    95               107.77123
  407 Bend                   140    88   150               120.91065
  408 Bend                   143    85   148               122.20203
  409 Torsion                  1    10    83    50        -133.83902
  410 Torsion                  1    10   117   131        -138.92502
  411 Torsion                  1    10   149   130         -29.10638
  412 Torsion                  2   133     8    65         175.26856
  413 Torsion                  2   133     8    74         -60.07919
  414 Torsion                  2   133     8    94          53.71418
  415 Torsion                  3    56    18    26          53.72917
  416 Torsion                  3    56    18    68         179.36249
  417 Torsion                  3    56    18   146         -66.07325
  418 Torsion                  4   136    42    34        -136.63604
  419 Torsion                  4   136    42    74         -16.20184
  420 Torsion                  4   136    42    91         100.53377
  421 Torsion                  5    53    46    38         -99.74702
  422 Torsion                  5    53    46    75          20.12316
  423 Torsion                  5    53    46    95         138.81641
  424 Torsion                  6    57    50    39         -29.32869
  425 Torsion                  6    57    50    83          89.66944
  426 Torsion                  6    57    50   101        -147.21589
  427 Torsion                  7    52    17    22          41.74457
  428 Torsion                  7    52    17    44         -78.17315
  429 Torsion                  7    52    17    66         163.04791
  430 Torsion                  8    65   122    55         145.63321
  431 Torsion                  8    65   122   103         -92.99281
  432 Torsion                  8    65   122   109          25.31051
  433 Torsion                  8    74    42    34          84.99343
  434 Torsion                  8    74    42    91        -151.12340
  435 Torsion                  8    74    42   136         -33.95584
  436 Torsion                  9    75    46    38         -78.16297
  437 Torsion                  9    75    46    53         162.86775
  438 Torsion                  9    75    46    95          42.69010
  439 Torsion                  9   108   126    59         -36.84826
  440 Torsion                  9   108   126   107          83.93619
  441 Torsion                  9   108   126   127        -157.21412
  442 Torsion                 10    83    50    39         -16.74448
  443 Torsion                 10    83    50    57        -135.85352
  444 Torsion                 10    83    50   101         101.54658
  445 Torsion                 10   149   130    63        -133.36955
  446 Torsion                 10   149   130   119         -14.24065
  447 Torsion                 10   149   130   135         110.05543
  448 Torsion                 11    45    16    43         -35.91096
  449 Torsion                 11    45    16    62        -159.75606
  450 Torsion                 11    45    16    80          80.27807
  451 Torsion                 12    19    30   154        -129.10292
  452 Torsion                 12    35   106    43        -150.90490
  453 Torsion                 12    35   106    97         -31.67827
  454 Torsion                 12    35   106   132          87.98821
  455 Torsion                 12   103   122    55          76.82662
  456 Torsion                 12   103   122    65         -41.79718
  457 Torsion                 12   103   122   109        -156.07938
  458 Torsion                 13   107   126    59         176.41043
  459 Torsion                 13   107   126   108          56.19942
  460 Torsion                 13   107   126   127         -61.66877
  461 Torsion                 13   115   110    44         176.01217
  462 Torsion                 13   115   110    47         -65.08433
  463 Torsion                 13   115   110    51          51.67270
  464 Torsion                 14    54   114    78          88.88495
  465 Torsion                 14    54   114    79        -160.20245
  466 Torsion                 14    54   114   146         -35.12714
  467 Torsion                 14   119   130    63          23.94316
  468 Torsion                 14   119   130   135         141.83983
  469 Torsion                 14   119   130   149         -95.69233
  470 Torsion                 15    81     5    53         104.10830
  471 Torsion                 15    81     5   129         -16.09760
  472 Torsion                 15    81     5   134        -139.76636
  473 Torsion                 16    43   106    35           2.26550
  474 Torsion                 16    43   106    97        -115.04898
  475 Torsion                 16    43   106   132         119.66472
  476 Torsion                 17    44   110    47        -110.06928
  477 Torsion                 17    44   110    51         127.51383
  478 Torsion                 17    44   110   115           6.34241
  479 Torsion                 18   146   114    54         -22.34208
  480 Torsion                 18   146   114    78        -140.92417
  481 Torsion                 18   146   114    79         100.02076
  482 Torsion                 19    12    35   106         127.28800
  483 Torsion                 19    12   103   122         116.85244
  484 Torsion                 19    12   104   120         103.56812
  485 Torsion                 20   139    46    53         -76.44687
  486 Torsion                 20   139    46    75         170.40681
  487 Torsion                 20   139    46    95          49.25479
  488 Torsion                 46    38    20   139        -173.42613
  489 Torsion                 20   139    84   113         -65.03595
  490 Torsion                 20   139    91    42         139.72246
  491 Torsion                 21   143    39    50        -128.62588
  492 Torsion                 21   143    85   148         -63.52793
  493 Torsion                 21   143    95    46        -134.33406
  494 Torsion                 22    17    44   110         -61.54823
  495 Torsion                 22    17    66   152         171.88199
  496 Torsion                 23    13   107   126           9.96652
  497 Torsion                 23    13   115   110         140.91079
  498 Torsion                 23    13   147    61        -114.39169
  499 Torsion                 24   140    59   126         125.97819
  500 Torsion                 24   140    88   150         -65.05385
  501 Torsion                 24   140   109   122         121.18655
  502 Torsion                 25   144    63   130        -129.50816
  503 Torsion                 25   144    89   112        -114.97649
  504 Torsion                 25   144   127   126           8.65873
  505 Torsion                 26    18    68   151          54.35551
  506 Torsion                 26    18   146   114         -47.10097
  507 Torsion                 27    14    32   118        -150.14359
  508 Torsion                 27    14    54   114          16.08395
  509 Torsion                 27    14   119   130        -162.31538
  510 Torsion                 28    36    51   110           4.68956
  511 Torsion                 28    36    92    64         -45.27814
  512 Torsion                 28    36    97   106         107.31018
  513 Torsion                 29    37   110    44         168.45175
  514 Torsion                 29    37   110    51         -65.64279
  515 Torsion                 29    37   110   115          54.78285
  516 Torsion                 37    29    47   110         171.47780
  517 Torsion                 29    37    79   114         -85.83422
  518 Torsion                 29    37    93    67         -59.50758
  519 Torsion                 30    19    12    35        -174.64246
  520 Torsion                 30    19    12   103         -54.56952
  521 Torsion                 30    19    12   104          63.20793
  522 Torsion                 31    80    16    43        -153.77032
  523 Torsion                 31    80    16    45          89.04203
  524 Torsion                 31    80    16    62         -28.46824
  525 Torsion                 32    14    27    40          43.81511
  526 Torsion                 32    14    54   114         133.16491
  527 Torsion                 32    14   119   130          77.02053
  528 Torsion                 33     9    75    46         -83.61772
  529 Torsion                 33     9    98   123        -135.39101
  530 Torsion                 33     9   108   126        -141.25051
  531 Torsion                 34    42    91   139         151.25279
  532 Torsion                 35    12   103   122        -126.44909
  533 Torsion                 35    12   104   120         -15.39195
  534 Torsion                 35   106    97    36         -76.36908
  535 Torsion                 35   106   132    71         177.17400
  536 Torsion                 36    51   110    44         154.86471
  537 Torsion                 36    51   110    47          29.43718
  538 Torsion                 36    51   110   115         -88.70449
  539 Torsion                 36    97   106    43          42.41125
  540 Torsion                 36    97   106   132         167.78839
  541 Torsion                 37    79   114    54          -0.81202
  542 Torsion                 37    79   114    78         113.24665
  543 Torsion                 37    79   114   146        -120.51988
  544 Torsion                 38    46    95   143          56.45652
  545 Torsion                 38   139    20    72          73.42061
  546 Torsion                 38   139    84   113          55.95395
  547 Torsion                 38   139    91    42          18.57285
  548 Torsion                 39    50   101    69         174.30242
  549 Torsion                 39   143    21    73          40.66175
  550 Torsion                 39   143    85   148          57.90740
  551 Torsion                 39   143    95    46         101.93743
  552 Torsion                 40    27    14    54         164.24946
  553 Torsion                 40    27    14   119         -79.95217
  554 Torsion                 41   128     4   116         -62.67988
  555 Torsion                 41   128     4   125         174.56613
  556 Torsion                 41   128     4   136          56.46882
  557 Torsion                 42    74     8    65        -120.65555
  558 Torsion                 42    74     8    94           0.99405
  559 Torsion                 42    74     8   133         116.44782
  560 Torsion                 42    91   139    84         -99.43762
  561 Torsion                 42   136     4   116         134.50270
  562 Torsion                 42   136     4   125         -97.87266
  563 Torsion                 42   136     4   128          15.42192
  564 Torsion                 43    16    62   153        -107.40227
  565 Torsion                 43   106   132    71          57.82728
  566 Torsion                 44    17    22    48          48.74111
  567 Torsion                 44    17    66   152         -69.67646
  568 Torsion                 44   110    37    79          50.47129
  569 Torsion                 44   110    37    93         -72.50079
  570 Torsion                 37    47    44   110         171.19092
  571 Torsion                 45    16    43   106          43.57109
  572 Torsion                 45    16    62   153          10.50437
  573 Torsion                 46    53     5    81          40.54636
  574 Torsion                 46    53     5   129         158.87766
  575 Torsion                 46    53     5   134         -77.87238
  576 Torsion                 46    75     9    98         151.51057
  577 Torsion                 46    75     9   108          31.17517
  578 Torsion                 46    95   143    85         -17.72971
  579 Torsion                 47    37    29    96        -110.45425
  580 Torsion                 47    37    79   114          33.01299
  581 Torsion                 47    37    93    67        -179.81070
  582 Torsion                 48    22    17    52         -69.93355
  583 Torsion                 48    22    17    66         168.98990
  584 Torsion                 49    78   114    54        -102.16567
  585 Torsion                 49    78   114    79         141.34047
  586 Torsion                 49    78   114   146          15.58001
  587 Torsion                 50    39   143    85         112.69334
  588 Torsion                 50    39   143    95          -3.51709
  589 Torsion                 50    57     6    86         -26.68932
  590 Torsion                 50    57     6   137          91.40320
  591 Torsion                 50    57     6   138        -149.40946
  592 Torsion                 50    83    10   117         104.50410
  593 Torsion                 50    83    10   149         -16.97406
  594 Torsion                 51    36    28    87         -11.72792
  595 Torsion                 51    36    92    64          78.70095
  596 Torsion                 51    36    97   106         -12.39836
  597 Torsion                 51   110    37    79         176.37675
  598 Torsion                 51   110    37    93          53.40466
  599 Torsion                 37    47    51   110        -172.32508
  600 Torsion                 52    17    44   110          63.43068
  601 Torsion                 52    17    66   152          45.75567
  602 Torsion                 53     5   129   142          60.76895
  603 Torsion                 53     5   134   121        -178.09946
  604 Torsion                 53    46   139    84         163.56671
  605 Torsion                 53    46   139    91          47.80767
  606 Torsion                 46    53    38   139        -174.73301
  607 Torsion                 53    46    95   143         179.76405
  608 Torsion                 54    14    32   118          93.58021
  609 Torsion                 54    14   119   130         -47.02603
  610 Torsion                 55   122   109   140         159.79901
  611 Torsion                 56    18    26   102         -45.80464
  612 Torsion                 56    18    68   151         -71.96974
  613 Torsion                 56    18   146   114          75.01133
  614 Torsion                 57     6    86   111         130.89041
  615 Torsion                 57     6   137   145          96.04112
  616 Torsion                 57     6   138   124          55.23854
  617 Torsion                 57    50    39   143          35.68024
  618 Torsion                 57    50   101    69         -66.01599
  619 Torsion                 58   116     4   125        -100.14181
  620 Torsion                 58   116     4   128         143.36041
  621 Torsion                 58   116     4   136          25.81172
  622 Torsion                 59   126   127   144         -70.26420
  623 Torsion                 59   140    24    76         -16.17552
  624 Torsion                 59   140    88   150          54.08745
  625 Torsion                 59   140   109   122           4.10462
  626 Torsion                 60     1    10    83         -93.09219
  627 Torsion                 60     1    10   117          29.15079
  628 Torsion                 60     1    10   149         149.89439
  629 Torsion                 61   147    13   107           4.45850
  630 Torsion                 61   147    13   115         123.82784
  631 Torsion                 62    16    43   106         160.38770
  632 Torsion                 63   130   135    70         166.99360
  633 Torsion                 63   144    25    77          18.62895
  634 Torsion                 63   144    89   112          10.47837
  635 Torsion                 63   144   127   126        -109.18374
  636 Torsion                 64    92    36    97        -167.11238
  637 Torsion                 65     8    94    82         -13.01463
  638 Torsion                 65   122    55   105        -170.68087
  639 Torsion                 65   122   109   140         -81.97660
  640 Torsion                 66    17    44   110        -179.98938
  641 Torsion                 67    93    37    79          59.86916
  642 Torsion                 68    18    26   102        -170.96886
  643 Torsion                 68    18   146   114        -167.14097
  644 Torsion                 69   101    50    83          54.35222
  645 Torsion                 70   135   130   119          46.58523
  646 Torsion                 70   135   130   149         -73.28050
  647 Torsion                 71   132   106    97         -66.43092
  648 Torsion                 72    20   139    84        -165.78909
  649 Torsion                 72    20   139    91         -45.67882
  650 Torsion                 73    21   143    85         162.30174
  651 Torsion                 73    21   143    95         -81.32237
  652 Torsion                 74     8    65   122         -50.26113
  653 Torsion                 74     8    94    82        -135.91842
  654 Torsion                 74    42    34   100          73.31280
  655 Torsion                 74    42    91   139          26.75124
  656 Torsion                 75     9    33    90         -36.77772
  657 Torsion                 75     9    98   123         -12.55493
  658 Torsion                 75     9   108   126         102.43174
  659 Torsion                 75    46   139    84          50.42038
  660 Torsion                 75    46   139    91         -65.33866
  661 Torsion                 46    75    38   139        -175.40051
  662 Torsion                 75    46    95   143         -67.08654
  663 Torsion                 76    24   140    88         103.27453
  664 Torsion                 76    24   140   109        -133.67443
  665 Torsion                 77    25   144    89         146.03638
  666 Torsion                 77    25   144   127         -98.58799
  667 Torsion                 79    37    29    96           6.99087
  668 Torsion                 79    37   110   115         -63.19760
  669 Torsion                 37    79    47   110        -170.98060
  670 Torsion                 80    16    43   106         -78.54666
  671 Torsion                 80    16    62   153         133.76124
  672 Torsion                 81     5   129   142        -175.40624
  673 Torsion                 81     5   134   121          59.24769
  674 Torsion                 82    94     8   133         107.90986
  675 Torsion                 83    10   117   131         -15.57586
  676 Torsion                 83    10   149   130        -149.30576
  677 Torsion                 83    50    39   143         -82.00240
  678 Torsion                 84   139    46    95         -70.73164
  679 Torsion                 46    38    84   139        -177.76137
  680 Torsion                 86     6   137   145        -147.53649
  681 Torsion                 86     6   138   124         -62.73378
  682 Torsion                 87    28    36    92         112.88632
  683 Torsion                 87    28    36    97        -128.49160
  684 Torsion                 88   140    59   126           0.79039
  685 Torsion                 88   140   109   122        -110.34214
  686 Torsion                 89   144    63   130         102.95854
  687 Torsion                 89   144   127   126         129.38758
  688 Torsion                 90    33     9    98          87.84730
  689 Torsion                 90    33     9   108        -152.05076
  690 Torsion                 91    42    34   100         -49.44374
  691 Torsion                 91   139    46    95         173.50933
  692 Torsion                 46    38    91   139         171.54235
  693 Torsion                 91   139    84   113         171.86019
  694 Torsion                 92    36    51   110        -120.16025
  695 Torsion                 92    36    97   106        -130.67257
  696 Torsion                 93    37    29    96         131.04226
  697 Torsion                 93    37   110   115         173.83031
  698 Torsion                 37    93    47   110         179.10320
  699 Torsion                 93    37    79   114         152.87730
  700 Torsion                 94     8    65   122        -168.53456
  701 Torsion                 46    95    38   139         171.58351
  702 Torsion                 95   143    85   148         175.26982
  703 Torsion                 97    36    51   110         125.22963
  704 Torsion                 98     9   108   126         -19.38109
  705 Torsion                 99    23    13   107         -62.19647
  706 Torsion                 99    23    13   115        -177.60149
  707 Torsion                 99    23    13   147          58.59726
  708 Torsion                100    34    42   136        -171.45359
  709 Torsion                101    50    39   143         156.38575
  710 Torsion                102    26    18   146          72.62258
  711 Torsion                103    12    35   106           9.94680
  712 Torsion                103    12   104   120        -138.76643
  713 Torsion                103   122    55   105          72.62247
  714 Torsion                103   122   109   140          32.16578
  715 Torsion                104    12    35   106        -111.14841
  716 Torsion                104    12   103   122          -2.98462
  717 Torsion                105    55   122   109         -54.29111
  718 Torsion                107    13   115   110          25.05117
  719 Torsion                107   126    59   140          50.98628
  720 Torsion                107   126   127   144         166.58044
  721 Torsion                108     9    98   123         106.35760
  722 Torsion                108   126    59   140         168.20662
  723 Torsion                108   126   127   144          50.85811
  724 Torsion                109   140    59   126        -113.04522
  725 Torsion                109   140    88   150         168.62617
  726 Torsion                110   115    13   147         -96.57963
  727 Torsion                111    86     6   137           9.65478
  728 Torsion                111    86     6   138        -108.32693
  729 Torsion                112    89   144   127         128.83329
  730 Torsion                114    54    14   119        -102.61881
  731 Torsion                115    13   107   126         126.78851
  732 Torsion                 37    47   115   110        -179.97632
  733 Torsion                116     4   125   141        -108.81168
  734 Torsion                117    10   149   130          90.09067
  735 Torsion                118    32    14   119         -27.32164
  736 Torsion                119   130    63   144         -61.29539
  737 Torsion                121   134     5   129         -58.71831
  738 Torsion                122    65     8   133          71.91999
  739 Torsion                124   138     6   137         178.28695
  740 Torsion                126   107    13   147        -110.52414
  741 Torsion                127   126    59   140         -71.60748
  742 Torsion                127   144    63   130         -13.48399
  743 Torsion                128     4   125   141          10.84856
  744 Torsion                131   117    10   149         103.23076
  745 Torsion                134     5   129   142         -55.95177
  746 Torsion                135   130    63   144         175.65653
  747 Torsion                136     4   125   141         126.05667
  748 Torsion                136    42    91   139         -86.58683
  749 Torsion                138     6   137   145         -25.31024
  750 Torsion                144    63   130   149          55.68239
  751 Torsion                146    18    68   151         172.81815


            XYZ format geometry
            -------------------
   154
 geometry
 O                     4.10397118    -1.54824795    -4.06333586
 H                    -1.93789860     5.21938651    -0.07502083
 H                     4.93564507    -7.36897507     0.25862526
 Si                   -1.74561360     8.15259019     3.07124032
 Si                    0.37182687     7.01590844    -0.59726637
 Si                    2.97906547     4.77765753    -4.48385983
 H                     1.31314619    -6.05109916    -1.11711580
 Si                   -3.38704834     4.40801069     1.59542647
 Si                    0.19999686     2.36187470    -1.07798912
 Si                    3.65079326    -0.39141613    -2.96178744
 H                    -2.40586605    -3.40408786    -2.89672807
 Si                   -4.51984786     0.29124871    -1.11865525
 Si                   -0.65771361    -2.45651177    -1.08998011
 Si                    3.63134479    -4.63583755    -0.34309803
 H                    -1.77132557     7.17363298     0.57036463
 Si                   -4.36183801    -4.75425795    -3.10598789
 Si                   -0.85213033    -7.12374703    -0.86903901
 Si                    3.48889511    -8.20483024     1.92692154
 O                    -2.95691103     0.29587468    -1.75517691
 O                     2.67302779     4.67838584     4.67593444
 O                     6.21039658     4.43221132     0.38540923
 O                    -1.62671479    -6.61031022    -2.23918543
 O                     0.82945360    -2.62036774    -1.88525646
 O                    -1.07650534     1.47305420     4.52162938
 O                     3.42575217     0.86739547     2.84903085
 O                     2.07081846    -8.25017941     1.07797561
 O                     4.56353779    -5.96330532    -0.80301553
 O                    -4.16104776    -2.26041240     2.90086854
 O                     0.31134767    -2.61840990     4.04377950
 H                    -2.37874719     1.11287096    -1.68903526
 H                    -5.18588156    -4.99413086    -5.32071573
 O                     2.26630885    -4.63813667    -1.28600283
 O                     0.95151890     2.13339480    -2.56277514
 O                    -2.28428552     4.74612522     5.61036965
 O                    -5.08544772    -1.23173643    -1.28423158
 Si                   -4.51144434    -3.54526463     1.92631959
 Si                    0.16656947    -4.25716734     3.65539200
 O                     1.72386595     4.35640756     2.15317974
 O                     5.05252301     2.97651258    -1.59616223
 H                     4.72417995    -6.21968754    -1.72615227
 H                    -3.47087545     7.17774081     1.66554058
 Si                   -1.54595529     5.17029275     4.19475919
 O                    -5.12591425    -3.82356081    -1.98217949
 O                    -1.48578711    -6.27861399     0.43757765
 O                    -2.72554420    -4.33887894    -3.06133800
 Si                    1.93599074     4.55755217     0.55325381
 O                    -0.67028937    -4.44325547     2.27455468
 H                    -1.82218316    -5.69148629    -2.59317969
 H                     5.06941394    -4.46239172     4.06254878
 Si                    4.99050387     2.55803284    -3.18275774
 O                    -3.11116138    -4.23579032     1.35704744
 O                     0.81765276    -6.86595999    -0.81948115
 O                     1.55556411     6.10277464     0.08699257
 O                     3.29503734    -4.84776050     1.24430428
 O                    -5.92508470     1.18012078     2.70928517
 O                     4.82804088    -8.07384081     0.93949249
 O                     4.07827332     3.64928633    -4.00919311
 H                    -2.75379453     9.44371908     4.82339572
 O                    -0.72667242     0.42791096     2.09790438
 H                     3.65280534    -1.86367546    -4.85815446
 H                    -2.31588478    -1.10281488    -2.12637770
 O                    -4.39779428    -6.39199517    -2.84056270
 O                     4.24236651    -1.11004380     1.16743839
 H                    -5.38629671    -5.02402691     3.59064187
 O                    -4.25334284     3.04053761     1.71185998
 O                    -1.11480089    -8.74618743    -0.70764602
 H                    -0.47942889    -5.15374207     5.79259134
 O                     3.63340733    -9.50620982     2.93464776
 H                     6.92811377     2.27504034    -4.58156308
 H                     7.27287228    -1.73722812    -0.60939288
 H                    -8.08399127    -3.19589637    -1.06412449
 H                     2.86637273     5.58853811     4.93586812
 H                     6.66083518     5.14904496    -0.07983377
 O                    -2.38465515     4.64444553     2.86665720
 O                     0.87251779     3.67297357    -0.33887706
 H                    -0.12708987     1.77858163     4.46776010
 H                     4.00623940     1.47687617     2.30955744
 O                     4.19891277    -4.22288537     3.70709195
 O                     1.69377001    -4.81312812     3.41457603
 O                    -5.12151549    -4.41066235    -4.55101685
 O                    -1.16217082     6.64612111    -0.09867255
 H                    -5.35891296     5.74987495     1.42345553
 O                     4.26305541     1.09134942    -3.33669437
 O                     1.45239916     2.36424292     3.98377915
 O                     5.00418670     2.12648835     1.02529741
 O                     1.65901474     4.56855446    -3.47119684
 H                    -3.34016622    -1.89462671     3.33590289
 O                    -1.92748496    -1.15900324     3.90167802
 O                     2.96652316    -1.80888036     3.52000083
 H                     1.20927321     2.96064726    -3.07297592
 O                    -0.01277173     4.59308778     4.12845761
 O                    -5.47044869    -4.66346594     2.69760710
 O                    -0.66056720    -5.04499837     4.85004846
 O                    -4.39779908     5.77528940     1.56044765
 O                     3.48042842     4.14544801     0.19498929
 H                     1.20228514    -2.17850605     3.98014966
 O                    -5.34194201    -3.07949617     0.58965331
 O                    -1.45535616     2.50498977    -1.21856127
 H                     1.21492685    -1.83367492    -2.37605338
 H                    -2.31655765     3.85446953     5.99460579
 O                     6.55240785     2.54067525    -3.73219162
 H                     1.65599782    -7.74763404     0.31883574
 O                    -4.41554301     0.73554373     0.46078712
 O                    -5.48403746     1.40034204    -1.89643919
 H                    -6.26223331     0.35319721     3.08740549
 Si                   -5.74599420    -2.70785703    -0.95415286
 O                    -0.47137484    -1.31940837     0.07459660
 O                     0.56272066     1.05619099    -0.16963231
 O                    -3.21314165     0.92715811     2.88738855
 Si                   -1.61197626    -4.73049670     0.96331932
 H                     1.21053790     5.31973060    -2.98334445
 H                     3.54418665    -2.59470276     3.73395000
 H                     2.19847866     1.75207238     3.71517092
 Si                    3.15572978    -5.24331148     2.84249656
 O                    -1.01017054    -3.85898034    -0.32891851
 O                    -2.63934321     9.28403098     3.87709748
 O                     1.97618285    -0.32451185    -2.89237784
 H                     1.70489338    -3.83851155    -1.59708600
 O                     4.48877444    -3.23389957    -0.46707786
 H                    -6.16904674     1.25258733    -2.56317078
 H                    -0.07578346     7.10656431    -2.92747404
 Si                   -4.47428884     1.41237896     1.95439045
 H                    -1.98638917     3.22082544    -0.71894098
 H                     2.28765811     3.83516284    -6.60922462
 O                    -0.30819666     8.70967581     2.49375912
 Si                    0.24168318    -0.12716160     0.92016741
 O                     1.64555003    -0.64737132     1.57271297
 O                    -2.58377232     7.64488764     1.67973821
 O                     0.61063872     8.62842405    -0.17971147
 Si                    4.90099728    -1.65728141    -0.23518933
 H                     1.49145290     0.55974653    -2.83414357
 O                    -7.38645203    -2.53037281    -1.14046463
 O                    -2.47797388     4.40128963     0.17756549
 O                     0.49000828     6.68224092    -2.25894613
 O                     6.53303038    -1.40562726    -0.08265333
 O                    -1.53388542     6.81734190     4.03061083
 O                     3.52859211     6.33320548    -4.30791952
 O                     2.61133354     4.58466357    -6.09263605
 Si                    1.47174498     4.01403459     3.75384135
 Si                   -1.74221723     0.43393583     3.41078225
 H                     0.02332776     8.90388333     1.59126588
 H                     1.38247128     9.18112244    -0.38331403
 Si                    4.94753603     3.45024994    -0.02719156
 Si                    3.11428757    -0.69118002     2.29621069
 H                     3.94020333     6.90944271    -4.96673311
 O                     3.48948078    -6.83970951     2.93573423
 O                    -1.83983798    -2.00622477    -2.16795031
 H                     5.75408244     1.50265019     1.03610214
 O                     4.29637491    -0.82950140    -1.51854465
 H                    -1.12751588    -1.73318493     4.10505919
[...]
  550 Torsion                 39   143    85   148          56.74723   -1.16017
  551 Torsion                 39   143    95    46         103.89915    1.96171
  552 Torsion                 40    27    14    54         164.52606    0.27659
  553 Torsion                 40    27    14   119         -79.68293    0.26923
  554 Torsion                 41   128     4   116         -63.01034   -0.33046
  555 Torsion                 41   128     4   125         174.19975   -0.36638
  556 Torsion                 41   128     4   136          56.17152   -0.29730
  557 Torsion                 42    74     8    65        -118.32284    2.33270
  558 Torsion                 42    74     8    94           3.25204    2.25798
  559 Torsion                 42    74     8   133         118.73268    2.28486
  560 Torsion                 42    91   139    84         -95.85024    3.58738
  561 Torsion                 42   136     4   116         136.61469    2.11199
  562 Torsion                 42   136     4   125         -95.75055    2.12210
  563 Torsion                 42   136     4   128          17.46867    2.04675
  564 Torsion                 43    16    62   153        -107.28798    0.11429
  565 Torsion                 43   106   132    71          59.01356    1.18628
  566 Torsion                 44    17    22    48          49.14767    0.40656
  567 Torsion                 44    17    66   152         -69.71799   -0.04153
  568 Torsion                 44   110    37    79          50.44388   -0.02741
  569 Torsion                 44   110    37    93         -72.46622    0.03457
  570 Torsion                 37    47    44   110         171.86508    0.67416
  571 Torsion                 45    16    43   106          43.48414   -0.08696
  572 Torsion                 45    16    62   153          10.61876    0.11439
  573 Torsion                 46    53     5    81          40.62038    0.07402
  574 Torsion                 46    53     5   129         158.94332    0.06566
  575 Torsion                 46    53     5   134         -77.77021    0.10218
  576 Torsion                 46    75     9    98         153.04876    1.53819
  577 Torsion                 46    75     9   108          32.71424    1.53907
  578 Torsion                 46    95   143    85         -15.74172    1.98799
  579 Torsion                 47    37    29    96        -110.67790   -0.22365
  580 Torsion                 47    37    79   114          32.72263   -0.29036
  581 Torsion                 47    37    93    67        -179.48558    0.32513
  582 Torsion                 48    22    17    52         -69.53483    0.39871
  583 Torsion                 48    22    17    66         169.39061    0.40071
  584 Torsion                 49    78   114    54        -101.89375    0.27192
  585 Torsion                 49    78   114    79         141.62034    0.27987
  586 Torsion                 49    78   114   146          15.90621    0.32620
  587 Torsion                 50    39   143    85         112.14681   -0.54654
  588 Torsion                 50    39   143    95          -4.03400   -0.51692
  589 Torsion                 50    57     6    86         -25.91588    0.77344
  590 Torsion                 50    57     6   137          92.06320    0.66001
  591 Torsion                 50    57     6   138        -148.59337    0.81609
  592 Torsion                 50    83    10   117         103.19564   -1.30845
  593 Torsion                 50    83    10   149         -18.22743   -1.25337
  594 Torsion                 51    36    28    87         -11.92899   -0.20107
  595 Torsion                 51    36    92    64          78.45142   -0.24953
  596 Torsion                 51    36    97   106         -12.25445    0.14391
  597 Torsion                 51   110    37    79         176.40722    0.03048
  598 Torsion                 51   110    37    93          53.49712    0.09245
  599 Torsion                 37    47    51   110        -172.03866    0.28642
  600 Torsion                 52    17    44   110          63.99429    0.56361
  601 Torsion                 52    17    66   152          45.70199   -0.05368
  602 Torsion                 53     5   129   142          60.50571   -0.26324
  603 Torsion                 53     5   134   121        -177.86803    0.23142
  604 Torsion                 53    46   139    84         163.38981   -0.17689
  605 Torsion                 53    46   139    91          47.92667    0.11900
  606 Torsion                 46    53    38   139        -172.94953    1.78347
  607 Torsion                 53    46    95   143         177.95075   -1.81331
  608 Torsion                 54    14    32   118          93.51006   -0.07015
  609 Torsion                 54    14   119   130         -47.15218   -0.12615
  610 Torsion                 55   122   109   140         159.31092   -0.48810
  611 Torsion                 56    18    26   102         -45.99338   -0.18874
  612 Torsion                 56    18    68   151         -72.11644   -0.14670
  613 Torsion                 56    18   146   114          74.53399   -0.47734
  614 Torsion                 57     6    86   111         129.93023   -0.96018
  615 Torsion                 57     6   137   145          96.65443    0.61332
  616 Torsion                 57     6   138   124          63.31864    8.08010
  617 Torsion                 57    50    39   143          35.62124   -0.05900
  618 Torsion                 57    50   101    69         -65.17585    0.84014
  619 Torsion                 58   116     4   125        -100.02548    0.11632
  620 Torsion                 58   116     4   128         143.54077    0.18036
  621 Torsion                 58   116     4   136          25.85674    0.04502
  622 Torsion                 59   126   127   144         -69.97321    0.29099
  623 Torsion                 59   140    24    76         -17.11709   -0.94157
  624 Torsion                 59   140    88   150          53.78322   -0.30423
  625 Torsion                 59   140   109   122           4.31852    0.21391
  626 Torsion                 60     1    10    83         -91.35787    1.73432
  627 Torsion                 60     1    10   117          30.96452    1.81372
  628 Torsion                 60     1    10   149         151.53642    1.64203
  629 Torsion                 61   147    13   107           4.84674    0.38824
  630 Torsion                 61   147    13   115         124.12215    0.29431
  631 Torsion                 62    16    43   106         160.30509   -0.08261
  632 Torsion                 63   130   135    70         167.05939    0.06579
  633 Torsion                 63   144    25    77          18.80904    0.18009
  634 Torsion                 63   144    89   112          10.67905    0.20068
  635 Torsion                 63   144   127   126        -109.32183   -0.13809
  636 Torsion                 64    92    36    97        -167.33965   -0.22727
  637 Torsion                 65     8    94    82         -13.24262   -0.22799
  638 Torsion                 65   122    55   105        -169.85134    0.82953
  639 Torsion                 65   122   109   140         -82.44690   -0.47030
  640 Torsion                 66    17    44   110        -179.43052    0.55886
  641 Torsion                 67    93    37    79          60.13208    0.26292
  642 Torsion                 68    18    26   102        -171.17715   -0.20829
  643 Torsion                 68    18   146   114        -167.59147   -0.45049
  644 Torsion                 69   101    50    83          55.35768    1.00545
  645 Torsion                 70   135   130   119          46.68725    0.10202
  646 Torsion                 70   135   130   149         -73.23219    0.04831
  647 Torsion                 71   132   106    97         -65.22349    1.20743
  648 Torsion                 72    20   139    84        -166.65663   -0.86754
  649 Torsion                 72    20   139    91         -46.66287   -0.98405
  650 Torsion                 73    21   143    85         161.85340   -0.44835
  651 Torsion                 73    21   143    95         -81.79992   -0.47755
  652 Torsion                 74     8    65   122         -50.40446   -0.14333
  653 Torsion                 74     8    94    82        -136.07550   -0.15708
  654 Torsion                 74    42    34   100          72.85075   -0.46205
  655 Torsion                 74    42    91   139          22.42818   -4.32306
  656 Torsion                 75     9    33    90         -37.31023   -0.53251
  657 Torsion                 75     9    98   123         -12.48089    0.07405
  658 Torsion                 75     9   108   126         101.37616   -1.05558
  659 Torsion                 75    46   139    84          50.60720    0.18682
  660 Torsion                 75    46   139    91         -64.85594    0.48272
  661 Torsion                 46    75    38   139        -177.06264   -1.66213
  662 Torsion                 75    46    95   143         -68.86085   -1.77431
  663 Torsion                 76    24   140    88         102.35229   -0.92224
  664 Torsion                 76    24   140   109        -134.60828   -0.93384
  665 Torsion                 77    25   144    89         146.24449    0.20811
  666 Torsion                 77    25   144   127         -98.39048    0.19751
  667 Torsion                 79    37    29    96           6.78406   -0.20681
  668 Torsion                 79    37   110   115         -63.05347    0.14413
  669 Torsion                 37    79    47   110        -170.91083    0.06978
  670 Torsion                 80    16    43   106         -78.61208   -0.06542
  671 Torsion                 80    16    62   153         133.83350    0.07225
  672 Torsion                 81     5   129   142        -175.61122   -0.20498
  673 Torsion                 81     5   134   121          59.42254    0.17484
  674 Torsion                 82    94     8   133         107.83550   -0.07435
  675 Torsion                 83    10   117   131         -15.58111   -0.00525
  676 Torsion                 83    10   149   130        -150.08483   -0.77907
  677 Torsion                 83    50    39   143         -82.13982   -0.13742
  678 Torsion                 84   139    46    95         -70.71520    0.01644
  679 Torsion                 46    38    84   139        -175.95769    1.80368
  680 Torsion                 86     6   137   145        -147.19422    0.34227
  681 Torsion                 86     6   138   124         -54.61133    8.12245
  682 Torsion                 87    28    36    92         112.69133   -0.19499
  683 Torsion                 87    28    36    97        -128.74383   -0.25224
  684 Torsion                 88   140    59   126           1.32900    0.53861
  685 Torsion                 88   140   109   122        -110.12930    0.21284
  686 Torsion                 89   144    63   130         103.11358    0.15504
  687 Torsion                 89   144   127   126         129.20978   -0.17780
  688 Torsion                 90    33     9    98          87.34787   -0.49942
  689 Torsion                 90    33     9   108        -152.59627   -0.54552
  690 Torsion                 91    42    34   100         -49.87438   -0.43063
  691 Torsion                 91   139    46    95         173.82166    0.31233
  692 Torsion                 46    38    91   139         171.49781   -0.04454
  693 Torsion                 91   139    84   113         171.22706   -0.63313
  694 Torsion                 92    36    51   110        -121.26060   -1.10034
  695 Torsion                 92    36    97   106        -130.51926    0.15332
  696 Torsion                 93    37    29    96         130.84215   -0.20012
  697 Torsion                 93    37   110   115         174.03642    0.20611
  698 Torsion                 37    93    47   110         178.33179   -0.77141
  699 Torsion                 93    37    79   114         152.61741   -0.25989
  700 Torsion                 94     8    65   122        -168.68637   -0.15180
  701 Torsion                 46    95    38   139         171.35323   -0.23027
  702 Torsion                 95   143    85   148         174.11156   -1.15827
  703 Torsion                 97    36    51   110         124.14704   -1.08259
  704 Torsion                 98     9   108   126         -20.42886   -1.04777
  705 Torsion                 99    23    13   107         -62.34094   -0.14447
  706 Torsion                 99    23    13   115        -177.72480   -0.12331
  707 Torsion                 99    23    13   147          58.49832   -0.09894
  708 Torsion                100    34    42   136        -171.87515   -0.42156
  709 Torsion                101    50    39   143         156.41235    0.02660
  710 Torsion                102    26    18   146          72.42830   -0.19428
  711 Torsion                103    12    35   106           8.95416   -0.99263
  712 Torsion                103    12   104   120        -136.44476    2.32166
  713 Torsion                103   122    55   105          73.43308    0.81061
  714 Torsion                103   122   109   140          31.68580   -0.47998
  715 Torsion                104    12    35   106        -112.25516   -1.10675
  716 Torsion                104    12   103   122          -2.14067    0.84395
  717 Torsion                105    55   122   109         -53.52046    0.77065
  718 Torsion                107    13   115   110          24.80179   -0.24937
  719 Torsion                107   126    59   140          50.49583   -0.49045
  720 Torsion                107   126   127   144         166.83074    0.25029
  721 Torsion                108     9    98   123         106.41480    0.05720
  722 Torsion                108   126    59   140         167.64947   -0.55715
  723 Torsion                108   126   127   144          51.15155    0.29344
  724 Torsion                109   140    59   126        -112.52826    0.51696
  725 Torsion                109   140    88   150         168.39250   -0.23368
  726 Torsion                110   115    13   147         -96.77487   -0.19524
  727 Torsion                111    86     6   137           9.10374   -0.55104
  728 Torsion                111    86     6   138        -109.11557   -0.78863
  729 Torsion                112    89   144   127         129.03808    0.20478
  730 Torsion                114    54    14   119        -103.91161   -1.29280
  731 Torsion                115    13   107   126         127.37512    0.58662
  732 Torsion                 37    47   115   110         178.96697   -1.05671
  733 Torsion                116     4   125   141        -107.41632    1.39535
  734 Torsion                117    10   149   130          89.29598   -0.79469
  735 Torsion                118    32    14   119         -27.36990   -0.04826
  736 Torsion                119   130    63   144         -61.55106   -0.25567
  737 Torsion                121   134     5   129         -58.49124    0.22707
  738 Torsion                122    65     8   133          71.67671   -0.24329
  739 Torsion                124   138     6   137        -173.80026    7.91278
  740 Torsion                126   107    13   147        -110.01857    0.50558
  741 Torsion                127   126    59   140         -72.14933   -0.54185
  742 Torsion                127   144    63   130         -13.34736    0.13663
  743 Torsion                128     4   125   141          12.23566    1.38711
  744 Torsion                131   117    10   149         103.27942    0.04866
  745 Torsion                134     5   129   142         -56.21993   -0.26816
  746 Torsion                135   130    63   144         175.33720   -0.31933
  747 Torsion                136     4   125   141         127.50587    1.44920
  748 Torsion                136    42    91   139         -90.74050   -4.15367
  749 Torsion                138     6   137   145         -24.90739    0.40285
  750 Torsion                144    63   130   149          55.46793   -0.21446
  751 Torsion                146    18    68   151         172.66827   -0.14989



                                NWChem Input Module
                                -------------------




                                     CITATION
                                     --------
                Please cite the following reference when publishing
                           results obtained with NWChem:

          E. Apra, E. J. Bylaska, W. A. de Jong, N. Govind, K. Kowalski,
       T. P. Straatsma, M. Valiev, H. J. J. van Dam, Y. Alexeev, J. Anchell,
       V. Anisimov, F. W. Aquino, R. Atta-Fynn, J. Autschbach, N. P. Bauman,
     J. C. Becca, D. E. Bernholdt, K. Bhaskaran-Nair, S. Bogatko, P. Borowski,
         J. Boschen, J. Brabec, A. Bruner, E. Cauet, Y. Chen, G. N. Chuev,
      C. J. Cramer, J. Daily, M. J. O. Deegan, T. H. Dunning Jr., M. Dupuis,
   K. G. Dyall, G. I. Fann, S. A. Fischer, A. Fonari, H. Fruchtl, L. Gagliardi,
      J. Garza, N. Gawande, S. Ghosh, K. Glaesemann, A. W. Gotz, J. Hammond,
       V. Helms, E. D. Hermes, K. Hirao, S. Hirata, M. Jacquelin, L. Jensen,
   B. G. Johnson, H. Jonsson, R. A. Kendall, M. Klemm, R. Kobayashi, V. Konkov,
      S. Krishnamoorthy, M. Krishnan, Z. Lin, R. D. Lins, R. J. Littlefield,
      A. J. Logsdail, K. Lopata, W. Ma, A. V. Marenich, J. Martin del Campo,
   D. Mejia-Rodriguez, J. E. Moore, J. M. Mullin, T. Nakajima, D. R. Nascimento,
    J. A. Nichols, P. J. Nichols, J. Nieplocha, A. Otero-de-la-Roza, B. Palmer,
    A. Panyala, T. Pirojsirikul, B. Peng, R. Peverati, J. Pittner, L. Pollack,
   R. M. Richard, P. Sadayappan, G. C. Schatz, W. A. Shelton, D. W. Silverstein,
   D. M. A. Smith, T. A. Soares, D. Song, M. Swart, H. L. Taylor, G. S. Thomas,
            V. Tipparaju, D. G. Truhlar, K. Tsemekhman, T. Van Voorhis,
      A. Vazquez-Mayagoitia, P. Verma, O. Villa, A. Vishnu, K. D. Vogiatzis,
        D. Wang, J. H. Weare, M. J. Williamson, T. L. Windus, K. Wolinski,
        A. T. Wong, Q. Wu, C. Yang, Q. Yu, M. Zacharias, Z. Zhang, Y. Zhao,
                                and R. J. Harrison
                        "NWChem: Past, present, and future
                         J. Chem. Phys. 152, 184102 (2020)
                               doi:10.1063/5.0004997

                                      AUTHORS
                                      -------
  E. Apra, E. J. Bylaska, N. Govind, K. Kowalski, M. Valiev, D. Mejia-Rodriguez,
       A. Kunitsa, N. P. Bauman, A. Panyala, W. A. de Jong, T. P. Straatsma,
   H. J. J. van Dam, D. Wang, T. L. Windus, J. Hammond, J. Autschbach, A. Woods,
    K. Bhaskaran-Nair, J. Brabec, K. Lopata, S. A. Fischer, S. Krishnamoorthy,
     M. Jacquelin, W. Ma, M. Klemm, O. Villa, Y. Chen, V. Anisimov, F. Aquino,
     S. Hirata, M. T. Hackler, E. Hermes, L. Jensen, J. E. Moore, J. C. Becca,
      V. Konjkov, T. Risthaus, M. Malagoli, A. Marenich, A. Otero-de-la-Roza,
        J. Mullin, P. Nichols, R. Peverati, J. Pittner, Y. Zhao, P.-D. Fan,
        A. Fonari, M. J. Williamson, R. J. Harrison, J. R. Rehr, M. Dupuis,
     D. Silverstein, D. M. A. Smith, J. Nieplocha, V. Tipparaju, M. Krishnan,
     B. E. Van Kuiken, A. Vazquez-Mayagoitia, M. Swart, Q. Wu, T. Van Voorhis,
     A. A. Auer, M. Nooijen, L. D. Crosby, E. Brown, G. Cisneros, G. I. Fann,
   H. Fruchtl, J. Garza, K. Hirao, R. A. Kendall, J. A. Nichols, K. Tsemekhman,
    K. Wolinski, J. Anchell, D. E. Bernholdt, P. Borowski, T. Clark, D. Clerc,
   H. Dachsel, M. J. O. Deegan, K. Dyall, D. Elwood, E. Glendening, M. Gutowski,
   A. C. Hess, J. Jaffe, B. G. Johnson, J. Ju, R. Kobayashi, R. Kutteh, Z. Lin,
   R. Littlefield, X. Long, B. Meng, T. Nakajima, S. Niu, L. Pollack, M. Rosing,
   K. Glaesemann, G. Sandrone, M. Stave, H. Taylor, G. Thomas, J. H. van Lenthe,
                               A. T. Wong, Z. Zhang.

 Total times  cpu:    10963.9s     wall:    11868.1s
