 *******************************************************************************
 **                                                                           **
 **                              MOPAC v23.0.3                                **
 **                                                                           **
 *******************************************************************************
 **          Digital Object Identifier (DOI): 10.5281/zenodo.6511958          **
 **    Visit the DOI location for information on how to cite this program.    **
 *******************************************************************************

                              PM7 CALCULATION RESULTS

 *******************************************************************************
 *  CALCULATION DONE:                                Fri Jan 31 19:28:00 2025  *
 *  PM7        - The PM7 Hamiltonian to be used
 *  SINGLET    - SPIN STATE DEFINED AS A SINGLET
 *
 *
 *
 *                 CHARGE ON SYSTEM = 0
 *
 *
 *
 *  PRECISE    - TIGHTER CRITERIA TO BE USED
 *  T=         - A TIME OF 172800.0 SECONDS REQUESTED
 *  DUMP=N     - RESTART FILE WRITTEN EVERY 7200.0 SECONDS REQUESTED
 *  LARGE      - EXPANDED OUTPUT TO BE PRINTED
 *******************************************************************************
 LARGE CHARGE=0 SINGLET PM7 PRECISE
 W(CO)6

   ATOM   CHEMICAL          X               Y               Z
  NUMBER   SYMBOL      (ANGSTROMS)     (ANGSTROMS)     (ANGSTROMS)
 
     1       C         -1.16788000  *  -1.69882000  *   0.00000000  *
     2       W          0.00000000  *   0.00000000  *   0.00000000  *
     3       C          1.16788000  *   1.69882000  *   0.00000000  *
     4       C          0.00000000  *   0.00000000  *   2.06153000  *
     5       C          0.00000000  *   0.00000000  *  -2.06153000  *
     6       C         -1.69882000  *   1.16788000  *   0.00000000  *
     7       C          1.69882000  *  -1.16788000  *   0.00000000  *
     8       O         -1.82168000  *  -2.64985000  *   0.00000000  *
     9       O          1.82168000  *   2.64985000  *   0.00000000  *
    10       O          0.00000000  *   0.00000000  *   3.21562000  *
    11       O          0.00000000  *   0.00000000  *  -3.21562000  *
    12       O         -2.64985000  *   1.82168000  *   0.00000000  *
    13       O          2.64985000  *  -1.82168000  *   0.00000000  *
 


          CARTESIAN COORDINATES 

    NO.       ATOM           X           Y           Z

     1         C         -1.1679     -1.6988      0.0000
     2         W          0.0000      0.0000      0.0000
     3         C          1.1679      1.6988      0.0000
     4         C          0.0000      0.0000      2.0615
     5         C          0.0000      0.0000     -2.0615
     6         C         -1.6988      1.1679      0.0000
     7         C          1.6988     -1.1679      0.0000
     8         O         -1.8217     -2.6499      0.0000
     9         O          1.8217      2.6499      0.0000
    10         O          0.0000      0.0000      3.2156
    11         O          0.0000      0.0000     -3.2156
    12         O         -2.6499      1.8217      0.0000
    13         O          2.6499     -1.8217      0.0000

 General Reference for PM7:
 "Optimization of Parameters for Semiempirical Methods VI: More Modifications to the 
 NDDO Approximations and Re-optimization of Parameters", J. J. P. Stewart, J. Mol. Mod., 1:32, 19 (2013)
 https://link.springer.com/article/10.1007/s00894-012-1667-x

           Empirical Formula: C6 O6 W  =    13 atoms



      MOLECULAR POINT GROUP   :   Oh  


 SINGLET STATE CALCULATION


      RHF CALCULATION, NO. OF DOUBLY OCCUPIED LEVELS = 33


          Geometry optimization using EF

          DIAGONAL MATRIX USED AS START HESSIAN

 CYCLE:     1 TIME:   0.055 TIME LEFT:  2.00D  GRAD.:    54.487 HEAT: -206.7018
 CYCLE:     2 TIME:   0.031 TIME LEFT:  2.00D  GRAD.:    57.180 HEAT: -207.0203
 CYCLE:     3 TIME:   0.008 TIME LEFT:  2.00D  GRAD.:    28.176 HEAT: -207.6390
 CYCLE:     4 TIME:   0.016 TIME LEFT:  2.00D  GRAD.:    35.523 HEAT: -207.7576
 CYCLE:     5 TIME:   0.008 TIME LEFT:  2.00D  GRAD.:    11.395 HEAT: -208.0310
 CYCLE:     6 TIME:   0.016 TIME LEFT:  2.00D  GRAD.:    22.943 HEAT: -208.0811
 CYCLE:     7 TIME:   0.008 TIME LEFT:  2.00D  GRAD.:     9.279 HEAT: -208.1542
 CYCLE:     8 TIME:   0.008 TIME LEFT:  2.00D  GRAD.:     0.675 HEAT: -208.1638
 CYCLE:     9 TIME:   0.016 TIME LEFT:  2.00D  GRAD.:     0.209 HEAT: -208.1640
 CYCLE:    10 TIME:   0.008 TIME LEFT:  2.00D  GRAD.:     0.377 HEAT: -208.1641
 CYCLE:    11 TIME:   0.008 TIME LEFT:  2.00D  GRAD.:     4.837 HEAT: -208.1600
 CYCLE:    12 TIME:   0.008 TIME LEFT:  2.00D  GRAD.:     0.112 HEAT: -208.1641
 CYCLE:    13 TIME:   0.008 TIME LEFT:  2.00D  GRAD.:     0.073 HEAT: -208.1641
 CYCLE:    14 TIME:   0.008 TIME LEFT:  2.00D  GRAD.:     0.467 HEAT: -208.1641
 CYCLE:    15 TIME:   0.008 TIME LEFT:  2.00D  GRAD.:     0.712 HEAT: -208.1641
 CYCLE:    16 TIME:   0.008 TIME LEFT:  2.00D  GRAD.:     0.345 HEAT: -208.1642
 CYCLE:    17 TIME:   0.008 TIME LEFT:  2.00D  GRAD.:     0.513 HEAT: -208.1641
 CYCLE:    18 TIME:   0.008 TIME LEFT:  2.00D  GRAD.:     0.282 HEAT: -208.1642
 CYCLE:    19 TIME:   0.008 TIME LEFT:  2.00D  GRAD.:     1.055 HEAT: -208.1641
 CYCLE:    20 TIME:   0.008 TIME LEFT:  2.00D  GRAD.:     0.117 HEAT: -208.1642
 CYCLE:    21 TIME:   0.008 TIME LEFT:  2.00D  GRAD.:     0.085 HEAT: -208.1643
 CYCLE:    22 TIME:   0.016 TIME LEFT:  2.00D  GRAD.:     0.065 HEAT: -208.1643
 CYCLE:    23 TIME:   0.000 TIME LEFT:  2.00D  GRAD.:     0.037 HEAT: -208.1643

     GRADIENT =  0.03732 IS LESS THAN CUTOFF =  0.05000



 -------------------------------------------------------------------------------
 LARGE CHARGE=0 SINGLET PM7 PRECISE
 W(CO)6



     GEOMETRY OPTIMISED USING EIGENVECTOR FOLLOWING (EF).     
     SCF FIELD WAS ACHIEVED                                   


                              PM7 CALCULATION
                                                       MOPAC v23.0.3 Linux
                                                       Fri Jan 31 19:28:00 2025




          FINAL HEAT OF FORMATION =       -208.16428 KCAL/MOL =    -870.95936 KJ/MOL


          COSMO AREA              =        210.94 SQUARE ANGSTROMS
          COSMO VOLUME            =        215.93 CUBIC ANGSTROMS

          GRADIENT NORM           =          0.03732          =       0.01035 PER ATOM
          IONIZATION POTENTIAL    =          7.195055 EV
          HOMO LUMO ENERGIES (EV) =         -7.195 -0.364
          NO. OF FILLED LEVELS    =         33
          MOLECULAR WEIGHT        =        351.9124         POINT GROUP:  Oh  

          MOLECULAR DIMENSIONS (Angstroms)

            Atom       Atom       Distance
            O     9    O     8     6.47733
            O    11    O    10     6.47726
            O    13    O    12     6.47724


          SCF CALCULATIONS        =         29
 
          WALL-CLOCK TIME         =      0.391 SECONDS
          COMPUTATION TIME        =      0.245 SECONDS




   ATOM   CHEMICAL          X               Y               Z
  NUMBER   SYMBOL      (ANGSTROMS)     (ANGSTROMS)     (ANGSTROMS)
 
     1       C         -1.18202166  *  -1.71928493  *   0.00000179  *
     2       W          0.00000027  *   0.00000615  *  -0.00001754  *
     3       C          1.18202178  *   1.71928092  *   0.00000178  *
     4       C          0.00000037  *  -0.00000021  *   2.08635907  *
     5       C          0.00000037  *  -0.00000021  *  -2.08640682  *
     6       C         -1.71928520  *   1.18193735  *   0.00000118  *
     7       C          1.71928380  *  -1.18194220  *   0.00000118  *
     8       O         -1.83470098  *  -2.66886316  *   0.00003637  *
     9       O          1.83469823  *   2.66885630  *   0.00003636  *
    10       O         -0.00000028  *   0.00000002  *   3.23860685  *
    11       O         -0.00000027  *   0.00000002  *  -3.23865434  *
    12       O         -2.66879335  *   1.83471595  *   0.00003523  *
    13       O          2.66879620  *  -1.83472194  *   0.00003523  *

                             CARTESIAN COORDINATES

   1    C       -1.182021662    -1.719284933     0.000001788
   2    W        0.000000269     0.000006149    -0.000017542
   3    C        1.182021780     1.719280919     0.000001782
   4    C        0.000000370    -0.000000209     2.086359070
   5    C        0.000000374    -0.000000206    -2.086406821
   6    C       -1.719285202     1.181937353     0.000001182
   7    C        1.719283796    -1.181942196     0.000001182
   8    O       -1.834700976    -2.668863163     0.000036369
   9    O        1.834698229     2.668856302     0.000036361
  10    O       -0.000000278     0.000000016     3.238606848
  11    O       -0.000000271     0.000000023    -3.238654342
  12    O       -2.668793345     1.834715952     0.000035232
  13    O        2.668796200    -1.834721943     0.000035228


           Empirical Formula: C6 O6 W  =    13 atoms



      MOLECULAR POINT GROUP   :   Oh  


                  EIGENVALUES  
 -33.31032 -33.20976 -33.20969 -33.20952 -33.20105 -33.20091 -27.30040 -21.58115
 -21.58109 -21.58097 -20.88184 -20.88180 -17.86387 -15.96176 -15.96172 -15.96170
 -15.86174 -15.86170 -15.86169 -15.47897 -15.47890 -15.47889 -15.37916 -15.37909
 -15.37909 -14.24682 -14.24670 -14.24659 -14.00377 -14.00374  -7.19510  -7.19508
  -7.19505  -0.36429  -0.36422  -0.36414   0.13672   0.13674   0.13677   0.59599
   0.59600   0.59603   1.67917   1.67920   1.67925   2.53701   3.60369   3.60380
   4.54134   4.54143   4.54148   4.97740   4.97745   5.81969   5.81973   5.81977
  17.83222


              NET ATOMIC CHARGES AND DIPOLE CONTRIBUTIONS

  ATOM NO.   TYPE          CHARGE      No. of ELECS.   s-Pop       p-Pop       d-Pop       
    1          C           0.447273        3.5527     1.39218     2.16054
    2          W          -0.444922        6.4449     0.62328     1.18850     4.63315
    3          C           0.447275        3.5527     1.39217     2.16055
    4          C           0.447266        3.5527     1.39216     2.16058
    5          C           0.447273        3.5527     1.39217     2.16056
    6          C           0.447266        3.5527     1.39215     2.16058
    7          C           0.447265        3.5527     1.39216     2.16058
    8          O          -0.373114        6.3731     1.85523     4.51788
    9          O          -0.373115        6.3731     1.85523     4.51788
   10          O          -0.373115        6.3731     1.85523     4.51788
   11          O          -0.373114        6.3731     1.85523     4.51788
   12          O          -0.373120        6.3731     1.85523     4.51789
   13          O          -0.373120        6.3731     1.85524     4.51788
 DIPOLE           X         Y         Z       TOTAL
 POINT-CHG.    -0.000    -0.000    -0.000     0.000
 HYBRID        -0.000    -0.000     0.000     0.000
 SUM           -0.000    -0.000    -0.000     0.000


          ATOMIC ORBITAL ELECTRON POPULATIONS

     Atom    s        px        py        pz      x^2-y^2     xz        z^2       yz        xy
    1  C   1.39218   0.71595   0.83781   0.60679
    2  W   0.62328   0.39617   0.39616   0.39617   1.16989   1.28467   0.38956   1.28468   0.50434
    3  C   1.39217   0.71595   0.83781   0.60679
    4  C   1.39216   0.60680   0.60680   0.94697
    5  C   1.39217   0.60679   0.60680   0.94697
    6  C   1.39215   0.83780   0.71598   0.60680
    7  C   1.39216   0.83780   0.71598   0.60680
    8  O   1.85523   1.50863   1.43211   1.57714
    9  O   1.85523   1.50864   1.43211   1.57714
   10  O   1.85523   1.57714   1.57714   1.36361
   11  O   1.85523   1.57713   1.57714   1.36361
   12  O   1.85523   1.43214   1.50861   1.57714
   13  O   1.85524   1.43214   1.50861   1.57714
 *******************************************************************************
 **                                                                           **
 **                              MOPAC v23.0.3                                **
 **                                                                           **
 *******************************************************************************
 **          Digital Object Identifier (DOI): 10.5281/zenodo.6511958          **
 **    Visit the DOI location for information on how to cite this program.    **
 *******************************************************************************

                              PM7 CALCULATION RESULTS

 *******************************************************************************
 *  CALCULATION DONE:                                Fri Jan 31 19:28:00 2025  *
 *  PM7        - The PM7 Hamiltonian to be used
 *  OLDGEO     - PREVIOUS GEOMETRY TO BE USED
 *  PRECISE    - TIGHTER CRITERIA TO BE USED
 *  T=         - A TIME OF 172800.0 SECONDS REQUESTED
 *  DUMP=N     - RESTART FILE WRITTEN EVERY 7200.0 SECONDS REQUESTED
 *  THERMO     - THERMODYNAMIC QUANTITIES TO BE CALCULATED
 *******************************************************************************
OLDGEO PRECISE PM7 THERMO
 W(CO)6

   ATOM   CHEMICAL          X               Y               Z
  NUMBER   SYMBOL      (ANGSTROMS)     (ANGSTROMS)     (ANGSTROMS)
 
     1       C         -1.18202166  *  -1.71928493  *   0.00000179  *
     2       W          0.00000027  *   0.00000615  *  -0.00001754  *
     3       C          1.18202178  *   1.71928092  *   0.00000178  *
     4       C          0.00000037  *  -0.00000021  *   2.08635907  *
     5       C          0.00000037  *  -0.00000021  *  -2.08640682  *
     6       C         -1.71928520  *   1.18193735  *   0.00000118  *
     7       C          1.71928380  *  -1.18194220  *   0.00000118  *
     8       O         -1.83470098  *  -2.66886316  *   0.00003637  *
     9       O          1.83469823  *   2.66885630  *   0.00003636  *
    10       O         -0.00000028  *   0.00000002  *   3.23860685  *
    11       O         -0.00000027  *   0.00000002  *  -3.23865434  *
    12       O         -2.66879335  *   1.83471595  *   0.00003523  *
    13       O          2.66879620  *  -1.83472194  *   0.00003523  *
 


          CARTESIAN COORDINATES 

    NO.       ATOM           X           Y           Z

     1         C         -1.1820     -1.7193      0.0000
     2         W          0.0000      0.0000     -0.0000
     3         C          1.1820      1.7193      0.0000
     4         C          0.0000     -0.0000      2.0864
     5         C          0.0000     -0.0000     -2.0864
     6         C         -1.7193      1.1819      0.0000
     7         C          1.7193     -1.1819      0.0000
     8         O         -1.8347     -2.6689      0.0000
     9         O          1.8347      2.6689      0.0000
    10         O         -0.0000      0.0000      3.2386
    11         O         -0.0000      0.0000     -3.2387
    12         O         -2.6688      1.8347      0.0000
    13         O          2.6688     -1.8347      0.0000

 General Reference for PM7:
 "Optimization of Parameters for Semiempirical Methods VI: More Modifications to the 
 NDDO Approximations and Re-optimization of Parameters", J. J. P. Stewart, J. Mol. Mod., 1:32, 19 (2013)
 https://link.springer.com/article/10.1007/s00894-012-1667-x

           Empirical Formula: C6 O6 W  =    13 atoms



      MOLECULAR POINT GROUP   :   Oh  


      RHF CALCULATION, NO. OF DOUBLY OCCUPIED LEVELS = 33



 ALL CONVERGERS ARE NOW FORCED ON
 SHIFT=10, PULAY ON, CAMP-KING ON
 AND ITERATION COUNTER RESET




          HEAT OF FORMATION =    -208.164282 KCALS/MOLE


          CARTESIAN COORDINATE DERIVATIVES

   NUMBER  ATOM         X            Y            Z

     1       C     -0.007752     0.003003     0.009279
     2       W      0.007648    -0.006500     0.006009
     3       C      0.012754     0.000656    -0.010083
     4       C     -0.001356    -0.007834     0.001745
     5       C      0.000699     0.011236    -0.002641
     6       C     -0.002393    -0.000475    -0.008642
     7       C      0.001388     0.004823     0.014372
     8       O     -0.008329    -0.002177    -0.004803
     9       O     -0.003286     0.000228     0.005429
    10       O      0.000087     0.012018    -0.002688
    11       O      0.000136    -0.010414     0.002471
    12       O      0.000433    -0.001772    -0.003032
    13       O     -0.000019    -0.002782    -0.007408
 


          GRADIENT NORM =   0.03935


          TIME FOR SCF CALCULATION =    0.73

          TIME FOR DERIVATIVES     =    0.00

          MOLECULAR WEIGHT =  351.91



          ROTATIONAL CONSTANTS IN CM(-1)

          A =    0.01914814   B =    0.01914776   C =    0.01914768



           PRINCIPAL MOMENTS OF INERTIA IN UNITS OF 10**(-40)*GRAM-CM**2

          A =     1461.9043   B =     1461.9333   C =     1461.9397


          ORIENTATION OF MOLECULE IN FORCE CALCULATION

    NO.       ATOM         X         Y         Z

     1          C      -2.0864    0.0000   -0.0000
     2          W       0.0000    0.0000   -0.0000
     3          C       2.0864    0.0000   -0.0000
     4          C      -0.0000   -2.0332    0.4679
     5          C       0.0000    2.0333   -0.4679
     6          C      -0.0001    0.4679    2.0332
     7          C       0.0001   -0.4679   -2.0332
     8          O      -3.2387   -0.0000   -0.0001
     9          O       3.2387    0.0001    0.0001
    10          O      -0.0000   -3.1561    0.7263
    11          O       0.0000    3.1562   -0.7263
    12          O      -0.0001    0.7262    3.1561
    13          O       0.0001   -0.7263   -3.1561


    FIRST DERIVATIVES WILL BE USED IN THE CALCULATION OF SECOND DERIVATIVES

          ESTIMATED TIME TO COMPLETE CALCULATION =      113.34 SECONDS

    FOR POINT-GROUP Oh   THERE ARE  48 UNIQUE SYMMETRY FUNCTIONS.

 STEP:   1 TIME =     0.05 SECS, INTEGRAL =      0.05 TIME LEFT: 172799.22
 STEP:   2 TIME =     0.06 SECS, INTEGRAL =      0.12 TIME LEFT: 172799.16
 STEP:   3 TIME =     0.07 SECS, INTEGRAL =      0.19 TIME LEFT: 172799.09
 STEP:   4 TIME =     0.03 SECS, INTEGRAL =      0.22 TIME LEFT: 172799.05
 STEP:   5 TIME =     0.04 SECS, INTEGRAL =      0.26 TIME LEFT: 172799.02
 STEP:   6 TIME =     0.04 SECS, INTEGRAL =      0.30 TIME LEFT: 172798.98
 STEP:   7                       INTEGRAL =      0.30 TIME LEFT: 172798.98
 STEP:   8                       INTEGRAL =      0.30 TIME LEFT: 172798.98
 STEP:   9                       INTEGRAL =      0.30 TIME LEFT: 172798.98
 STEP:  10                       INTEGRAL =      0.30 TIME LEFT: 172798.98
 STEP:  11                       INTEGRAL =      0.30 TIME LEFT: 172798.98
 STEP:  12                       INTEGRAL =      0.30 TIME LEFT: 172798.98
 STEP:  13                       INTEGRAL =      0.30 TIME LEFT: 172798.98
 STEP:  14                       INTEGRAL =      0.30 TIME LEFT: 172798.98
 STEP:  15                       INTEGRAL =      0.30 TIME LEFT: 172798.98
 STEP:  16                       INTEGRAL =      0.30 TIME LEFT: 172798.98
 STEP:  17                       INTEGRAL =      0.30 TIME LEFT: 172798.98
 STEP:  18                       INTEGRAL =      0.30 TIME LEFT: 172798.98
 STEP:  19                       INTEGRAL =      0.30 TIME LEFT: 172798.98
 STEP:  20                       INTEGRAL =      0.30 TIME LEFT: 172798.98
 STEP:  21                       INTEGRAL =      0.30 TIME LEFT: 172798.98
 STEP:  22 TIME =     0.05 SECS, INTEGRAL =      0.35 TIME LEFT: 172798.92
 STEP:  23 TIME =     0.05 SECS, INTEGRAL =      0.41 TIME LEFT: 172798.87
 STEP:  24 TIME =     0.05 SECS, INTEGRAL =      0.46 TIME LEFT: 172798.81
 STEP:  25                       INTEGRAL =      0.46 TIME LEFT: 172798.81
 STEP:  26                       INTEGRAL =      0.46 TIME LEFT: 172798.81
 STEP:  27                       INTEGRAL =      0.46 TIME LEFT: 172798.81
 STEP:  28                       INTEGRAL =      0.46 TIME LEFT: 172798.81
 STEP:  29                       INTEGRAL =      0.46 TIME LEFT: 172798.81
 STEP:  30                       INTEGRAL =      0.46 TIME LEFT: 172798.81
 STEP:  31                       INTEGRAL =      0.46 TIME LEFT: 172798.81
 STEP:  32                       INTEGRAL =      0.46 TIME LEFT: 172798.81
 STEP:  33                       INTEGRAL =      0.46 TIME LEFT: 172798.81
 STEP:  34                       INTEGRAL =      0.46 TIME LEFT: 172798.81
 STEP:  35                       INTEGRAL =      0.46 TIME LEFT: 172798.81
 STEP:  36                       INTEGRAL =      0.46 TIME LEFT: 172798.81
 STEP:  37                       INTEGRAL =      0.46 TIME LEFT: 172798.81
 STEP:  38                       INTEGRAL =      0.46 TIME LEFT: 172798.81
 STEP:  39                       INTEGRAL =      0.46 TIME LEFT: 172798.81

(To convert to Hartree/Bohr^2, multiply by (10^(-21) x N x a0^2)/(4.184 x 627.51) =  0.0642)


           FORCE MATRIX IN MILLIDYNES/ANGSTROM


                  C  1       W  2       C  3       C  4       C  5       C  6
 ------------------------------------------------------------------------------
     C    1  18.371862
     W    2   1.980775  12.411993
     C    3   0.750632   1.983042  18.371862
     C    4   0.586653   1.980003   0.587058  18.371862
     C    5   0.587058   1.980557   0.586653   0.750632  18.371862
     C    6   0.587448   1.979210   0.586284   0.586284   0.587448  18.371862
     C    7   0.586284   1.979097   0.587448   0.587448   0.586284   0.750632
     O    8  15.571804   1.153596   0.289373   0.186532   0.186541   0.186566
     O    9   0.288151   1.155253  15.570049   0.185727   0.185736   0.185723
     O   10   0.185736   1.155411   0.185727  15.570049   0.288151   0.185736
     O   11   0.185727   1.154577   0.185736   0.288151  15.570049   0.185727
     O   12   0.185723   1.155589   0.185739   0.185739   0.185723  15.570049
     O   13   0.185739   1.155442   0.185723   0.185723   0.185739   0.288151


                  C  7       O  8       O  9       O 10       O 11       O 12
 ------------------------------------------------------------------------------
     C    7  18.371862
     O    8   0.186513  16.567730
     O    9   0.185727   0.139757  16.567730
     O   10   0.185739   0.121917   0.121917  16.567730
     O   11   0.185723   0.121917   0.121917   0.139757  16.567730
     O   12   0.288151   0.121927   0.121908   0.121908   0.121927  16.567730
     O   13  15.570049   0.121908   0.121927   0.121927   0.121908   0.139757


                  O 13
 ------------------
     O   13  16.567730


          HEAT OF FORMATION =    -208.164282 KCALS/MOLE

          ZERO POINT ENERGY      29.653 KCAL/MOL


           NORMAL COORDINATE ANALYSIS (Total motion = 1 Angstrom)


   Root No.       1         2         3         4         5         6         7         8

                 1 T2u     1 T2u     1 T2u     1 T2g     1 T2g     1 T2g     1 T1u     1 T1u 

                  51.9      51.9      51.9      96.3      96.3      96.3     101.7     101.7
  
           1   -0.0000    0.0000   -0.0000    0.0000    0.0000   -0.0000    0.0003   -0.0005
           2    0.0205    0.0913    0.0009    0.0715   -0.0142   -0.0000   -0.0116   -0.0380
           3    0.0892   -0.0210    0.0039   -0.0142   -0.0715    0.0000   -0.0380    0.0116
           4    0.0000    0.0000   -0.0000   -0.0000   -0.0000   -0.0000    0.0004   -0.0006
           5   -0.0000   -0.0000   -0.0000   -0.0000    0.0000   -0.0000    0.0145    0.0474
           6   -0.0000    0.0000   -0.0000    0.0000    0.0000    0.0000    0.0474   -0.0145
           7   -0.0000    0.0000   -0.0000   -0.0000   -0.0000    0.0000    0.0003   -0.0005
           8    0.0205    0.0913    0.0009   -0.0715    0.0142    0.0000   -0.0116   -0.0380
           9    0.0892   -0.0210    0.0039    0.0142    0.0715   -0.0000   -0.0380    0.0116
          10   -0.0040   -0.0000    0.0916    0.0729    0.0022   -0.0000   -0.0003    0.0005
          11   -0.0205   -0.0000   -0.0009   -0.0000   -0.0000   -0.0166   -0.0058    0.0445
          12   -0.0892   -0.0000   -0.0039   -0.0000   -0.0000   -0.0721   -0.0394   -0.0074
          13   -0.0040   -0.0000    0.0916   -0.0729   -0.0022    0.0000   -0.0003    0.0005
          14   -0.0205   -0.0000   -0.0009    0.0000    0.0000    0.0166   -0.0058    0.0445
          15   -0.0892   -0.0000   -0.0039    0.0000    0.0000    0.0721   -0.0394   -0.0074
          16    0.0040    0.0000   -0.0916   -0.0022    0.0729   -0.0000   -0.0003    0.0005
          17    0.0000   -0.0913   -0.0000    0.0000    0.0000    0.0721    0.0074   -0.0394
          18   -0.0000    0.0210   -0.0000   -0.0000   -0.0000   -0.0166    0.0445    0.0058
          19    0.0040    0.0000   -0.0916    0.0022   -0.0729    0.0000   -0.0003    0.0005
          20    0.0000   -0.0913   -0.0000   -0.0000   -0.0000   -0.0721    0.0074   -0.0394
          21   -0.0000    0.0210    0.0000    0.0000    0.0000    0.0166    0.0445    0.0058
          22   -0.0000    0.0000   -0.0000    0.0000    0.0000   -0.0000    0.0003   -0.0005
          23    0.0343    0.1524    0.0015    0.1701   -0.0337   -0.0001   -0.0444   -0.1455
          24    0.1490   -0.0350    0.0066   -0.0337   -0.1701    0.0000   -0.1455    0.0444
          25   -0.0000    0.0000   -0.0000   -0.0000   -0.0000    0.0000    0.0003   -0.0005
          26    0.0343    0.1524    0.0015   -0.1701    0.0337    0.0001   -0.0444   -0.1455
          27    0.1490   -0.0350    0.0066    0.0337    0.1701   -0.0000   -0.1455    0.0444
          28   -0.0067   -0.0000    0.1529    0.1733    0.0053   -0.0001   -0.0012    0.0018
          29   -0.0343   -0.0000   -0.0015   -0.0000   -0.0000   -0.0394   -0.0309    0.0466
          30   -0.1490   -0.0000   -0.0066   -0.0001   -0.0000   -0.1714   -0.1486    0.0002
          31   -0.0067   -0.0000    0.1529   -0.1733   -0.0053    0.0001   -0.0012    0.0018
          32   -0.0343   -0.0000   -0.0015    0.0000    0.0000    0.0394   -0.0309    0.0466
          33   -0.1490   -0.0000   -0.0066    0.0001    0.0000    0.1714   -0.1486    0.0002
          34    0.0067    0.0000   -0.1529   -0.0053    0.1733   -0.0000   -0.0012    0.0018
          35    0.0000   -0.1524   -0.0000    0.0001    0.0000    0.1714   -0.0002   -0.1486
          36   -0.0000    0.0351   -0.0000   -0.0000    0.0000   -0.0395    0.0466    0.0309
          37    0.0067    0.0000   -0.1529    0.0053   -0.1733    0.0000   -0.0012    0.0018
          38    0.0000   -0.1524   -0.0000   -0.0001   -0.0000   -0.1714   -0.0002   -0.1486
          39   -0.0000    0.0351    0.0000    0.0000   -0.0000    0.0395    0.0466    0.0309


   Root No.       9        10        11        12        13        14        15        16

                 1 T1u     1 T1g     1 T1g     1 T1g     2 T2u     2 T2u     2 T2u     2 T2g 

                 101.7     373.6     373.6     373.6     375.3     375.3     375.3     386.5
  
           1    0.0452   -0.0000   -0.0000   -0.0000    0.0000   -0.0000   -0.0000   -0.0000
           2   -0.0004   -0.1491    0.0325   -0.0292   -0.0387   -0.1681    0.0000   -0.1833
           3    0.0004    0.0298    0.1629    0.0058   -0.1680    0.0387    0.0001    0.0353
           4    0.0496    0.0000   -0.0000   -0.0000    0.0000   -0.0000   -0.0000    0.0000
           5    0.0004    0.0000   -0.0000   -0.0000    0.0000    0.0000   -0.0000    0.0000
           6   -0.0005    0.0000   -0.0000   -0.0000    0.0000   -0.0000   -0.0000   -0.0000
           7    0.0452    0.0000    0.0000    0.0000    0.0000   -0.0000   -0.0000    0.0000
           8   -0.0004    0.1491   -0.0325    0.0292   -0.0387   -0.1681    0.0000    0.1833
           9    0.0004   -0.0298   -0.1629   -0.0058   -0.1680    0.0387    0.0001   -0.0353
          10   -0.0398    0.1520    0.0048    0.0298    0.0001    0.0000    0.1724   -0.1866
          11    0.0006   -0.0067    0.0000    0.0341    0.0387   -0.0000   -0.0000    0.0000
          12    0.0002   -0.0290    0.0000    0.1483    0.1680   -0.0000   -0.0001   -0.0000
          13   -0.0398   -0.1520   -0.0048   -0.0298    0.0001    0.0000    0.1724    0.1866
          14    0.0006    0.0067   -0.0000   -0.0341    0.0387   -0.0000   -0.0000   -0.0000
          15    0.0002    0.0290   -0.0000   -0.1483    0.1680   -0.0000   -0.0001    0.0000
          16   -0.0398   -0.0044    0.1661   -0.0009   -0.0001   -0.0000   -0.1724    0.0067
          17   -0.0005   -0.0290    0.0000    0.1483    0.0000    0.1681   -0.0000    0.0000
          18   -0.0003    0.0067   -0.0000   -0.0341   -0.0000   -0.0387   -0.0000   -0.0000
          19   -0.0398    0.0044   -0.1661    0.0009   -0.0001   -0.0000   -0.1724   -0.0067
          20   -0.0005    0.0290   -0.0000   -0.1483    0.0000    0.1681   -0.0000   -0.0000
          21   -0.0003   -0.0067    0.0000    0.0341   -0.0000   -0.0387    0.0000    0.0000
          22    0.0456    0.0000    0.0000    0.0000   -0.0000    0.0000    0.0000    0.0000
          23   -0.0014    0.0721   -0.0157    0.0141    0.0174    0.0756   -0.0000    0.0579
          24    0.0016   -0.0144   -0.0788   -0.0028    0.0756   -0.0174   -0.0000   -0.0111
          25    0.0456   -0.0000   -0.0000   -0.0000   -0.0000    0.0000    0.0000   -0.0000
          26   -0.0014   -0.0721    0.0157   -0.0141    0.0174    0.0756   -0.0000   -0.0579
          27    0.0016    0.0144    0.0788    0.0028    0.0756   -0.0174   -0.0000    0.0111
          28   -0.1524   -0.0735   -0.0023   -0.0144   -0.0000   -0.0000   -0.0775    0.0589
          29    0.0008    0.0032   -0.0000   -0.0165   -0.0174    0.0000    0.0000    0.0000
          30    0.0011    0.0140   -0.0000   -0.0717   -0.0756    0.0000    0.0000    0.0000
          31   -0.1524    0.0735    0.0023    0.0144   -0.0000   -0.0000   -0.0775   -0.0589
          32    0.0008   -0.0032    0.0000    0.0165   -0.0174    0.0000    0.0000   -0.0000
          33    0.0011   -0.0140    0.0000    0.0717   -0.0756    0.0000    0.0000   -0.0000
          34   -0.1524    0.0021   -0.0803    0.0004    0.0000    0.0000    0.0775   -0.0021
          35   -0.0017    0.0140   -0.0000   -0.0717   -0.0000   -0.0756    0.0000   -0.0000
          36   -0.0000   -0.0032    0.0000    0.0165    0.0000    0.0174   -0.0000   -0.0000
          37   -0.1524   -0.0021    0.0803   -0.0004    0.0000    0.0000    0.0775    0.0021
          38   -0.0017   -0.0140    0.0000    0.0717    0.0000   -0.0756    0.0000    0.0000
          39    0.0000    0.0032    0.0000   -0.0165    0.0000    0.0174    0.0000    0.0000


   Root No.      17        18        19        20        21        22        23        24

                 2 T2g     2 T2g     1 Eg      1 Eg      2 T1u     2 T1u     2 T1u     3 T1u 

                 386.5     386.5     455.9     455.9     464.8     464.8     464.8     517.0
  
           1   -0.0000    0.0000    0.1209    0.0295   -0.0000    0.0002    0.0439    0.1423
           2    0.0353   -0.0000   -0.0000    0.0000    0.0674    0.1286   -0.0006   -0.0000
           3    0.1833   -0.0000    0.0000    0.0000    0.1286   -0.0674    0.0003   -0.0000
           4    0.0000    0.0000   -0.0000   -0.0000    0.0000   -0.0002   -0.0346   -0.0339
           5   -0.0000    0.0000    0.0000   -0.0000   -0.0158   -0.0301    0.0001   -0.0000
           6   -0.0000   -0.0000   -0.0000   -0.0000   -0.0301    0.0158   -0.0001   -0.0000
           7    0.0000   -0.0000   -0.1209   -0.0295   -0.0000    0.0002    0.0439    0.1423
           8   -0.0353    0.0000    0.0000   -0.0000    0.0674    0.1286   -0.0006   -0.0000
           9   -0.1833    0.0000   -0.0000   -0.0000    0.1286   -0.0674    0.0003   -0.0000
          10   -0.0067   -0.0000   -0.0000    0.0000   -0.0000    0.0007    0.1476   -0.0723
          11    0.0000    0.0426   -0.0835    0.0890    0.0422    0.0324   -0.0002    0.0000
          12    0.0000    0.1851    0.0192   -0.0205    0.1344   -0.0452    0.0002   -0.0001
          13    0.0067    0.0000    0.0000   -0.0000   -0.0000    0.0007    0.1476   -0.0723
          14   -0.0000   -0.0426    0.0835   -0.0890    0.0422    0.0324   -0.0002    0.0000
          15   -0.0000   -0.1851   -0.0192    0.0205    0.1344   -0.0452    0.0002   -0.0001
          16   -0.1866    0.0000   -0.0000   -0.0000   -0.0000    0.0007    0.1476   -0.0723
          17   -0.0000   -0.1851    0.0079    0.0271    0.0452    0.1344   -0.0006   -0.0000
          18    0.0000    0.0426    0.0343    0.1178    0.0324   -0.0422    0.0002    0.0001
          19    0.1866   -0.0000    0.0000    0.0000   -0.0000    0.0007    0.1476   -0.0723
          20    0.0000    0.1851   -0.0079   -0.0271    0.0452    0.1344   -0.0006   -0.0000
          21   -0.0000   -0.0426   -0.0343   -0.1178    0.0324   -0.0422    0.0002    0.0001
          22    0.0000   -0.0000    0.1291    0.0315   -0.0000    0.0002    0.0438    0.1536
          23   -0.0111    0.0000    0.0000    0.0000   -0.0228   -0.0435    0.0002    0.0000
          24   -0.0579    0.0000    0.0000    0.0000   -0.0435    0.0228   -0.0001    0.0000
          25   -0.0000    0.0000   -0.1291   -0.0315   -0.0000    0.0002    0.0438    0.1536
          26    0.0111   -0.0000   -0.0000   -0.0000   -0.0228   -0.0435    0.0002    0.0000
          27    0.0579   -0.0000   -0.0000   -0.0000   -0.0435    0.0228   -0.0001    0.0000
          28    0.0021    0.0000   -0.0000    0.0000    0.0000   -0.0002   -0.0499    0.0213
          29   -0.0000   -0.0135   -0.0892    0.0951    0.0000    0.0434   -0.0002    0.0001
          30   -0.0000   -0.0585    0.0205   -0.0219   -0.0487    0.0028   -0.0000    0.0000
          31   -0.0021   -0.0000    0.0000   -0.0000    0.0000   -0.0002   -0.0499    0.0213
          32    0.0000    0.0135    0.0892   -0.0951    0.0000    0.0434   -0.0002    0.0001
          33    0.0000    0.0585   -0.0205    0.0219   -0.0487    0.0028   -0.0000    0.0000
          34    0.0589   -0.0000   -0.0000   -0.0000    0.0000   -0.0002   -0.0499    0.0213
          35    0.0000    0.0585    0.0084    0.0290   -0.0028   -0.0487    0.0002    0.0000
          36    0.0000   -0.0135    0.0367    0.1258    0.0434   -0.0000   -0.0000    0.0001
          37   -0.0589    0.0000    0.0000    0.0000    0.0000   -0.0002   -0.0499    0.0213
          38   -0.0000   -0.0585   -0.0084   -0.0290   -0.0028   -0.0487    0.0002    0.0000
          39    0.0000    0.0135   -0.0367   -0.1258    0.0434   -0.0000    0.0000    0.0001


   Root No.      25        26        27        28        29        30        31        32

                 3 T1u     3 T1u     1 A1g     4 T1u     4 T1u     4 T1u     2 Eg      2 Eg  

                 517.0     517.0     546.5    2005.5    2005.5    2005.5    2020.7    2020.7
  
           1   -0.0000   -0.0001   -0.0775    0.2871    0.0001    0.0000   -0.1468   -0.0208
           2   -0.0706   -0.0152   -0.0000   -0.0000   -0.0032   -0.0007    0.0000    0.0000
           3    0.0152   -0.0706   -0.0000    0.0000    0.0007   -0.0032   -0.0000   -0.0000
           4    0.0000    0.0000   -0.0000   -0.0014   -0.0000    0.0000   -0.0000   -0.0000
           5   -0.0331   -0.0071   -0.0000    0.0000   -0.0014   -0.0003    0.0000   -0.0000
           6    0.0071   -0.0331    0.0000   -0.0000    0.0003   -0.0014   -0.0000   -0.0000
           7   -0.0000   -0.0001    0.0775    0.2871    0.0001    0.0000    0.1468    0.0208
           8   -0.0706   -0.0152    0.0000   -0.0000   -0.0032   -0.0007   -0.0000   -0.0000
           9    0.0152   -0.0706    0.0000    0.0000    0.0007   -0.0032    0.0000    0.0000
          10    0.0000    0.0000   -0.0000   -0.0033    0.0000    0.0000    0.0000   -0.0000
          11    0.1384   -0.0181   -0.0755   -0.0001    0.2798   -0.0005    0.0879   -0.1228
          12   -0.0329   -0.0700    0.0174    0.0000   -0.0644   -0.0033   -0.0202    0.0283
          13    0.0000    0.0000    0.0000   -0.0033    0.0000    0.0000   -0.0000    0.0000
          14    0.1384   -0.0181    0.0755   -0.0001    0.2798   -0.0005   -0.0879    0.1228
          15   -0.0329   -0.0700   -0.0174    0.0000   -0.0644   -0.0033    0.0202   -0.0283
          16    0.0000    0.0000   -0.0000   -0.0033   -0.0000   -0.0000    0.0000    0.0000
          17   -0.0700    0.0329    0.0174    0.0000   -0.0033    0.0644   -0.0127   -0.0329
          18    0.0181    0.1384    0.0755   -0.0000    0.0005    0.2798   -0.0552   -0.1431
          19    0.0000    0.0000    0.0000   -0.0033   -0.0000   -0.0000   -0.0000   -0.0000
          20   -0.0700    0.0329   -0.0174    0.0000   -0.0033    0.0644    0.0127    0.0329
          21    0.0181    0.1384   -0.0755   -0.0000    0.0005    0.2798    0.0552    0.1431
          22   -0.0001   -0.0001   -0.0892   -0.2040   -0.0001    0.0000    0.1032    0.0146
          23    0.0208    0.0045   -0.0000    0.0000    0.0008    0.0002   -0.0000    0.0000
          24   -0.0045    0.0208   -0.0000   -0.0000   -0.0002    0.0008    0.0000    0.0000
          25   -0.0001   -0.0001    0.0892   -0.2040   -0.0001    0.0000   -0.1032   -0.0146
          26    0.0208    0.0045    0.0000    0.0000    0.0008    0.0002    0.0000   -0.0000
          27   -0.0045    0.0208    0.0000   -0.0000   -0.0002    0.0008   -0.0000   -0.0000
          28   -0.0000   -0.0000    0.0000    0.0008   -0.0000   -0.0000   -0.0000    0.0000
          29    0.1497    0.0027   -0.0869    0.0001   -0.1988    0.0000   -0.0618    0.0863
          30   -0.0341    0.0212    0.0200   -0.0000    0.0457    0.0008    0.0142   -0.0199
          31   -0.0000   -0.0000   -0.0000    0.0008   -0.0000   -0.0000    0.0000   -0.0000
          32    0.1497    0.0027    0.0869    0.0001   -0.1988   -0.0000    0.0618   -0.0863
          33   -0.0341    0.0212   -0.0200   -0.0000    0.0457    0.0008   -0.0142    0.0199
          34   -0.0000   -0.0000   -0.0000    0.0008    0.0000    0.0000    0.0000   -0.0000
          35    0.0212    0.0341    0.0200   -0.0000    0.0008   -0.0457    0.0089    0.0231
          36   -0.0027    0.1497    0.0869   -0.0000   -0.0000   -0.1988    0.0388    0.1006
          37   -0.0000   -0.0000    0.0000    0.0008    0.0000    0.0000   -0.0000    0.0000
          38    0.0212    0.0342   -0.0200   -0.0000    0.0008   -0.0458   -0.0089   -0.0231
          39   -0.0027    0.1497   -0.0869   -0.0000    0.0000   -0.1988   -0.0388   -0.1006


   Root No.      33

                 2 A1g 

                2124.7
  
           1   -0.1009
           2    0.0000
           3   -0.0000
           4   -0.0000
           5   -0.0000
           6   -0.0000
           7    0.1009
           8   -0.0000
           9    0.0000
          10   -0.0000
          11   -0.0983
          12    0.0226
          13    0.0000
          14    0.0983
          15   -0.0226
          16   -0.0000
          17    0.0226
          18    0.0983
          19    0.0000
          20   -0.0226
          21   -0.0983
          22    0.0658
          23   -0.0000
          24    0.0000
          25   -0.0658
          26    0.0000
          27   -0.0000
          28    0.0000
          29    0.0641
          30   -0.0147
          31   -0.0000
          32   -0.0641
          33    0.0147
          34    0.0000
          35   -0.0147
          36   -0.0641
          37   -0.0000
          38    0.0147
          39    0.0641


           MASS-WEIGHTED COORDINATE ANALYSIS (NORMAL COORDINATES)


   Root No.       1         2         3         4         5         6         7         8

                 1 T2u     1 T2u     1 T2u     1 T2g     1 T2g     1 T2g     1 T1u     1 T1u 

                  51.9      51.9      51.9      96.3      96.3      96.3     101.7     101.7
  
           1   -0.0000    0.0000    0.0000    0.0000    0.0000   -0.0000   -0.0002    0.0002
           2    0.0516    0.2244   -0.0018    0.1680   -0.0329   -0.0000   -0.0286   -0.0901
           3    0.2243   -0.0516   -0.0080   -0.0329   -0.1680    0.0000   -0.0901    0.0286
           4   -0.0000    0.0000   -0.0000   -0.0000   -0.0000   -0.0000   -0.0007    0.0010
           5   -0.0000   -0.0000    0.0000   -0.0000    0.0000   -0.0000    0.1396    0.4393
           6   -0.0000    0.0000    0.0000    0.0000    0.0000    0.0000    0.4393   -0.1396
           7   -0.0000    0.0000    0.0000   -0.0000   -0.0000    0.0000   -0.0002    0.0002
           8    0.0516    0.2244   -0.0018   -0.1680    0.0329    0.0000   -0.0286   -0.0901
           9    0.2243   -0.0516   -0.0080    0.0329    0.1680   -0.0000   -0.0901    0.0286
          10    0.0083   -0.0000    0.2302    0.1711    0.0056   -0.0000    0.0001   -0.0002
          11   -0.0516   -0.0000    0.0018   -0.0000   -0.0000   -0.0384   -0.0126    0.1060
          12   -0.2243   -0.0000    0.0080   -0.0000   -0.0000   -0.1669   -0.0938   -0.0165
          13    0.0083   -0.0000    0.2302   -0.1711   -0.0056    0.0000    0.0001   -0.0002
          14   -0.0516   -0.0000    0.0018    0.0000    0.0000    0.0384   -0.0126    0.1060
          15   -0.2243   -0.0000    0.0080    0.0000    0.0000    0.1669   -0.0938   -0.0165
          16   -0.0083    0.0000   -0.2302   -0.0056    0.1711   -0.0000    0.0001   -0.0002
          17    0.0000   -0.2244   -0.0000    0.0000    0.0000    0.1669    0.0165   -0.0938
          18   -0.0000    0.0516    0.0000   -0.0000   -0.0000   -0.0384    0.1060    0.0126
          19   -0.0083    0.0000   -0.2302    0.0056   -0.1711    0.0000    0.0001   -0.0002
          20    0.0000   -0.2244   -0.0000   -0.0000   -0.0000   -0.1669    0.0165   -0.0938
          21   -0.0000    0.0516    0.0000    0.0000    0.0000    0.0384    0.1060    0.0126
          22   -0.0000    0.0000    0.0000    0.0000    0.0000   -0.0000   -0.0002    0.0003
          23    0.0994    0.4325   -0.0035    0.4610   -0.0903   -0.0001   -0.1265   -0.3980
          24    0.4322   -0.0995   -0.0155   -0.0903   -0.4610    0.0001   -0.3980    0.1265
          25   -0.0000    0.0000    0.0000   -0.0000   -0.0000    0.0000   -0.0002    0.0003
          26    0.0994    0.4325   -0.0035   -0.4610    0.0903    0.0001   -0.1265   -0.3980
          27    0.4322   -0.0995   -0.0155    0.0903    0.4610   -0.0001   -0.3980    0.1265
          28    0.0159   -0.0001    0.4435    0.4695    0.0154   -0.0001    0.0006   -0.0009
          29   -0.0995   -0.0000    0.0036   -0.0000   -0.0000   -0.1053   -0.0834    0.1289
          30   -0.4322   -0.0000    0.0155   -0.0001   -0.0001   -0.4578   -0.4079    0.0052
          31    0.0159   -0.0001    0.4435   -0.4695   -0.0154    0.0001    0.0006   -0.0009
          32   -0.0995   -0.0000    0.0036    0.0000    0.0000    0.1053   -0.0834    0.1289
          33   -0.4322   -0.0000    0.0155    0.0001    0.0001    0.4578   -0.4079    0.0052
          34   -0.0159    0.0001   -0.4435   -0.0154    0.4695   -0.0001    0.0006   -0.0009
          35    0.0000   -0.4325   -0.0001    0.0001    0.0001    0.4578   -0.0052   -0.4079
          36   -0.0000    0.0995    0.0000   -0.0000    0.0000   -0.1053    0.1289    0.0834
          37   -0.0159    0.0001   -0.4435    0.0154   -0.4695    0.0001    0.0006   -0.0009
          38    0.0000   -0.4325   -0.0001   -0.0001   -0.0001   -0.4578   -0.0052   -0.4079
          39   -0.0000    0.0995    0.0000    0.0000    0.0000    0.1053    0.1289    0.0834


   Root No.       9        10        11        12        13        14        15        16

                 1 T1u     1 T1g     1 T1g     1 T1g     2 T2u     2 T2u     2 T2u     2 T2g 

                 101.7     373.6     373.6     373.6     375.3     375.3     375.3     386.5
  
           1    0.1073   -0.0000   -0.0000   -0.0000    0.0000   -0.0000    0.0000   -0.0000
           2    0.0002   -0.4201    0.0857   -0.0824   -0.0995   -0.4325    0.0000   -0.4613
           3   -0.0002    0.0841    0.4281    0.0164   -0.4325    0.0995   -0.0001    0.0888
           4    0.4609    0.0000   -0.0000    0.0000    0.0000    0.0000   -0.0000    0.0000
           5   -0.0008    0.0000   -0.0000   -0.0000    0.0000    0.0000   -0.0000    0.0000
           6    0.0010    0.0000   -0.0000   -0.0000    0.0000   -0.0000    0.0000   -0.0000
           7    0.1073    0.0000    0.0000    0.0000    0.0000   -0.0000    0.0000    0.0000
           8    0.0002    0.4201   -0.0857    0.0824   -0.0995   -0.4325    0.0000    0.4613
           9   -0.0002   -0.0841   -0.4281   -0.0164   -0.4325    0.0995   -0.0001   -0.0888
          10   -0.0946    0.4283    0.0125    0.0840   -0.0001    0.0001    0.4438   -0.4695
          11   -0.0002   -0.0188    0.0000    0.0961    0.0995   -0.0000    0.0000    0.0000
          12   -0.0001   -0.0819    0.0001    0.4175    0.4325   -0.0000    0.0001   -0.0000
          13   -0.0946   -0.4283   -0.0125   -0.0840   -0.0001    0.0001    0.4438    0.4695
          14   -0.0002    0.0188   -0.0000   -0.0961    0.0995   -0.0000    0.0000   -0.0000
          15   -0.0001    0.0819   -0.0001   -0.4175    0.4325   -0.0000    0.0001    0.0000
          16   -0.0946   -0.0122    0.4364   -0.0025    0.0001   -0.0001   -0.4438    0.0169
          17    0.0002   -0.0819    0.0001    0.4175    0.0000    0.4325   -0.0001    0.0000
          18    0.0001    0.0188   -0.0000   -0.0961   -0.0000   -0.0995   -0.0000   -0.0000
          19   -0.0946    0.0122   -0.4364    0.0025    0.0001   -0.0001   -0.4438   -0.0169
          20    0.0002    0.0819   -0.0001   -0.4175    0.0000    0.4325   -0.0001   -0.0000
          21    0.0001   -0.0188    0.0000    0.0961   -0.0000   -0.0995   -0.0000    0.0000
          22    0.1249    0.0000    0.0000    0.0000   -0.0000    0.0000   -0.0000    0.0000
          23    0.0007    0.2345   -0.0478    0.0460    0.0516    0.2244   -0.0000    0.1681
          24   -0.0009   -0.0470   -0.2390   -0.0092    0.2244   -0.0516    0.0001   -0.0324
          25    0.1249   -0.0000   -0.0000   -0.0000   -0.0000    0.0000   -0.0000   -0.0000
          26    0.0007   -0.2345    0.0478   -0.0460    0.0516    0.2244   -0.0000   -0.1681
          27   -0.0009    0.0470    0.2390    0.0092    0.2244   -0.0516    0.0001    0.0324
          28   -0.4176   -0.2390   -0.0070   -0.0469    0.0001   -0.0000   -0.2303    0.1711
          29   -0.0004    0.0105   -0.0000   -0.0536   -0.0516    0.0000   -0.0000    0.0000
          30   -0.0006    0.0457   -0.0000   -0.2330   -0.2244    0.0000   -0.0001    0.0000
          31   -0.4176    0.2390    0.0070    0.0469    0.0001   -0.0000   -0.2303   -0.1711
          32   -0.0004   -0.0105    0.0000    0.0536   -0.0516    0.0000   -0.0000   -0.0000
          33   -0.0006   -0.0457    0.0000    0.2330   -0.2244    0.0000   -0.0001   -0.0000
          34   -0.4176    0.0068   -0.2436    0.0014   -0.0001    0.0000    0.2303   -0.0062
          35    0.0009    0.0457   -0.0000   -0.2330   -0.0000   -0.2244    0.0000   -0.0000
          36    0.0000   -0.0105    0.0000    0.0536    0.0000    0.0516    0.0000   -0.0000
          37   -0.4176   -0.0068    0.2436   -0.0014   -0.0001    0.0000    0.2303    0.0062
          38    0.0009   -0.0457    0.0000    0.2330   -0.0000   -0.2244    0.0000    0.0000
          39    0.0000    0.0105    0.0000   -0.0536    0.0000    0.0516    0.0000    0.0000


   Root No.      17        18        19        20        21        22        23        24

                 2 T2g     2 T2g     1 Eg      1 Eg      2 T1u     2 T1u     2 T1u     3 T1u 

                 386.5     386.5     455.9     455.9     464.8     464.8     464.8     517.0
  
           1   -0.0000    0.0000    0.3538    0.0843   -0.0000    0.0001    0.1228    0.3747
           2    0.0888   -0.0000   -0.0000    0.0000    0.1917    0.3660   -0.0003   -0.0003
           3    0.4613   -0.0001    0.0000    0.0000    0.3660   -0.1917    0.0002   -0.0000
           4    0.0000    0.0000   -0.0000   -0.0000    0.0000   -0.0003   -0.3786   -0.3489
           5   -0.0000    0.0000    0.0000   -0.0000   -0.1756   -0.3353    0.0002   -0.0005
           6   -0.0000   -0.0000   -0.0000   -0.0000   -0.3353    0.1756   -0.0001   -0.0000
           7    0.0000   -0.0000   -0.3538   -0.0843   -0.0000    0.0001    0.1228    0.3747
           8   -0.0888    0.0000    0.0000   -0.0000    0.1917    0.3660   -0.0002   -0.0003
           9   -0.4613    0.0001   -0.0000   -0.0000    0.3660   -0.1917    0.0002   -0.0000
          10   -0.0169   -0.0000   -0.0000    0.0000   -0.0000    0.0003    0.4131   -0.1903
          11    0.0000    0.1053   -0.2435    0.2575    0.1200    0.0923   -0.0001    0.0005
          12    0.0001    0.4578    0.0560   -0.0593    0.3825   -0.1287    0.0001   -0.0002
          13    0.0169    0.0000    0.0000   -0.0000   -0.0000    0.0003    0.4131   -0.1903
          14   -0.0000   -0.1053    0.2435   -0.2575    0.1200    0.0923   -0.0001    0.0005
          15   -0.0001   -0.4578   -0.0560    0.0593    0.3825   -0.1287    0.0001   -0.0002
          16   -0.4695    0.0001   -0.0000   -0.0000   -0.0000    0.0003    0.4131   -0.1903
          17   -0.0001   -0.4578    0.0233    0.0782    0.1287    0.3825   -0.0003   -0.0002
          18    0.0000    0.1053    0.1013    0.3397    0.0923   -0.1200    0.0001    0.0002
          19    0.4695   -0.0001    0.0000    0.0000   -0.0000    0.0003    0.4131   -0.1903
          20    0.0001    0.4578   -0.0233   -0.0782    0.1287    0.3825   -0.0003   -0.0002
          21   -0.0000   -0.1053   -0.1013   -0.3397    0.0923   -0.1200    0.0001    0.0002
          22    0.0000   -0.0000    0.4362    0.1039   -0.0000    0.0001    0.1415    0.4668
          23   -0.0324    0.0000    0.0000    0.0000   -0.0747   -0.1427    0.0001    0.0001
          24   -0.1681    0.0000    0.0000    0.0000   -0.1427    0.0747   -0.0001    0.0000
          25   -0.0000    0.0000   -0.4362   -0.1039   -0.0000    0.0001    0.1415    0.4668
          26    0.0324   -0.0000   -0.0000   -0.0000   -0.0747   -0.1427    0.0001    0.0001
          27    0.1681   -0.0000   -0.0000   -0.0000   -0.1427    0.0747   -0.0001    0.0000
          28    0.0062    0.0000   -0.0000    0.0000    0.0000   -0.0001   -0.1611    0.0648
          29   -0.0000   -0.0384   -0.3002    0.3175    0.0000    0.1425   -0.0001    0.0006
          30   -0.0000   -0.1669    0.0691   -0.0731   -0.1599    0.0091   -0.0000   -0.0001
          31   -0.0062   -0.0000    0.0000   -0.0000    0.0000   -0.0001   -0.1611    0.0648
          32    0.0000    0.0384    0.3002   -0.3175    0.0000    0.1425   -0.0001    0.0006
          33    0.0000    0.1669   -0.0691    0.0731   -0.1599    0.0091   -0.0000   -0.0001
          34    0.1711   -0.0000   -0.0000   -0.0000    0.0000   -0.0001   -0.1611    0.0648
          35    0.0000    0.1669    0.0287    0.0964   -0.0091   -0.1599    0.0001    0.0001
          36    0.0000   -0.0384    0.1248    0.4188    0.1425   -0.0000   -0.0000    0.0002
          37   -0.1711    0.0000    0.0000    0.0000    0.0000   -0.0001   -0.1611    0.0648
          38   -0.0000   -0.1669   -0.0287   -0.0964   -0.0091   -0.1599    0.0001    0.0001
          39    0.0000    0.0384   -0.1248   -0.4188    0.1425   -0.0000    0.0000    0.0002


   Root No.      25        26        27        28        29        30        31        32

                 3 T1u     3 T1u     1 A1g     4 T1u     4 T1u     4 T1u     2 Eg      2 Eg  

                 517.0     517.0     546.5    2005.5    2005.5    2005.5    2020.7    2020.7
  
           1   -0.0005   -0.0001   -0.2454    0.5467    0.0001    0.0000   -0.4445   -0.0586
           2   -0.1860   -0.0401   -0.0000   -0.0000   -0.0061   -0.0014    0.0000    0.0000
           3    0.0401   -0.1860   -0.0000    0.0000    0.0014   -0.0061   -0.0000   -0.0000
           4    0.0005    0.0001   -0.0000   -0.0106   -0.0000    0.0000   -0.0000   -0.0000
           5   -0.3410   -0.0735   -0.0000    0.0000   -0.0103   -0.0024    0.0000   -0.0000
           6    0.0735   -0.3410    0.0000   -0.0000    0.0024   -0.0103   -0.0000   -0.0000
           7   -0.0005   -0.0001    0.2454    0.5467    0.0001    0.0000    0.4445    0.0586
           8   -0.1860   -0.0401    0.0000   -0.0000   -0.0061   -0.0014   -0.0000   -0.0000
           9    0.0401   -0.1860    0.0000    0.0000    0.0014   -0.0061    0.0000    0.0000
          10    0.0003    0.0001   -0.0000   -0.0063    0.0000    0.0000    0.0000   -0.0000
          11    0.3645   -0.0478   -0.2392   -0.0001    0.5328   -0.0009    0.2661   -0.3466
          12   -0.0866   -0.1842    0.0550    0.0000   -0.1226   -0.0062   -0.0612    0.0798
          13    0.0003    0.0001    0.0000   -0.0063    0.0000    0.0000   -0.0000    0.0000
          14    0.3645   -0.0478    0.2392   -0.0001    0.5328   -0.0009   -0.2661    0.3466
          15   -0.0866   -0.1842   -0.0550    0.0000   -0.1226   -0.0062    0.0612   -0.0798
          16    0.0003    0.0001   -0.0000   -0.0063   -0.0000   -0.0000    0.0000    0.0000
          17   -0.1842    0.0866    0.0550    0.0000   -0.0062    0.1226   -0.0385   -0.0929
          18    0.0478    0.3645    0.2392   -0.0000    0.0009    0.5328   -0.1672   -0.4037
          19    0.0003    0.0001    0.0000   -0.0063   -0.0000   -0.0000   -0.0000   -0.0000
          20   -0.1842    0.0866   -0.0550    0.0000   -0.0062    0.1226    0.0385    0.0929
          21    0.0478    0.3645   -0.2392   -0.0000    0.0009    0.5328    0.1672    0.4037
          22   -0.0006   -0.0002   -0.3262   -0.4483   -0.0001    0.0000    0.3606    0.0475
          23    0.0633    0.0136   -0.0000    0.0000    0.0017    0.0004   -0.0000    0.0000
          24   -0.0136    0.0633   -0.0000   -0.0000   -0.0004    0.0017    0.0000    0.0000
          25   -0.0006   -0.0002    0.3262   -0.4483   -0.0001    0.0000   -0.3606   -0.0475
          26    0.0633    0.0136    0.0000    0.0000    0.0017    0.0004    0.0000   -0.0000
          27   -0.0136    0.0633    0.0000   -0.0000   -0.0004    0.0017   -0.0000   -0.0000
          28   -0.0001   -0.0000    0.0000    0.0017   -0.0000   -0.0000   -0.0000    0.0000
          29    0.4551    0.0081   -0.3179    0.0001   -0.4369    0.0000   -0.2158    0.2812
          30   -0.1038    0.0646    0.0732   -0.0000    0.1005    0.0018    0.0497   -0.0647
          31   -0.0001   -0.0000   -0.0000    0.0017   -0.0000   -0.0000    0.0000   -0.0000
          32    0.4551    0.0081    0.3179    0.0001   -0.4369   -0.0000    0.2158   -0.2812
          33   -0.1038    0.0646   -0.0732   -0.0000    0.1005    0.0018   -0.0497    0.0647
          34   -0.0001   -0.0000   -0.0000    0.0017    0.0000    0.0000    0.0000   -0.0000
          35    0.0646    0.1038    0.0732   -0.0000    0.0018   -0.1005    0.0312    0.0754
          36   -0.0081    0.4551    0.3179   -0.0000   -0.0000   -0.4369    0.1356    0.3275
          37   -0.0001   -0.0000    0.0000    0.0017    0.0000    0.0000   -0.0000    0.0000
          38    0.0646    0.1038   -0.0732   -0.0000    0.0018   -0.1005   -0.0312   -0.0754
          39   -0.0081    0.4551   -0.3179   -0.0000    0.0000   -0.4369   -0.1356   -0.3275


   Root No.      33

                 2 A1g 

                2124.7
  
           1   -0.3262
           2    0.0000
           3   -0.0000
           4   -0.0000
           5   -0.0000
           6   -0.0000
           7    0.3262
           8   -0.0000
           9    0.0000
          10   -0.0000
          11   -0.3179
          12    0.0732
          13    0.0000
          14    0.3179
          15   -0.0732
          16   -0.0000
          17    0.0732
          18    0.3179
          19    0.0000
          20   -0.0732
          21   -0.3179
          22    0.2454
          23   -0.0000
          24    0.0000
          25   -0.2454
          26    0.0000
          27   -0.0000
          28    0.0000
          29    0.2392
          30   -0.0550
          31   -0.0000
          32   -0.2392
          33    0.0550
          34    0.0000
          35   -0.0550
          36   -0.2392
          37   -0.0000
          38    0.0550
          39    0.2392


          DESCRIPTION OF VIBRATIONS


 VIBRATION          3    1T2u         ATOM PAIR      ENERGY CONTRIBUTION    RADIAL
 FREQUENCY            51.88         W  2 -- C  4         +20.6% (162.8%)      0.0%
 TRANSITION DIPOLE   0.0000         W  2 -- C  5         +20.6% (162.8%)      0.0%
 TRAVEL (Ang.)       0.7053         W  2 -- C  6         +20.6% (162.7%)      0.0%
 REDUCED MASS        2.6145         W  2 -- C  7         +20.6% (162.7%)      0.0%
 EFFECTIVE MASS     17.6017
 FORCE CONSTANT      0.0041

 VIBRATION          6    1T2g         ATOM PAIR      ENERGY CONTRIBUTION    RADIAL
 FREQUENCY            96.31         W  2 -- C  6         +17.8% ( 65.2%)      0.0%
 TRANSITION DIPOLE   0.0000         W  2 -- C  7         +17.8% ( 65.2%)      0.0%
 TRAVEL (Ang.)       0.4708         W  2 -- C  4         +17.8% ( 65.2%)      0.0%
 REDUCED MASS        3.1579         W  2 -- C  5         +17.8% ( 65.2%)      0.0%
 EFFECTIVE MASS     15.9780
 FORCE CONSTANT      0.0173

 VIBRATION          9    1T1u         ATOM PAIR      ENERGY CONTRIBUTION    RADIAL
 FREQUENCY           101.74         W  2 -- C  3         +23.0% (189.5%)    100.0%
 TRANSITION DIPOLE   0.3870         C  1 -- W  2         +23.0% (189.5%)    100.0%
 TRAVEL (Ang.)       0.2542         W  2 -- C  5         +10.3% (126.9%)      0.0%
 REDUCED MASS       10.2586         W  2 -- C  6         +10.3% (126.9%)      0.0%
 EFFECTIVE MASS    161.7302         W  2 -- C  7         +10.3% (126.9%)      0.0%
 FORCE CONSTANT      0.0626         W  2 -- C  4         +10.3% (126.9%)      0.0%

 VIBRATION         12    1T1g         ATOM PAIR      ENERGY CONTRIBUTION    RADIAL
 FREQUENCY           373.56         C  4 -- O 10         +15.2% ( 53.4%)      0.0%
 TRANSITION DIPOLE   0.0000         C  5 -- O 11         +15.2% ( 53.4%)      0.0%
 TRAVEL (Ang.)       0.3081         C  6 -- O 12         +14.6% ( 52.4%)      0.0%
 REDUCED MASS        1.9010         C  7 -- O 13         +14.6% ( 52.4%)      0.0%
 EFFECTIVE MASS     12.9064
 FORCE CONSTANT      0.1563

 VIBRATION         15    2T2u         ATOM PAIR      ENERGY CONTRIBUTION    RADIAL
 FREQUENCY           375.31         C  5 -- O 11         +15.0% ( 53.2%)      0.0%
 TRANSITION DIPOLE   0.0000         C  7 -- O 13         +15.0% ( 53.2%)      0.0%
 TRAVEL (Ang.)       0.2965         C  6 -- O 12         +15.0% ( 53.2%)      0.0%
 REDUCED MASS        2.0438         C  4 -- O 10         +15.0% ( 53.2%)      0.0%
 EFFECTIVE MASS     12.8104
 FORCE CONSTANT      0.1696

 VIBRATION         18    2T2g         ATOM PAIR      ENERGY CONTRIBUTION    RADIAL
 FREQUENCY           386.54         C  7 -- O 13         +14.3% ( 51.7%)      0.0%
 TRANSITION DIPOLE   0.0000         C  6 -- O 12         +14.3% ( 51.7%)      0.0%
 TRAVEL (Ang.)       0.2699         C  5 -- O 11         +14.3% ( 51.7%)      0.0%
 REDUCED MASS        2.3947         C  4 -- O 10         +14.3% ( 51.7%)      0.0%
 EFFECTIVE MASS     12.4511         W  2 -- C  7         +10.7% ( 44.6%)      0.0%
 FORCE CONSTANT      0.2108         W  2 -- C  6         +10.7% ( 44.6%)      0.0%
                            W  2 -- C  5         +10.7% ( 44.6%)      0.0%
                            W  2 -- C  4         +10.7% ( 44.6%)      0.0%

 VIBRATION         20    1Eg          ATOM PAIR      ENERGY CONTRIBUTION    RADIAL
 FREQUENCY           455.92         W  2 -- C  6         +25.1% (123.0%)    100.0%
 TRANSITION DIPOLE   0.0000         W  2 -- C  7         +25.1% (123.0%)    100.0%
 TRAVEL (Ang.)       0.2770         W  2 -- C  4         +14.5% ( 93.3%)    100.0%
 REDUCED MASS        1.9280         W  2 -- C  5         +14.5% ( 93.3%)    100.0%
 EFFECTIVE MASS     15.6903
 FORCE CONSTANT      0.2361

 VIBRATION         23    2T1u         ATOM PAIR      ENERGY CONTRIBUTION    RADIAL
 FREQUENCY           464.83         W  2 -- C  3         +13.7% ( 50.4%)    100.0%
 TRANSITION DIPOLE   4.9616         C  1 -- W  2         +13.7% ( 50.4%)    100.0%
 TRAVEL (Ang.)       0.1664         W  2 -- C  4          +9.3% ( 41.7%)      0.0%
 REDUCED MASS        5.2365         W  2 -- C  7          +9.3% ( 41.7%)      0.0%
 EFFECTIVE MASS     27.3868
 FORCE CONSTANT      0.6666

 VIBRATION         26    3T1u         ATOM PAIR      ENERGY CONTRIBUTION    RADIAL
 FREQUENCY           517.02         W  2 -- C  7         +38.6% (120.7%)    100.0%
 TRANSITION DIPOLE   2.3387         W  2 -- C  6         +38.6% (120.7%)    100.0%
 TRAVEL (Ang.)       0.1652         C  7 -- O 13          +8.0% ( 54.8%)     99.8%
 REDUCED MASS        4.7804         C  6 -- O 12          +8.0% ( 54.8%)     99.8%
 EFFECTIVE MASS     26.5289
 FORCE CONSTANT      0.7529

 VIBRATION         27    1A1g         ATOM PAIR      ENERGY CONTRIBUTION    RADIAL
 FREQUENCY           546.54         W  2 -- C  7         +13.4% ( 72.3%)    100.0%
 TRANSITION DIPOLE   0.0000         W  2 -- C  6         +13.4% ( 72.3%)    100.0%
 TRAVEL (Ang.)       0.3024         W  2 -- C  5         +13.4% ( 72.3%)    100.0%
 REDUCED MASS        1.3488         W  2 -- C  4         +13.4% ( 72.3%)    100.0%
 EFFECTIVE MASS     15.4875         W  2 -- C  3         +13.4% ( 72.3%)    100.0%
 FORCE CONSTANT      0.2374         C  1 -- W  2         +13.4% ( 72.3%)    100.0%

 VIBRATION         30    4T1u         ATOM PAIR      ENERGY CONTRIBUTION    RADIAL
 FREQUENCY          2005.45         C  6 -- O 12         +36.3% ( 71.6%)    100.0%
 TRANSITION DIPOLE  16.9394         C  7 -- O 13         +36.3% ( 71.6%)    100.0%
 TRAVEL (Ang.)       0.0989         W  2 -- C  6         +13.7% ( 43.9%)    100.0%
 REDUCED MASS        3.4384         W  2 -- C  7         +13.7% ( 43.9%)    100.0%
 EFFECTIVE MASS     13.5564
 FORCE CONSTANT      8.1476

 VIBRATION         32    2Eg          ATOM PAIR      ENERGY CONTRIBUTION    RADIAL
 FREQUENCY          2020.71         C  7 -- O 13         +20.6% ( 53.6%)    100.0%
 TRANSITION DIPOLE   0.0000         C  6 -- O 12         +20.6% ( 53.6%)    100.0%
 TRAVEL (Ang.)       0.1392         C  5 -- O 11         +15.2% ( 46.0%)    100.0%
 REDUCED MASS        1.7223         C  4 -- O 10         +15.2% ( 46.0%)    100.0%
 EFFECTIVE MASS     13.5290
 FORCE CONSTANT      4.1435

 VIBRATION         33    2A1g         ATOM PAIR      ENERGY CONTRIBUTION    RADIAL
 FREQUENCY          2124.73         C  7 -- O 13         +11.9% ( 39.0%)    100.0%
 TRANSITION DIPOLE   0.0000         C  6 -- O 12         +11.9% ( 39.0%)    100.0%
 TRAVEL (Ang.)       0.1651         C  5 -- O 11         +11.9% ( 39.0%)    100.0%
 REDUCED MASS        1.1646         C  4 -- O 10         +11.9% ( 39.0%)    100.0%
 EFFECTIVE MASS     13.3910         C  3 -- O  9         +11.9% ( 39.0%)    100.0%
 FORCE CONSTANT      3.0977         C  1 -- O  8         +11.9% ( 39.0%)    100.0%

      SYMMETRY NUMBER FOR POINT-GROUP Oh  = 24


          SYSTEM IS A GROUND STATE



 W(CO)6


          MOLECULE IS NOT LINEAR

          THERE ARE 33 GENUINE VIBRATIONS IN THIS SYSTEM
          THIS THERMODYNAMICS CALCULATION IS LIMITED TO
          MOLECULES WHICH HAVE NO INTERNAL ROTATIONS




                    CALCULATED THERMODYNAMIC PROPERTIES
                                          *
   TEMP. (K)   PARTITION FUNCTION   H.O.F.    ENTHALPY  HEAT CAPACITY ENTROPY
                                   KCAL/MOL   CAL/MOLE    CAL/K/MOL  CAL/K/MOL


 298.00  VIB.     0.3659D+06                  7519.1344    42.7927    50.6881
         ROT.     0.8308D+05                   888.2803     2.9808    25.4911
         INT.     0.3040D+11                  8407.4147    45.7735    76.1792
         TRA.     0.6382D+28                  1480.4672     4.9680    43.4663
         TOT.                     -208.164    9887.8819    50.7415   119.6455

 200.00  VIB.     0.4615D+04                  3693.3556    34.2971    35.2328
         ROT.     0.4568D+05                   596.1613     2.9808    24.3024
         INT.     0.2108D+09                  4289.5169    37.2779    59.5352
         TRA.     0.3509D+28                   993.6021     4.9680    41.4851
         TOT.                     -212.769    5283.1190    42.2459   101.0203

 210.00  VIB.     0.7332D+04                  4042.2223    35.4626    36.9347
         ROT.     0.4915D+05                   625.9693     2.9808    24.4478
         INT.     0.3603D+09                  4668.1916    38.4434    61.3825
         TRA.     0.3776D+28                  1043.2822     4.9680    41.7275
         TOT.                     -212.341    5711.4738    43.4115   103.1101

 220.00  VIB.     0.1161D+05                  4402.3419    36.5483    38.6098
         ROT.     0.5270D+05                   655.7774     2.9808    24.5865
         INT.     0.6118D+09                  5058.1193    39.5291    63.1963
         TRA.     0.4048D+28                  1092.9623     4.9680    41.9586
         TOT.                     -211.901    6151.0816    44.4971   105.1549

 230.00  VIB.     0.1831D+05                  4772.9354    37.5582    40.2570
         ROT.     0.5634D+05                   685.5855     2.9808    24.7190
         INT.     0.1032D+10                  5458.5208    40.5390    64.9760
         TRA.     0.4328D+28                  1142.6424     4.9680    42.1795
         TOT.                     -211.451    6601.1633    45.5070   107.1554

 240.00  VIB.     0.2878D+05                  5153.2684    38.4970    41.8755
         ROT.     0.6005D+05                   715.3935     2.9808    24.8459
         INT.     0.1728D+10                  5868.6619    41.4778    66.7214
         TRA.     0.4613D+28                  1192.3226     4.9680    42.3909
         TOT.                     -210.991    7060.9845    46.4458   109.1123

 250.00  VIB.     0.4506D+05                  5542.6549    39.3697    43.4649
         ROT.     0.6384D+05                   745.2016     2.9808    24.9675
         INT.     0.2877D+10                  6287.8565    42.3505    68.4325
         TRA.     0.4904D+28                  1242.0027     4.9680    42.5937
         TOT.                     -210.522    7529.8591    47.3185   111.0262

 260.00  VIB.     0.7026D+05                  5940.4590    40.1813    45.0250
         ROT.     0.6771D+05                   775.0097     2.9808    25.0845
         INT.     0.4757D+10                  6715.4687    43.1621    70.1095
         TRA.     0.5201D+28                  1291.6828     4.9680    42.7886
         TOT.                     -210.045    8007.1514    48.1302   112.8981

 270.00  VIB.     0.1091D+06                  6346.0945    40.9368    46.5558
         ROT.     0.7165D+05                   804.8177     2.9808    25.1970
         INT.     0.7818D+10                  7150.9122    43.9176    71.7528
         TRA.     0.5504D+28                  1341.3629     4.9680    42.9761
         TOT.                     -209.560    8492.2751    48.8856   114.7289

 280.00  VIB.     0.1687D+06                  6759.0235    41.6408    48.0575
         ROT.     0.7567D+05                   834.6258     2.9808    25.3054
         INT.     0.1277D+11                  7593.6493    44.6216    73.3628
         TRA.     0.5813D+28                  1391.0430     4.9680    43.1568
         TOT.                     -209.067    8984.6923    49.5896   116.5196

 290.00  VIB.     0.2598D+06                  7178.7545    42.2979    49.5303
         ROT.     0.7976D+05                   864.4339     2.9808    25.4100
         INT.     0.2072D+11                  8043.1884    45.2787    74.9403
         TRA.     0.6127D+28                  1440.7231     4.9680    43.3311
         TOT.                     -208.568    9483.9115    50.2467   118.2713

 300.00  VIB.     0.3984D+06                  7604.8397    42.9123    50.9747
         ROT.     0.8392D+05                   894.2419     2.9808    25.5110
         INT.     0.3343D+11                  8499.0816    45.8931    76.4858
         TRA.     0.6447D+28                  1490.4032     4.9680    43.4995
         TOT.                     -208.063    9989.4848    50.8612   119.9853

 310.00  VIB.     0.6081D+06                  8036.8720    43.4880    52.3913
         ROT.     0.8815D+05                   924.0500     2.9808    25.6088
         INT.     0.5361D+11                  8960.9220    46.4688    78.0001
         TRA.     0.6772D+28                  1540.0833     4.9680    43.6624
         TOT.                     -207.551   10501.0053    51.4368   121.6625

 320.00  VIB.     0.9243D+06                  8474.4822    44.0285    53.7806
         ROT.     0.9245D+05                   953.8580     2.9808    25.7034
         INT.     0.8546D+11                  9428.3403    47.0093    79.4840
         TRA.     0.7102D+28                  1589.7634     4.9680    43.8201
         TOT.                     -207.034   11018.1037    51.9773   123.3042

 330.00  VIB.     0.1399D+07                  8917.3361    44.5372    55.1433
         ROT.     0.9682D+05                   983.6661     2.9808    25.7951
         INT.     0.1354D+12                  9901.0022    47.5180    80.9384
         TRA.     0.7437D+28                  1639.4435     4.9680    43.9730
         TOT.                     -206.512   11540.4457    52.4860   124.9114

 340.00  VIB.     0.2107D+07                  9365.1311    45.0172    56.4801
         ROT.     0.1013D+06                  1013.4742     2.9808    25.8841
         INT.     0.2134D+12                 10378.6053    47.9980    82.3642
         TRA.     0.7778D+28                  1689.1236     4.9680    44.1213
         TOT.                     -205.984   12067.7289    52.9660   126.4855

 350.00  VIB.     0.3161D+07                  9817.5940    45.4713    57.7916
         ROT.     0.1058D+06                  1043.2822     2.9808    25.9705
         INT.     0.3343D+12                 10860.8763    48.4521    83.7621
         TRA.     0.8124D+28                  1738.8037     4.9680    44.2653
         TOT.                     -205.452   12599.6800    53.4201   128.0275

 360.00  VIB.     0.4721D+07                 10274.4780    45.9018    59.0787
         ROT.     0.1103D+06                  1073.0903     2.9808    26.0545
         INT.     0.5208D+12                 11347.5683    48.8826    85.1332
         TRA.     0.8474D+28                  1788.4838     4.9680    44.4053
         TOT.                     -204.916   13136.0521    53.8506   129.5385

 370.00  VIB.     0.7020D+07                 10735.5599    46.3112    60.3420
         ROT.     0.1149D+06                  1102.8984     2.9808    26.1362
         INT.     0.8070D+12                 11838.4583    49.2920    86.4781
         TRA.     0.8830D+28                  1838.1639     4.9680    44.5414
         TOT.                     -204.376   13676.6222    54.2600   131.0195

 380.00  VIB.     0.1039D+08                 11200.6384    46.7015    61.5822
         ROT.     0.1196D+06                  1132.7064     2.9808    26.2156
         INT.     0.1244D+13                 12333.3448    49.6823    87.7979
         TRA.     0.9190D+28                  1887.8440     4.9680    44.6739
         TOT.                     -203.831   14221.1889    54.6503   132.4718

 390.00  VIB.     0.1533D+08                 11669.5313    47.0744    62.8002
         ROT.     0.1244D+06                  1162.5145     2.9808    26.2931
         INT.     0.1906D+13                 12832.0458    50.0552    89.0933
         TRA.     0.9555D+28                  1937.5242     4.9680    44.8029
         TOT.                     -203.283   14769.5700    55.0232   133.8962

 400.00  VIB.     0.2250D+08                 12142.0739    47.4316    63.9965
         ROT.     0.1292D+06                  1192.3226     2.9808    26.3685
         INT.     0.2907D+13                 13334.3965    50.4125    90.3651
         TRA.     0.9925D+28                  1987.2043     4.9680    44.9287
         TOT.                     -202.731   15321.6007    55.3805   135.2938

   *: NOTE: HEATS OF FORMATION ARE RELATIVE TO THE
            ELEMENTS IN THEIR STANDARD STATE AT 298K
              (=  Standard Enthalpy of Formation).

            Hvib:  Zero-point energy is not included.
                   frequencies of less than zero cm-1 are not included.
            Hrot = (3/2)RT
            Htra = (3/2)RT + pV = (5/2)RT

            Heat capacity is Cp, not Cv

          For more information, see: HTTP://OpenMOPAC.net/Manual/thermochemistry.html


           FORCE CONSTANT IN CARTESIAN COORDINATES (Millidynes/A)

    ATOM   CHEMICAL       X               Y               Z
   NUMBER   SYMBOL  FORCE CONSTANT  FORCE CONSTANT  FORCE CONSTANT

      1       C       18.327344        0.952094        0.952094
      2       W        7.165071        7.165071        7.165071
      3       C       18.327344        0.952094        0.952094
      4       C        0.952094       17.453501        1.825937
      5       C        0.952094       17.453501        1.825937
      6       C        0.952094        1.825937       17.453501
      7       C        0.952094        1.825937       17.453501
      8       O       16.560246        0.294554        0.294554
      9       O       16.560246        0.294554        0.294554
     10       O        0.294554       15.742206        1.112594
     11       O        0.294554       15.742206        1.112594
     12       O        0.294554        1.112594       15.742206
     13       O        0.294554        1.112594       15.742206

 **********************
 *                    *
 * JOB ENDED NORMALLY *
 *                    *
 **********************



 TOTAL JOB TIME:             2.01 SECONDS

 == MOPAC DONE ==
