
Running SCF calculation...
  Total energy: -227.711623 eV
  Fermi level: 6.823300 eV
