

 Parallel Execution: Process Information
 ==============================================================================
 Rank   Node Name                              NodeID   MyNodeRank  NodeMaster
    0   adf1                                      0          0          0
    1   adf1                                      0          1         -1
    2   adf1                                      0          2         -1
    3   adf1                                      0          3         -1
    4   adf1                                      0          4         -1
    5   adf1                                      0          5         -1
    6   adf1                                      1          0          1
    7   adf1                                      1          1         -1
    8   adf1                                      1          2         -1
    9   adf1                                      1          3         -1
   10   adf1                                      1          4         -1
   11   adf1                                      1          5         -1
 ==============================================================================


May use up to 11697MB of RAM as shared memory on node 0
May use up to 11718MB of RAM as shared memory on node 1

 *******************************************************************************
 *                                                                             *
 *  --------------------------------                                           *
 *   Amsterdam Modeling Suite (AMS)              2021.102                      *
 *  --------------------------------                                           *
 *                                               r95042 2021-06-07             *
 *                                                                             *
 *                                                                             *
 *                              =================                              *
 *                              |               |                              *
 *                              |     A M S     |                              *
 *                              |               |                              *
 *                              =================                              *
 *                                                                             *
 *                                                                             *
 *   Online information and documentation:  https://www.scm.com/support/       *
 *   E-mail:  support@scm.com   info@scm.com                                   *
 *                                                                             *
 *   Scientific publications using AMS results must be properly referenced     *
 *   See the User Manuals (or the web site) for recommended citations          *
 *   The terms and conditions of the End User License Agreement apply to       *
 *   the use of AMS, https://www.scm.com/license-terms/                        *
 *                                                                             *
 **********************  x86_64_linux_intel / intelmpi  ************************
 
 Licensed to: Dr. Miroslav Ilias / Matej Bel University, Department Chemistry, Fac. Natural Sciences / Banska Bystrica / SLOVAKIA
 SCM User ID: u17848
  
 AMS 2021.102  RunTime: Sep04-2021 23:06:47  ShM Nodes: 2  Procs: 12

 AMS jobname: ams
 AMS jobid  : 470496223

 Start   directory: /home/milias/Work/projects/open-collection/theoretical_chemistry/projects/nmr_diplomovky/derivaty_markerov/derivative_2/ams/nmr_opbe_tz2p-j_good_cosmo-chcl3/tmp.milias.31645.0.noindex/
 Results directory: /home/milias/Work/projects/open-collection/theoretical_chemistry/projects/nmr_diplomovky/derivaty_markerov/derivative_2/ams/nmr_opbe_tz2p-j_good_cosmo-chcl3/der2.nmr_opbe_tz2p-j_good_cosmo-chcl3.results/
 Scratch directory: /tmp/amstmp_ams_kid0.470496223/


 Communication costs MPI_COMM_WORLD:      2.924 usec per message,   0.0280 usec per 8-byte item
 Communication costs for intra-node:      1.617 usec per message,   0.0132 usec per 8-byte item

 RNG seed: -946914555 1474232240 885459635 -938861957 -143486039 1196580887 -248594616 -960735643



                     *************************************************************************
                     *  ADF 2021.102  RunTime: Sep04-2021 23:06:48  ShM Nodes: 2  Procs: 12  *
                     *************************************************************************
  
       ****************************
       * SINGLE POINT CALCULATION *
       ****************************
 
--------
Geometry
--------
Formula: C10H22NO3P
Atoms
  Index Symbol   x (angstrom)   y (angstrom)   z (angstrom)
      1      O     3.33471402     0.21565103     0.11749661       adf.R=1.517
      2      P     2.21400222    -0.20271444    -0.98809624       adf.R=1.850
      3      O     1.16984868     1.05136222    -1.03047996       adf.R=1.517
      4      O     1.26790132    -1.09018947     0.00342563       adf.R=1.517
      5      C     0.17926498     1.00949526     0.02924594       adf.R=1.700
      6      C    -0.04400182    -0.51881217     0.22525511       adf.R=1.700
      7      C     0.74552930     1.69946637     1.26119796       adf.R=1.700
      8      C    -1.04367505     1.75360229    -0.46462129       adf.R=1.700
      9      C    -0.98288353    -1.11967010    -0.80927893       adf.R=1.700
     10      C    -0.48538637    -0.90291107     1.62203456       adf.R=1.700
     11      H    -0.01841274     1.79254115     2.03413184       adf.R=1.350
     12      H     1.60130588     1.16437063     1.66867012       adf.R=1.350
     13      H     1.06998798     2.70259389     0.98202856       adf.R=1.350
     14      H    -1.37745740     1.38240307    -1.43177471       adf.R=1.350
     15      H    -1.86173404     1.65365811     0.25133651       adf.R=1.350
     16      H    -0.81074290     2.81442305    -0.56324076       adf.R=1.350
     17      H    -2.01338907    -0.80934133    -0.63482207       adf.R=1.350
     18      H    -0.69833032    -0.83145335    -1.82212814       adf.R=1.350
     19      H    -0.93607282    -2.20649581    -0.73545995       adf.R=1.350
     20      H    -1.43785267    -0.42615505     1.86145823       adf.R=1.350
     21      H    -0.62550736    -1.98288569     1.67819250       adf.R=1.350
     22      H     0.25005699    -0.61065253     2.36909428       adf.R=1.350
     23      C     4.63774897     0.58194162    -0.32770670       adf.R=1.700
     24      C     5.65433489    -0.07040938     0.58789572       adf.R=1.700
     25      N     7.01561814     0.31577739     0.27009454       adf.R=1.608
     26      C     7.32033531     1.66109149     0.71772196       adf.R=1.700
     27      H     7.76843470    -1.62709415     0.45338816       adf.R=1.350
     28      H     8.33973373     1.92086783     0.42911533       adf.R=1.350
     29      C     7.96347616    -0.62396861     0.83472374       adf.R=1.700
     30      H     4.79920356     0.25487698    -1.36007103       adf.R=1.350
     31      H     4.71598905     1.67070326    -0.30334134       adf.R=1.350
     32      H     5.56527313    -1.15278860     0.47271415       adf.R=1.350
     33      H     5.39643115     0.16408556     1.63530406       adf.R=1.350
     34      H     7.91771203    -0.65879143     1.93654498       adf.R=1.350
     35      H     7.23711196     1.76244028     1.81339960       adf.R=1.350
     36      H     6.65030600     2.38691335     0.25809086       adf.R=1.350
     37      H     8.97771098    -0.33998824     0.54964252       adf.R=1.350
 
Total System Charge             0.00000
Bonding info available!
 
 
----------------
ADF Engine Input
----------------
 
 Basis
 Type TZ2P-J
 Core None
 End
 Save TAPE10
 XC
 GGA OPBE
 End
 Relativity
 Level None
 End
 Symmetry NOSYM
 Solvation
 Surf Delley
 Solv name=Chloroform cav0=0.0 cav1=0.0067639
 Charged method=CONJ
 C-Mat POT
 SCF VAR ALL
 CSMRSP
 End
 NumericalQuality Good
 

 Title: *** (NO TITLE) ***

 *** adf ***



 ===========================
 A T T A C H E D   F I L E S
 ===========================
  



 ===============================
 M O D E L   P A R A M E T E R S
 ===============================
  
 DENSITY FUNCTIONAL POTENTIAL (scf)
    LDA:                               VWN                                      
    Gradient Corrections:              OPTX PBEc                               == Not Default ==

 SPIN  (restricted / unrestr.)
    Molecule:                          Restricted                               
    Fragments:                         Restricted                               

 OTHER ASPECTS
    Relativistic Corrections:          ---                                     == Not Default ==

    Nuclear Charge Density Model:      Point Charge Nuclei                      
    Core Treatment:                    Frozen Orbital(s)                        

    Hyperfine or Zeeman Interaction:   ---                                      

 SOLVATION
-------------------------------------------

  The Delley construction of COSMO surface surface is calculated

       Division Level for Surface Triangles (NDIV)                  3
       Final Division Level for Triangles (NFDIV)                   1
       Radius of the Solvent (RSOL)                           3.17000 angstr
  Dielectric Constant (EPSL)                                  4.80000

       COSMO equation is solved iteratively-               conjugate-gradient

       Maximun of Iterations for Charges (NCIX)                  1000
       Criterion for Charge convergence (CCNV)                1.0E-08

  COSMO charges included variationally in SCF

       COSMO included at every SCF cycle

  Geometry-dependent empirical factor                         0.00000

  C-Matrix calculated in cspmtx

  In cspmtx, C-Matrix calculated using fitted potential

-------------------------------------------



 Fragment File(s)
 ----------------
 O:
         file : /home/milias/Work/projects/open-collection/theoretical_chemistry/projects/nmr_diplomovky/derivaty_markerov/derivative_2/ams/nmr_opbe_tz2p-j_good_cosmo-chcl3/der2.nmr_opbe_tz2p-j_good_cosmo-chcl3.results/t21.4DC6E62A.O
         jobid: 0
         title: Oxygen (TZ2P-J)
 P:
         file : /home/milias/Work/projects/open-collection/theoretical_chemistry/projects/nmr_diplomovky/derivaty_markerov/derivative_2/ams/nmr_opbe_tz2p-j_good_cosmo-chcl3/der2.nmr_opbe_tz2p-j_good_cosmo-chcl3.results/t21.11A21DCE.P
         jobid: 0
         title: Phosphorus (TZ2P-J)
 C:
         file : /home/milias/Work/projects/open-collection/theoretical_chemistry/projects/nmr_diplomovky/derivaty_markerov/derivative_2/ams/nmr_opbe_tz2p-j_good_cosmo-chcl3/der2.nmr_opbe_tz2p-j_good_cosmo-chcl3.results/t21.401AE3AB.C
         jobid: 0
         title: Carbon (TZ2P-J)
 H:
         file : /home/milias/Work/projects/open-collection/theoretical_chemistry/projects/nmr_diplomovky/derivaty_markerov/derivative_2/ams/nmr_opbe_tz2p-j_good_cosmo-chcl3/der2.nmr_opbe_tz2p-j_good_cosmo-chcl3.results/t21.61D44761.H
         jobid: 0
         title: Hydrogen (TZ2P-J)
 N:
         file : /home/milias/Work/projects/open-collection/theoretical_chemistry/projects/nmr_diplomovky/derivaty_markerov/derivative_2/ams/nmr_opbe_tz2p-j_good_cosmo-chcl3/der2.nmr_opbe_tz2p-j_good_cosmo-chcl3.results/t21.3616BF3F.N
         jobid: 0
         title: Nitrogen (TZ2P-J)



 ===============
 G E O M E T R Y  ***  3D  Molecule  ***
 ===============
  

 ATOMS
 =====                            X Y Z                    CHARGE                     RADIUS
                                (Angstrom)             Nucl     +Core       At.Mass (Angstrom)
                       --------------------------    ----------------       ------- ----------
    1  O               3.3347    0.2157    0.1175      8.00      8.00       15.9949    1.5170
    2  P               2.2140   -0.2027   -0.9881     15.00     15.00       30.9738    1.8500
    3  O               1.1698    1.0514   -1.0305      8.00      8.00       15.9949    1.5170
    4  O               1.2679   -1.0902    0.0034      8.00      8.00       15.9949    1.5170
    5  C               0.1793    1.0095    0.0292      6.00      6.00       12.0000    1.7000
    6  C              -0.0440   -0.5188    0.2253      6.00      6.00       12.0000    1.7000
    7  C               0.7455    1.6995    1.2612      6.00      6.00       12.0000    1.7000
    8  C              -1.0437    1.7536   -0.4646      6.00      6.00       12.0000    1.7000
    9  C              -0.9829   -1.1197   -0.8093      6.00      6.00       12.0000    1.7000
   10  C              -0.4854   -0.9029    1.6220      6.00      6.00       12.0000    1.7000
   11  H              -0.0184    1.7925    2.0341      1.00      1.00        1.0078    1.3500
   12  H               1.6013    1.1644    1.6687      1.00      1.00        1.0078    1.3500
   13  H               1.0700    2.7026    0.9820      1.00      1.00        1.0078    1.3500
   14  H              -1.3775    1.3824   -1.4318      1.00      1.00        1.0078    1.3500
   15  H              -1.8617    1.6537    0.2513      1.00      1.00        1.0078    1.3500
   16  H              -0.8107    2.8144   -0.5632      1.00      1.00        1.0078    1.3500
   17  H              -2.0134   -0.8093   -0.6348      1.00      1.00        1.0078    1.3500
   18  H              -0.6983   -0.8315   -1.8221      1.00      1.00        1.0078    1.3500
   19  H              -0.9361   -2.2065   -0.7355      1.00      1.00        1.0078    1.3500
   20  H              -1.4379   -0.4262    1.8615      1.00      1.00        1.0078    1.3500
   21  H              -0.6255   -1.9829    1.6782      1.00      1.00        1.0078    1.3500
   22  H               0.2501   -0.6107    2.3691      1.00      1.00        1.0078    1.3500
   23  C               4.6377    0.5819   -0.3277      6.00      6.00       12.0000    1.7000
   24  C               5.6543   -0.0704    0.5879      6.00      6.00       12.0000    1.7000
   25  N               7.0156    0.3158    0.2701      7.00      7.00       14.0031    1.6080
   26  C               7.3203    1.6611    0.7177      6.00      6.00       12.0000    1.7000
   27  H               7.7684   -1.6271    0.4534      1.00      1.00        1.0078    1.3500
   28  H               8.3397    1.9209    0.4291      1.00      1.00        1.0078    1.3500
   29  C               7.9635   -0.6240    0.8347      6.00      6.00       12.0000    1.7000
   30  H               4.7992    0.2549   -1.3601      1.00      1.00        1.0078    1.3500
   31  H               4.7160    1.6707   -0.3033      1.00      1.00        1.0078    1.3500
   32  H               5.5653   -1.1528    0.4727      1.00      1.00        1.0078    1.3500
   33  H               5.3964    0.1641    1.6353      1.00      1.00        1.0078    1.3500
   34  H               7.9177   -0.6588    1.9365      1.00      1.00        1.0078    1.3500
   35  H               7.2371    1.7624    1.8134      1.00      1.00        1.0078    1.3500
   36  H               6.6503    2.3869    0.2581      1.00      1.00        1.0078    1.3500
   37  H               8.9777   -0.3400    0.5496      1.00      1.00        1.0078    1.3500


 FRAGMENTS
 =========                                     Atoms in this Fragment     Cart. coord.s (Angstrom)
                                               -------------------------------------------------------
    1  O                                                 1  O            3.3347    0.2157    0.1175
    2  O                                                 3  O            1.1698    1.0514   -1.0305
    3  O                                                 4  O            1.2679   -1.0902    0.0034
    4  P                                                 2  P            2.2140   -0.2027   -0.9881
    5  C                                                 5  C            0.1793    1.0095    0.0292
    6  C                                                 6  C           -0.0440   -0.5188    0.2253
    7  C                                                 7  C            0.7455    1.6995    1.2612
    8  C                                                 8  C           -1.0437    1.7536   -0.4646
    9  C                                                 9  C           -0.9829   -1.1197   -0.8093
   10  C                                                10  C           -0.4854   -0.9029    1.6220
   11  C                                                23  C            4.6377    0.5819   -0.3277
   12  C                                                24  C            5.6543   -0.0704    0.5879
   13  C                                                26  C            7.3203    1.6611    0.7177
   14  C                                                29  C            7.9635   -0.6240    0.8347
   15  H                                                11  H           -0.0184    1.7925    2.0341
   16  H                                                12  H            1.6013    1.1644    1.6687
   17  H                                                13  H            1.0700    2.7026    0.9820
   18  H                                                14  H           -1.3775    1.3824   -1.4318
   19  H                                                15  H           -1.8617    1.6537    0.2513
   20  H                                                16  H           -0.8107    2.8144   -0.5632
   21  H                                                17  H           -2.0134   -0.8093   -0.6348
   22  H                                                18  H           -0.6983   -0.8315   -1.8221
   23  H                                                19  H           -0.9361   -2.2065   -0.7355
   24  H                                                20  H           -1.4379   -0.4262    1.8615
   25  H                                                21  H           -0.6255   -1.9829    1.6782
   26  H                                                22  H            0.2501   -0.6107    2.3691
   27  H                                                27  H            7.7684   -1.6271    0.4534
   28  H                                                28  H            8.3397    1.9209    0.4291
   29  H                                                30  H            4.7992    0.2549   -1.3601
   30  H                                                31  H            4.7160    1.6707   -0.3033
   31  H                                                32  H            5.5653   -1.1528    0.4727
   32  H                                                33  H            5.3964    0.1641    1.6353
   33  H                                                34  H            7.9177   -0.6588    1.9365
   34  H                                                35  H            7.2371    1.7624    1.8134
   35  H                                                36  H            6.6503    2.3869    0.2581
   36  H                                                37  H            8.9777   -0.3400    0.5496
   37  N                                                25  N            7.0156    0.3158    0.2701



 =====================================
 S Y M M E T R Y ,   E L E C T R O N S
 =====================================
  
 Symmetry: NOSYM

 Irreducible Representations, including subspecies
 -------------------------------------------------
 A


 Configuration of Valence Electrons
 ==================================
 ( determined in the SCF procedure )

 Total:   128

 Net Charge: 0 (Nuclei minus Electrons)

 Aufbau principle for MO occupations will be applied through SCF cycle no.     150
 Thereafter, the program will assign electrons to MOs that are spatially
 similar to the occupied MOs in a "reference" cycle ("KeepOrbitals").
 The reference cycle is always the PREVIOUS cycle: it will evolve with
 the SCF procedure.
1
 ***************************************************************************************************



                                      ****************************************
                                      *  B U I L D : (Fragments, Functions)  *
                                      ****************************************
  



 =======
 S F O s  ***  (Symmetrized Fragment Orbitals)  ***
 =======
  
 SFOs are linear combinations of (valence) Fragment Orbitals (FOs), such that the SFOs transform as the
 irreducible representations of the (molecular) symmetry group. Each SFO is therefore characterized by
 an irrep of the molecule and by a few (or only one) generating FOs.
 The SFOs constitute a symmetry-adapted basis for the Fock matrix. The MO eigenvector coefficients in
 this basis provide a direct interpretation of the MOs in terms of Frontier Orbital Theory.

 The SFOs are combined with auxiliary Core Functions (CFs) to ensure orthogonalization on the (frozen)
 Core Orbitals (COs). The Core-orthogonalized SFOs (CSFOs) constitute the true Fock basis.

 The FOs, and hence also the (C)SFOs are combinations of the elementary basis functions (BAS). The basis
 functions that participate in the description of the SFOs depend on the irrep. The indices of the
 involved functions are printed below for each irrep.
 (The complete list of primitive basis functions is printed in another section)

 Total nr. of (C)SFOs (summation over all irreps) :   833

 NOTE: a (C)SFO that is defined as a combination of more than one FO is usually NOT normalized.



                                       === A ===
 Nr. of SFOs :  833
 Cartesian basis functions that participate in this irrep (total number =   915) :
      1     2     3     4     5     6     7     8     9    10
     13    16    19    11    14    17    20    12    15    18
     21    22    23    24    25    26    27    28    29    30
     31    32    33    34    35    36    37    38    39    40
     41    42    43    44    45    46    47    50    53    56
     48    51    54    57    49    52    55    58    59    60
     61    62    63    64    65    66    67    68    69    70
     71    72    73    74    75    76    77    78    79    80
     81    82    83    84    87    90    93    85    88    91
     94    86    89    92    95    96    97    98    99   100
    101   102   103   104   105   106   107   108   109   110
    111   112   113   114   115   116   117   118   119   129
    130   131   120   123   126   132   135   138   121   124
    127   133   136   139   122   125   128   134   137   140
    141   142   143   144   145   146   147   148   149   150
    151   152   153   154   155   156   157   158   159   160
    161   162   163   164   165   166   169   172   175   167
    170   173   176   168   171   174   177   178   179   180
    181   182   183   184   185   186   187   188   189   190
    191   192   193   194   195   196   197   198   199   200
    201   202   203   206   209   212   204   207   210   213
    205   208   211   214   215   216   217   218   219   220
    221   222   223   224   225   226   227   228   229   230
    231   232   233   234   235   236   237   238   239   240
    243   246   249   241   244   247   250   242   245   248
    251   252   253   254   255   256   257   258   259   260
    261   262   263   264   265   266   267   268   269   270
    271   272   273   274   275   276   277   280   283   286
    278   281   284   287   279   282   285   288   289   290
    291   292   293   294   295   296   297   298   299   300
    301   302   303   304   305   306   307   308   309   310
    311   312   313   314   317   320   323   315   318   321
    324   316   319   322   325   326   327   328   329   330
    331   332   333   334   335   336   337   338   339   340
    341   342   343   344   345   346   347   348   349   350
    351   354   357   360   352   355   358   361   353   356
    359   362   363   364   365   366   367   368   369   370
    371   372   373   374   375   376   377   378   379   380
    381   382   383   384   385   386   387   388   391   394
    397   389   392   395   398   390   393   396   399   400
    401   402   403   404   405   406   407   408   409   410
    411   412   413   414   415   416   417   418   419   420
    421   422   423   424   425   428   431   434   426   429
    432   435   427   430   433   436   437   438   439   440
    441   442   443   444   445   446   447   448   449   450
    451   452   453   454   455   456   457   458   459   460
    461   462   465   468   471   463   466   469   472   464
    467   470   473   474   475   476   477   478   479   480
    481   482   483   484   485   486   487   488   489   490
    491   492   493   494   495   496   497   498   499   502
    505   508   500   503   506   509   501   504   507   510
    511   512   513   514   515   516   517   518   519   520
    521   522   523   524   525   526   527   528   529   530
    531   532   533   534   535   536   537   538   539   540
    541   542   543   544   545   546   547   548   549   550
    551   552   553   554   555   556   557   558   559   560
    561   562   563   564   565   566   567   568   569   570
    571   572   573   574   575   576   577   578   579   580
    581   582   583   584   585   586   587   588   589   590
    591   592   593   594   595   596   597   598   599   600
    601   602   603   604   605   606   607   608   609   610
    611   612   613   614   615   616   617   618   619   620
    621   622   623   624   625   626   627   628   629   630
    631   632   633   634   635   636   637   638   639   640
    641   642   643   644   645   646   647   648   649   650
    651   652   653   654   655   656   657   658   659   660
    661   662   663   664   665   666   667   668   669   670
    671   672   673   674   675   676   677   678   679   680
    681   682   683   684   685   686   687   688   689   690
    691   692   693   694   695   696   697   698   699   700
    701   702   703   704   705   706   707   708   709   710
    711   712   713   714   715   716   717   718   719   720
    721   722   723   724   725   726   727   728   729   730
    731   732   733   734   735   736   737   738   739   740
    741   742   743   744   745   746   747   748   749   750
    751   752   753   754   755   756   757   758   759   760
    761   762   763   764   765   766   767   768   769   770
    771   772   773   774   775   776   777   778   779   780
    781   782   783   784   785   786   787   788   789   790
    791   792   793   794   795   796   797   798   799   800
    801   802   803   804   805   806   807   808   809   810
    811   812   813   814   815   816   817   818   819   820
    821   822   823   824   825   826   827   828   829   830
    831   832   833   834   835   836   837   838   839   840
    841   842   843   844   845   846   847   848   849   850
    851   852   853   854   855   856   857   858   859   860
    861   862   863   864   865   866   867   868   869   870
    871   872   873   874   875   876   877   878   879   880
    881   882   883   884   885   886   887   888   891   894
    897   889   892   895   898   890   893   896   899   900
    901   902   903   904   905   906   907   908   909   910
    911   912   913   914   915

    SFO  (index         Fragment          Generating    Expansion in Fragment Orbitals
  indx  incl.CFs)   Occup   Orb.Energy   FragmentType  Coeff.   Orbital     on Fragment
 --------------------------------------------------------------------------------------
     1       1      2.000     -18.893 au  O             1.00      1 S               1
                        (    -514.113 eV)
     2       2      2.000      -0.889 au  O             1.00      2 S               1
                        (     -24.185 eV)
     3       3       --         0.742 au  O             1.00      3 S               1
                        (      20.197 eV)
     4       4       --         9.224 au  O             1.00      4 S               1
                        (     251.010 eV)
     5       5       --        47.532 au  O             1.00      5 S               1
                        (    1293.419 eV)
     6       6       --       212.438 au  O             1.00      6 S               1
                        (    5780.720 eV)
     7       7       --      1271.753 au  O             1.00      7 S               1
                        (   34606.147 eV)
     8       8       --     14992.289 au  O             1.00      8 S               1
                        (  407960.936 eV)
     9       9       --    372064.755 au  O             1.00      9 S               1
                        (10124397.116 eV)
    10      10      1.333      -0.328 au  O             1.00      1 P:x             1
                        (      -8.935 eV)
    11      11       --         0.352 au  O             1.00      2 P:x             1
                        (       9.565 eV)
    12      12       --         3.470 au  O             1.00      3 P:x             1
                        (      94.414 eV)
    13      13       --        37.352 au  O             1.00      4 P:x             1
                        (    1016.405 eV)
    14      14      1.333      -0.328 au  O             1.00      1 P:y             1
                        (      -8.935 eV)
    15      15       --         0.352 au  O             1.00      2 P:y             1
                        (       9.565 eV)
    16      16       --         3.470 au  O             1.00      3 P:y             1
                        (      94.414 eV)
    17      17       --        37.352 au  O             1.00      4 P:y             1
                        (    1016.405 eV)
    18      18      1.333      -0.328 au  O             1.00      1 P:z             1
                        (      -8.935 eV)
    19      19       --         0.352 au  O             1.00      2 P:z             1
                        (       9.565 eV)
    20      20       --         3.470 au  O             1.00      3 P:z             1
                        (      94.414 eV)
    21      21       --        37.352 au  O             1.00      4 P:z             1
                        (    1016.405 eV)
    22      22       --         1.070 au  O             1.00      1 D:z2            1
                        (      29.124 eV)
    23      23       --         1.070 au  O             1.00      1 D:x2-y2         1
                        (      29.124 eV)
    24      24       --         1.070 au  O             1.00      1 D:xy            1
                        (      29.124 eV)
    25      25       --         1.070 au  O             1.00      1 D:xz            1
                        (      29.124 eV)
    26      26       --         1.070 au  O             1.00      1 D:yz            1
                        (      29.124 eV)
    27      27       --         3.346 au  O             1.00      1 F:z3            1
                        (      91.061 eV)
    28      28       --         3.346 au  O             1.00      1 F:z             1
                        (      91.061 eV)
    29      29       --         3.346 au  O             1.00      1 F:xyz           1
                        (      91.061 eV)
    30      30       --         3.346 au  O             1.00      1 F:z2x           1
                        (      91.061 eV)
    31      31       --         3.346 au  O             1.00      1 F:z2y           1
                        (      91.061 eV)
    32      32       --         3.346 au  O             1.00      1 F:x             1
                        (      91.061 eV)
    33      33       --         3.346 au  O             1.00      1 F:y             1
                        (      91.061 eV)
    34      34      2.000     -18.893 au  O             1.00      1 S               2
                        (    -514.113 eV)
    35      35      2.000      -0.889 au  O             1.00      2 S               2
                        (     -24.185 eV)
    36      36       --         0.742 au  O             1.00      3 S               2
                        (      20.197 eV)
    37      37       --         9.224 au  O             1.00      4 S               2
                        (     251.010 eV)
    38      38       --        47.532 au  O             1.00      5 S               2
                        (    1293.419 eV)
    39      39       --       212.438 au  O             1.00      6 S               2
                        (    5780.720 eV)
    40      40       --      1271.753 au  O             1.00      7 S               2
                        (   34606.147 eV)
    41      41       --     14992.289 au  O             1.00      8 S               2
                        (  407960.936 eV)
    42      42       --    372064.755 au  O             1.00      9 S               2
                        (10124397.116 eV)
    43      43      1.333      -0.328 au  O             1.00      1 P:x             2
                        (      -8.935 eV)
    44      44       --         0.352 au  O             1.00      2 P:x             2
                        (       9.565 eV)
    45      45       --         3.470 au  O             1.00      3 P:x             2
                        (      94.414 eV)
    46      46       --        37.352 au  O             1.00      4 P:x             2
                        (    1016.405 eV)
    47      47      1.333      -0.328 au  O             1.00      1 P:y             2
                        (      -8.935 eV)
    48      48       --         0.352 au  O             1.00      2 P:y             2
                        (       9.565 eV)
    49      49       --         3.470 au  O             1.00      3 P:y             2
                        (      94.414 eV)
    50      50       --        37.352 au  O             1.00      4 P:y             2
                        (    1016.405 eV)
    51      51      1.333      -0.328 au  O             1.00      1 P:z             2
                        (      -8.935 eV)
    52      52       --         0.352 au  O             1.00      2 P:z             2
                        (       9.565 eV)
    53      53       --         3.470 au  O             1.00      3 P:z             2
                        (      94.414 eV)
    54      54       --        37.352 au  O             1.00      4 P:z             2
                        (    1016.405 eV)
    55      55       --         1.070 au  O             1.00      1 D:z2            2
                        (      29.124 eV)
    56      56       --         1.070 au  O             1.00      1 D:x2-y2         2
                        (      29.124 eV)
    57      57       --         1.070 au  O             1.00      1 D:xy            2
                        (      29.124 eV)
    58      58       --         1.070 au  O             1.00      1 D:xz            2
                        (      29.124 eV)
    59      59       --         1.070 au  O             1.00      1 D:yz            2
                        (      29.124 eV)
    60      60       --         3.346 au  O             1.00      1 F:z3            2
                        (      91.061 eV)
    61      61       --         3.346 au  O             1.00      1 F:z             2
                        (      91.061 eV)
    62      62       --         3.346 au  O             1.00      1 F:xyz           2
                        (      91.061 eV)
    63      63       --         3.346 au  O             1.00      1 F:z2x           2
                        (      91.061 eV)
    64      64       --         3.346 au  O             1.00      1 F:z2y           2
                        (      91.061 eV)
    65      65       --         3.346 au  O             1.00      1 F:x             2
                        (      91.061 eV)
    66      66       --         3.346 au  O             1.00      1 F:y             2
                        (      91.061 eV)
    67      67      2.000     -18.893 au  O             1.00      1 S               3
                        (    -514.113 eV)
    68      68      2.000      -0.889 au  O             1.00      2 S               3
                        (     -24.185 eV)
    69      69       --         0.742 au  O             1.00      3 S               3
                        (      20.197 eV)
    70      70       --         9.224 au  O             1.00      4 S               3
                        (     251.010 eV)
    71      71       --        47.532 au  O             1.00      5 S               3
                        (    1293.419 eV)
    72      72       --       212.438 au  O             1.00      6 S               3
                        (    5780.720 eV)
    73      73       --      1271.753 au  O             1.00      7 S               3
                        (   34606.147 eV)
    74      74       --     14992.289 au  O             1.00      8 S               3
                        (  407960.936 eV)
    75      75       --    372064.755 au  O             1.00      9 S               3
                        (10124397.116 eV)
    76      76      1.333      -0.328 au  O             1.00      1 P:x             3
                        (      -8.935 eV)
    77      77       --         0.352 au  O             1.00      2 P:x             3
                        (       9.565 eV)
    78      78       --         3.470 au  O             1.00      3 P:x             3
                        (      94.414 eV)
    79      79       --        37.352 au  O             1.00      4 P:x             3
                        (    1016.405 eV)
    80      80      1.333      -0.328 au  O             1.00      1 P:y             3
                        (      -8.935 eV)
    81      81       --         0.352 au  O             1.00      2 P:y             3
                        (       9.565 eV)
    82      82       --         3.470 au  O             1.00      3 P:y             3
                        (      94.414 eV)
    83      83       --        37.352 au  O             1.00      4 P:y             3
                        (    1016.405 eV)
    84      84      1.333      -0.328 au  O             1.00      1 P:z             3
                        (      -8.935 eV)
    85      85       --         0.352 au  O             1.00      2 P:z             3
                        (       9.565 eV)
    86      86       --         3.470 au  O             1.00      3 P:z             3
                        (      94.414 eV)
    87      87       --        37.352 au  O             1.00      4 P:z             3
                        (    1016.405 eV)
    88      88       --         1.070 au  O             1.00      1 D:z2            3
                        (      29.124 eV)
    89      89       --         1.070 au  O             1.00      1 D:x2-y2         3
                        (      29.124 eV)
    90      90       --         1.070 au  O             1.00      1 D:xy            3
                        (      29.124 eV)
    91      91       --         1.070 au  O             1.00      1 D:xz            3
                        (      29.124 eV)
    92      92       --         1.070 au  O             1.00      1 D:yz            3
                        (      29.124 eV)
    93      93       --         3.346 au  O             1.00      1 F:z3            3
                        (      91.061 eV)
    94      94       --         3.346 au  O             1.00      1 F:z             3
                        (      91.061 eV)
    95      95       --         3.346 au  O             1.00      1 F:xyz           3
                        (      91.061 eV)
    96      96       --         3.346 au  O             1.00      1 F:z2x           3
                        (      91.061 eV)
    97      97       --         3.346 au  O             1.00      1 F:z2y           3
                        (      91.061 eV)
    98      98       --         3.346 au  O             1.00      1 F:x             3
                        (      91.061 eV)
    99      99       --         3.346 au  O             1.00      1 F:y             3
                        (      91.061 eV)
   100     100      2.000     -76.338 au  P             1.00      1 S               4
                        (   -2077.266 eV)
   101     101      2.000      -6.405 au  P             1.00      2 S               4
                        (    -174.300 eV)
   102     102      2.000      -0.512 au  P             1.00      3 S               4
                        (     -13.925 eV)
   103     103       --         0.126 au  P             1.00      4 S               4
                        (       3.441 eV)
   104     104       --         1.313 au  P             1.00      5 S               4
                        (      35.717 eV)
   105     105       --         8.272 au  P             1.00      6 S               4
                        (     225.083 eV)
   106     106       --        72.361 au  P             1.00      7 S               4
                        (    1969.036 eV)
   107     107       --       489.568 au  P             1.00      8 S               4
                        (   13321.833 eV)
   108     108       --      3735.677 au  P             1.00      9 S               4
                        (  101652.956 eV)
   109     109       --     50530.643 au  P             1.00     10 S               4
                        ( 1375008.754 eV)
   110     110       --   1301295.342 au  P             1.00     11 S               4
                        (35410047.923 eV)
   111     111      2.000      -4.608 au  P             1.00      1 P:x             4
                        (    -125.385 eV)
   112     112      1.000      -0.204 au  P             1.00      2 P:x             4
                        (      -5.540 eV)
   113     113       --         0.085 au  P             1.00      3 P:x             4
                        (       2.324 eV)
   114     114       --         0.871 au  P             1.00      4 P:x             4
                        (      23.698 eV)
   115     115       --         9.178 au  P             1.00      5 P:x             4
                        (     249.742 eV)
   116     116       --       120.128 au  P             1.00      6 P:x             4
                        (    3268.845 eV)
   117     117      2.000      -4.608 au  P             1.00      1 P:y             4
                        (    -125.385 eV)
   118     118      1.000      -0.204 au  P             1.00      2 P:y             4
                        (      -5.540 eV)
   119     119       --         0.085 au  P             1.00      3 P:y             4
                        (       2.324 eV)
   120     120       --         0.871 au  P             1.00      4 P:y             4
                        (      23.698 eV)
   121     121       --         9.178 au  P             1.00      5 P:y             4
                        (     249.742 eV)
   122     122       --       120.128 au  P             1.00      6 P:y             4
                        (    3268.845 eV)
   123     123      2.000      -4.608 au  P             1.00      1 P:z             4
                        (    -125.385 eV)
   124     124      1.000      -0.204 au  P             1.00      2 P:z             4
                        (      -5.540 eV)
   125     125       --         0.085 au  P             1.00      3 P:z             4
                        (       2.324 eV)
   126     126       --         0.871 au  P             1.00      4 P:z             4
                        (      23.698 eV)
   127     127       --         9.178 au  P             1.00      5 P:z             4
                        (     249.742 eV)
   128     128       --       120.128 au  P             1.00      6 P:z             4
                        (    3268.845 eV)
   129     129       --         0.386 au  P             1.00      1 D:z2            4
                        (      10.507 eV)
   130     130       --         0.386 au  P             1.00      1 D:x2-y2         4
                        (      10.507 eV)
   131     131       --         0.386 au  P             1.00      1 D:xy            4
                        (      10.507 eV)
   132     132       --         0.386 au  P             1.00      1 D:xz            4
                        (      10.507 eV)
   133     133       --         0.386 au  P             1.00      1 D:yz            4
                        (      10.507 eV)
   134     134       --         1.145 au  P             1.00      1 F:z3            4
                        (      31.166 eV)
   135     135       --         1.145 au  P             1.00      1 F:z             4
                        (      31.166 eV)
   136     136       --         1.145 au  P             1.00      1 F:xyz           4
                        (      31.166 eV)
   137     137       --         1.145 au  P             1.00      1 F:z2x           4
                        (      31.166 eV)
   138     138       --         1.145 au  P             1.00      1 F:z2y           4
                        (      31.166 eV)
   139     139       --         1.145 au  P             1.00      1 F:x             4
                        (      31.166 eV)
   140     140       --         1.145 au  P             1.00      1 F:y             4
                        (      31.166 eV)
   141     141      2.000     -10.048 au  C             1.00      1 S               5
                        (    -273.419 eV)
   142     142      2.000      -0.511 au  C             1.00      2 S               5
                        (     -13.915 eV)
   143     143       --         0.351 au  C             1.00      3 S               5
                        (       9.550 eV)
   144     144       --         3.932 au  C             1.00      4 S               5
                        (     106.999 eV)
   145     145       --        20.688 au  C             1.00      5 S               5
                        (     562.952 eV)
   146     146       --       100.878 au  C             1.00      6 S               5
                        (    2745.027 eV)
   147     147       --       658.821 au  C             1.00      7 S               5
                        (   17927.439 eV)
   148     148       --      8261.941 au  C             1.00      8 S               5
                        (  224818.865 eV)
   149     149       --    208750.841 au  C             1.00      9 S               5
                        ( 5680399.409 eV)
   150     150      0.667      -0.189 au  C             1.00      1 P:x             5
                        (      -5.156 eV)
   151     151       --         0.170 au  C             1.00      2 P:x             5
                        (       4.639 eV)
   152     152       --         1.899 au  C             1.00      3 P:x             5
                        (      51.666 eV)
   153     153       --        22.303 au  C             1.00      4 P:x             5
                        (     606.894 eV)
   154     154      0.667      -0.189 au  C             1.00      1 P:y             5
                        (      -5.156 eV)
   155     155       --         0.170 au  C             1.00      2 P:y             5
                        (       4.639 eV)
   156     156       --         1.899 au  C             1.00      3 P:y             5
                        (      51.666 eV)
   157     157       --        22.303 au  C             1.00      4 P:y             5
                        (     606.894 eV)
   158     158      0.667      -0.189 au  C             1.00      1 P:z             5
                        (      -5.156 eV)
   159     159       --         0.170 au  C             1.00      2 P:z             5
                        (       4.639 eV)
   160     160       --         1.899 au  C             1.00      3 P:z             5
                        (      51.666 eV)
   161     161       --        22.303 au  C             1.00      4 P:z             5
                        (     606.894 eV)
   162     162       --         1.228 au  C             1.00      1 D:z2            5
                        (      33.426 eV)
   163     163       --         1.228 au  C             1.00      1 D:x2-y2         5
                        (      33.426 eV)
   164     164       --         1.228 au  C             1.00      1 D:xy            5
                        (      33.426 eV)
   165     165       --         1.228 au  C             1.00      1 D:xz            5
                        (      33.426 eV)
   166     166       --         1.228 au  C             1.00      1 D:yz            5
                        (      33.426 eV)
   167     167       --         3.999 au  C             1.00      1 F:z3            5
                        (     108.830 eV)
   168     168       --         3.999 au  C             1.00      1 F:z             5
                        (     108.830 eV)
   169     169       --         3.999 au  C             1.00      1 F:xyz           5
                        (     108.830 eV)
   170     170       --         3.999 au  C             1.00      1 F:z2x           5
                        (     108.830 eV)
   171     171       --         3.999 au  C             1.00      1 F:z2y           5
                        (     108.830 eV)
   172     172       --         3.999 au  C             1.00      1 F:x             5
                        (     108.830 eV)
   173     173       --         3.999 au  C             1.00      1 F:y             5
                        (     108.830 eV)
   174     174      2.000     -10.048 au  C             1.00      1 S               6
                        (    -273.419 eV)
   175     175      2.000      -0.511 au  C             1.00      2 S               6
                        (     -13.915 eV)
   176     176       --         0.351 au  C             1.00      3 S               6
                        (       9.550 eV)
   177     177       --         3.932 au  C             1.00      4 S               6
                        (     106.999 eV)
   178     178       --        20.688 au  C             1.00      5 S               6
                        (     562.952 eV)
   179     179       --       100.878 au  C             1.00      6 S               6
                        (    2745.027 eV)
   180     180       --       658.821 au  C             1.00      7 S               6
                        (   17927.439 eV)
   181     181       --      8261.941 au  C             1.00      8 S               6
                        (  224818.865 eV)
   182     182       --    208750.841 au  C             1.00      9 S               6
                        ( 5680399.409 eV)
   183     183      0.667      -0.189 au  C             1.00      1 P:x             6
                        (      -5.156 eV)
   184     184       --         0.170 au  C             1.00      2 P:x             6
                        (       4.639 eV)
   185     185       --         1.899 au  C             1.00      3 P:x             6
                        (      51.666 eV)
   186     186       --        22.303 au  C             1.00      4 P:x             6
                        (     606.894 eV)
   187     187      0.667      -0.189 au  C             1.00      1 P:y             6
                        (      -5.156 eV)
   188     188       --         0.170 au  C             1.00      2 P:y             6
                        (       4.639 eV)
   189     189       --         1.899 au  C             1.00      3 P:y             6
                        (      51.666 eV)
   190     190       --        22.303 au  C             1.00      4 P:y             6
                        (     606.894 eV)
   191     191      0.667      -0.189 au  C             1.00      1 P:z             6
                        (      -5.156 eV)
   192     192       --         0.170 au  C             1.00      2 P:z             6
                        (       4.639 eV)
   193     193       --         1.899 au  C             1.00      3 P:z             6
                        (      51.666 eV)
   194     194       --        22.303 au  C             1.00      4 P:z             6
                        (     606.894 eV)
   195     195       --         1.228 au  C             1.00      1 D:z2            6
                        (      33.426 eV)
   196     196       --         1.228 au  C             1.00      1 D:x2-y2         6
                        (      33.426 eV)
   197     197       --         1.228 au  C             1.00      1 D:xy            6
                        (      33.426 eV)
   198     198       --         1.228 au  C             1.00      1 D:xz            6
                        (      33.426 eV)
   199     199       --         1.228 au  C             1.00      1 D:yz            6
                        (      33.426 eV)
   200     200       --         3.999 au  C             1.00      1 F:z3            6
                        (     108.830 eV)
   201     201       --         3.999 au  C             1.00      1 F:z             6
                        (     108.830 eV)
   202     202       --         3.999 au  C             1.00      1 F:xyz           6
                        (     108.830 eV)
   203     203       --         3.999 au  C             1.00      1 F:z2x           6
                        (     108.830 eV)
   204     204       --         3.999 au  C             1.00      1 F:z2y           6
                        (     108.830 eV)
   205     205       --         3.999 au  C             1.00      1 F:x             6
                        (     108.830 eV)
   206     206       --         3.999 au  C             1.00      1 F:y             6
                        (     108.830 eV)
   207     207      2.000     -10.048 au  C             1.00      1 S               7
                        (    -273.419 eV)
   208     208      2.000      -0.511 au  C             1.00      2 S               7
                        (     -13.915 eV)
   209     209       --         0.351 au  C             1.00      3 S               7
                        (       9.550 eV)
   210     210       --         3.932 au  C             1.00      4 S               7
                        (     106.999 eV)
   211     211       --        20.688 au  C             1.00      5 S               7
                        (     562.952 eV)
   212     212       --       100.878 au  C             1.00      6 S               7
                        (    2745.027 eV)
   213     213       --       658.821 au  C             1.00      7 S               7
                        (   17927.439 eV)
   214     214       --      8261.941 au  C             1.00      8 S               7
                        (  224818.865 eV)
   215     215       --    208750.841 au  C             1.00      9 S               7
                        ( 5680399.409 eV)
   216     216      0.667      -0.189 au  C             1.00      1 P:x             7
                        (      -5.156 eV)
   217     217       --         0.170 au  C             1.00      2 P:x             7
                        (       4.639 eV)
   218     218       --         1.899 au  C             1.00      3 P:x             7
                        (      51.666 eV)
   219     219       --        22.303 au  C             1.00      4 P:x             7
                        (     606.894 eV)
   220     220      0.667      -0.189 au  C             1.00      1 P:y             7
                        (      -5.156 eV)
   221     221       --         0.170 au  C             1.00      2 P:y             7
                        (       4.639 eV)
   222     222       --         1.899 au  C             1.00      3 P:y             7
                        (      51.666 eV)
   223     223       --        22.303 au  C             1.00      4 P:y             7
                        (     606.894 eV)
   224     224      0.667      -0.189 au  C             1.00      1 P:z             7
                        (      -5.156 eV)
   225     225       --         0.170 au  C             1.00      2 P:z             7
                        (       4.639 eV)
   226     226       --         1.899 au  C             1.00      3 P:z             7
                        (      51.666 eV)
   227     227       --        22.303 au  C             1.00      4 P:z             7
                        (     606.894 eV)
   228     228       --         1.228 au  C             1.00      1 D:z2            7
                        (      33.426 eV)
   229     229       --         1.228 au  C             1.00      1 D:x2-y2         7
                        (      33.426 eV)
   230     230       --         1.228 au  C             1.00      1 D:xy            7
                        (      33.426 eV)
   231     231       --         1.228 au  C             1.00      1 D:xz            7
                        (      33.426 eV)
   232     232       --         1.228 au  C             1.00      1 D:yz            7
                        (      33.426 eV)
   233     233       --         3.999 au  C             1.00      1 F:z3            7
                        (     108.830 eV)
   234     234       --         3.999 au  C             1.00      1 F:z             7
                        (     108.830 eV)
   235     235       --         3.999 au  C             1.00      1 F:xyz           7
                        (     108.830 eV)
   236     236       --         3.999 au  C             1.00      1 F:z2x           7
                        (     108.830 eV)
   237     237       --         3.999 au  C             1.00      1 F:z2y           7
                        (     108.830 eV)
   238     238       --         3.999 au  C             1.00      1 F:x             7
                        (     108.830 eV)
   239     239       --         3.999 au  C             1.00      1 F:y             7
                        (     108.830 eV)
   240     240      2.000     -10.048 au  C             1.00      1 S               8
                        (    -273.419 eV)
   241     241      2.000      -0.511 au  C             1.00      2 S               8
                        (     -13.915 eV)
   242     242       --         0.351 au  C             1.00      3 S               8
                        (       9.550 eV)
   243     243       --         3.932 au  C             1.00      4 S               8
                        (     106.999 eV)
   244     244       --        20.688 au  C             1.00      5 S               8
                        (     562.952 eV)
   245     245       --       100.878 au  C             1.00      6 S               8
                        (    2745.027 eV)
   246     246       --       658.821 au  C             1.00      7 S               8
                        (   17927.439 eV)
   247     247       --      8261.941 au  C             1.00      8 S               8
                        (  224818.865 eV)
   248     248       --    208750.841 au  C             1.00      9 S               8
                        ( 5680399.409 eV)
   249     249      0.667      -0.189 au  C             1.00      1 P:x             8
                        (      -5.156 eV)
   250     250       --         0.170 au  C             1.00      2 P:x             8
                        (       4.639 eV)
   251     251       --         1.899 au  C             1.00      3 P:x             8
                        (      51.666 eV)
   252     252       --        22.303 au  C             1.00      4 P:x             8
                        (     606.894 eV)
   253     253      0.667      -0.189 au  C             1.00      1 P:y             8
                        (      -5.156 eV)
   254     254       --         0.170 au  C             1.00      2 P:y             8
                        (       4.639 eV)
   255     255       --         1.899 au  C             1.00      3 P:y             8
                        (      51.666 eV)
   256     256       --        22.303 au  C             1.00      4 P:y             8
                        (     606.894 eV)
   257     257      0.667      -0.189 au  C             1.00      1 P:z             8
                        (      -5.156 eV)
   258     258       --         0.170 au  C             1.00      2 P:z             8
                        (       4.639 eV)
   259     259       --         1.899 au  C             1.00      3 P:z             8
                        (      51.666 eV)
   260     260       --        22.303 au  C             1.00      4 P:z             8
                        (     606.894 eV)
   261     261       --         1.228 au  C             1.00      1 D:z2            8
                        (      33.426 eV)
   262     262       --         1.228 au  C             1.00      1 D:x2-y2         8
                        (      33.426 eV)
   263     263       --         1.228 au  C             1.00      1 D:xy            8
                        (      33.426 eV)
   264     264       --         1.228 au  C             1.00      1 D:xz            8
                        (      33.426 eV)
   265     265       --         1.228 au  C             1.00      1 D:yz            8
                        (      33.426 eV)
   266     266       --         3.999 au  C             1.00      1 F:z3            8
                        (     108.830 eV)
   267     267       --         3.999 au  C             1.00      1 F:z             8
                        (     108.830 eV)
   268     268       --         3.999 au  C             1.00      1 F:xyz           8
                        (     108.830 eV)
   269     269       --         3.999 au  C             1.00      1 F:z2x           8
                        (     108.830 eV)
   270     270       --         3.999 au  C             1.00      1 F:z2y           8
                        (     108.830 eV)
   271     271       --         3.999 au  C             1.00      1 F:x             8
                        (     108.830 eV)
   272     272       --         3.999 au  C             1.00      1 F:y             8
                        (     108.830 eV)
   273     273      2.000     -10.048 au  C             1.00      1 S               9
                        (    -273.419 eV)
   274     274      2.000      -0.511 au  C             1.00      2 S               9
                        (     -13.915 eV)
   275     275       --         0.351 au  C             1.00      3 S               9
                        (       9.550 eV)
   276     276       --         3.932 au  C             1.00      4 S               9
                        (     106.999 eV)
   277     277       --        20.688 au  C             1.00      5 S               9
                        (     562.952 eV)
   278     278       --       100.878 au  C             1.00      6 S               9
                        (    2745.027 eV)
   279     279       --       658.821 au  C             1.00      7 S               9
                        (   17927.439 eV)
   280     280       --      8261.941 au  C             1.00      8 S               9
                        (  224818.865 eV)
   281     281       --    208750.841 au  C             1.00      9 S               9
                        ( 5680399.409 eV)
   282     282      0.667      -0.189 au  C             1.00      1 P:x             9
                        (      -5.156 eV)
   283     283       --         0.170 au  C             1.00      2 P:x             9
                        (       4.639 eV)
   284     284       --         1.899 au  C             1.00      3 P:x             9
                        (      51.666 eV)
   285     285       --        22.303 au  C             1.00      4 P:x             9
                        (     606.894 eV)
   286     286      0.667      -0.189 au  C             1.00      1 P:y             9
                        (      -5.156 eV)
   287     287       --         0.170 au  C             1.00      2 P:y             9
                        (       4.639 eV)
   288     288       --         1.899 au  C             1.00      3 P:y             9
                        (      51.666 eV)
   289     289       --        22.303 au  C             1.00      4 P:y             9
                        (     606.894 eV)
   290     290      0.667      -0.189 au  C             1.00      1 P:z             9
                        (      -5.156 eV)
   291     291       --         0.170 au  C             1.00      2 P:z             9
                        (       4.639 eV)
   292     292       --         1.899 au  C             1.00      3 P:z             9
                        (      51.666 eV)
   293     293       --        22.303 au  C             1.00      4 P:z             9
                        (     606.894 eV)
   294     294       --         1.228 au  C             1.00      1 D:z2            9
                        (      33.426 eV)
   295     295       --         1.228 au  C             1.00      1 D:x2-y2         9
                        (      33.426 eV)
   296     296       --         1.228 au  C             1.00      1 D:xy            9
                        (      33.426 eV)
   297     297       --         1.228 au  C             1.00      1 D:xz            9
                        (      33.426 eV)
   298     298       --         1.228 au  C             1.00      1 D:yz            9
                        (      33.426 eV)
   299     299       --         3.999 au  C             1.00      1 F:z3            9
                        (     108.830 eV)
   300     300       --         3.999 au  C             1.00      1 F:z             9
                        (     108.830 eV)
   301     301       --         3.999 au  C             1.00      1 F:xyz           9
                        (     108.830 eV)
   302     302       --         3.999 au  C             1.00      1 F:z2x           9
                        (     108.830 eV)
   303     303       --         3.999 au  C             1.00      1 F:z2y           9
                        (     108.830 eV)
   304     304       --         3.999 au  C             1.00      1 F:x             9
                        (     108.830 eV)
   305     305       --         3.999 au  C             1.00      1 F:y             9
                        (     108.830 eV)
   306     306      2.000     -10.048 au  C             1.00      1 S              10
                        (    -273.419 eV)
   307     307      2.000      -0.511 au  C             1.00      2 S              10
                        (     -13.915 eV)
   308     308       --         0.351 au  C             1.00      3 S              10
                        (       9.550 eV)
   309     309       --         3.932 au  C             1.00      4 S              10
                        (     106.999 eV)
   310     310       --        20.688 au  C             1.00      5 S              10
                        (     562.952 eV)
   311     311       --       100.878 au  C             1.00      6 S              10
                        (    2745.027 eV)
   312     312       --       658.821 au  C             1.00      7 S              10
                        (   17927.439 eV)
   313     313       --      8261.941 au  C             1.00      8 S              10
                        (  224818.865 eV)
   314     314       --    208750.841 au  C             1.00      9 S              10
                        ( 5680399.409 eV)
   315     315      0.667      -0.189 au  C             1.00      1 P:x            10
                        (      -5.156 eV)
   316     316       --         0.170 au  C             1.00      2 P:x            10
                        (       4.639 eV)
   317     317       --         1.899 au  C             1.00      3 P:x            10
                        (      51.666 eV)
   318     318       --        22.303 au  C             1.00      4 P:x            10
                        (     606.894 eV)
   319     319      0.667      -0.189 au  C             1.00      1 P:y            10
                        (      -5.156 eV)
   320     320       --         0.170 au  C             1.00      2 P:y            10
                        (       4.639 eV)
   321     321       --         1.899 au  C             1.00      3 P:y            10
                        (      51.666 eV)
   322     322       --        22.303 au  C             1.00      4 P:y            10
                        (     606.894 eV)
   323     323      0.667      -0.189 au  C             1.00      1 P:z            10
                        (      -5.156 eV)
   324     324       --         0.170 au  C             1.00      2 P:z            10
                        (       4.639 eV)
   325     325       --         1.899 au  C             1.00      3 P:z            10
                        (      51.666 eV)
   326     326       --        22.303 au  C             1.00      4 P:z            10
                        (     606.894 eV)
   327     327       --         1.228 au  C             1.00      1 D:z2           10
                        (      33.426 eV)
   328     328       --         1.228 au  C             1.00      1 D:x2-y2        10
                        (      33.426 eV)
   329     329       --         1.228 au  C             1.00      1 D:xy           10
                        (      33.426 eV)
   330     330       --         1.228 au  C             1.00      1 D:xz           10
                        (      33.426 eV)
   331     331       --         1.228 au  C             1.00      1 D:yz           10
                        (      33.426 eV)
   332     332       --         3.999 au  C             1.00      1 F:z3           10
                        (     108.830 eV)
   333     333       --         3.999 au  C             1.00      1 F:z            10
                        (     108.830 eV)
   334     334       --         3.999 au  C             1.00      1 F:xyz          10
                        (     108.830 eV)
   335     335       --         3.999 au  C             1.00      1 F:z2x          10
                        (     108.830 eV)
   336     336       --         3.999 au  C             1.00      1 F:z2y          10
                        (     108.830 eV)
   337     337       --         3.999 au  C             1.00      1 F:x            10
                        (     108.830 eV)
   338     338       --         3.999 au  C             1.00      1 F:y            10
                        (     108.830 eV)
   339     339      2.000     -10.048 au  C             1.00      1 S              11
                        (    -273.419 eV)
   340     340      2.000      -0.511 au  C             1.00      2 S              11
                        (     -13.915 eV)
   341     341       --         0.351 au  C             1.00      3 S              11
                        (       9.550 eV)
   342     342       --         3.932 au  C             1.00      4 S              11
                        (     106.999 eV)
   343     343       --        20.688 au  C             1.00      5 S              11
                        (     562.952 eV)
   344     344       --       100.878 au  C             1.00      6 S              11
                        (    2745.027 eV)
   345     345       --       658.821 au  C             1.00      7 S              11
                        (   17927.439 eV)
   346     346       --      8261.941 au  C             1.00      8 S              11
                        (  224818.865 eV)
   347     347       --    208750.841 au  C             1.00      9 S              11
                        ( 5680399.409 eV)
   348     348      0.667      -0.189 au  C             1.00      1 P:x            11
                        (      -5.156 eV)
   349     349       --         0.170 au  C             1.00      2 P:x            11
                        (       4.639 eV)
   350     350       --         1.899 au  C             1.00      3 P:x            11
                        (      51.666 eV)
   351     351       --        22.303 au  C             1.00      4 P:x            11
                        (     606.894 eV)
   352     352      0.667      -0.189 au  C             1.00      1 P:y            11
                        (      -5.156 eV)
   353     353       --         0.170 au  C             1.00      2 P:y            11
                        (       4.639 eV)
   354     354       --         1.899 au  C             1.00      3 P:y            11
                        (      51.666 eV)
   355     355       --        22.303 au  C             1.00      4 P:y            11
                        (     606.894 eV)
   356     356      0.667      -0.189 au  C             1.00      1 P:z            11
                        (      -5.156 eV)
   357     357       --         0.170 au  C             1.00      2 P:z            11
                        (       4.639 eV)
   358     358       --         1.899 au  C             1.00      3 P:z            11
                        (      51.666 eV)
   359     359       --        22.303 au  C             1.00      4 P:z            11
                        (     606.894 eV)
   360     360       --         1.228 au  C             1.00      1 D:z2           11
                        (      33.426 eV)
   361     361       --         1.228 au  C             1.00      1 D:x2-y2        11
                        (      33.426 eV)
   362     362       --         1.228 au  C             1.00      1 D:xy           11
                        (      33.426 eV)
   363     363       --         1.228 au  C             1.00      1 D:xz           11
                        (      33.426 eV)
   364     364       --         1.228 au  C             1.00      1 D:yz           11
                        (      33.426 eV)
   365     365       --         3.999 au  C             1.00      1 F:z3           11
                        (     108.830 eV)
   366     366       --         3.999 au  C             1.00      1 F:z            11
                        (     108.830 eV)
   367     367       --         3.999 au  C             1.00      1 F:xyz          11
                        (     108.830 eV)
   368     368       --         3.999 au  C             1.00      1 F:z2x          11
                        (     108.830 eV)
   369     369       --         3.999 au  C             1.00      1 F:z2y          11
                        (     108.830 eV)
   370     370       --         3.999 au  C             1.00      1 F:x            11
                        (     108.830 eV)
   371     371       --         3.999 au  C             1.00      1 F:y            11
                        (     108.830 eV)
   372     372      2.000     -10.048 au  C             1.00      1 S              12
                        (    -273.419 eV)
   373     373      2.000      -0.511 au  C             1.00      2 S              12
                        (     -13.915 eV)
   374     374       --         0.351 au  C             1.00      3 S              12
                        (       9.550 eV)
   375     375       --         3.932 au  C             1.00      4 S              12
                        (     106.999 eV)
   376     376       --        20.688 au  C             1.00      5 S              12
                        (     562.952 eV)
   377     377       --       100.878 au  C             1.00      6 S              12
                        (    2745.027 eV)
   378     378       --       658.821 au  C             1.00      7 S              12
                        (   17927.439 eV)
   379     379       --      8261.941 au  C             1.00      8 S              12
                        (  224818.865 eV)
   380     380       --    208750.841 au  C             1.00      9 S              12
                        ( 5680399.409 eV)
   381     381      0.667      -0.189 au  C             1.00      1 P:x            12
                        (      -5.156 eV)
   382     382       --         0.170 au  C             1.00      2 P:x            12
                        (       4.639 eV)
   383     383       --         1.899 au  C             1.00      3 P:x            12
                        (      51.666 eV)
   384     384       --        22.303 au  C             1.00      4 P:x            12
                        (     606.894 eV)
   385     385      0.667      -0.189 au  C             1.00      1 P:y            12
                        (      -5.156 eV)
   386     386       --         0.170 au  C             1.00      2 P:y            12
                        (       4.639 eV)
   387     387       --         1.899 au  C             1.00      3 P:y            12
                        (      51.666 eV)
   388     388       --        22.303 au  C             1.00      4 P:y            12
                        (     606.894 eV)
   389     389      0.667      -0.189 au  C             1.00      1 P:z            12
                        (      -5.156 eV)
   390     390       --         0.170 au  C             1.00      2 P:z            12
                        (       4.639 eV)
   391     391       --         1.899 au  C             1.00      3 P:z            12
                        (      51.666 eV)
   392     392       --        22.303 au  C             1.00      4 P:z            12
                        (     606.894 eV)
   393     393       --         1.228 au  C             1.00      1 D:z2           12
                        (      33.426 eV)
   394     394       --         1.228 au  C             1.00      1 D:x2-y2        12
                        (      33.426 eV)
   395     395       --         1.228 au  C             1.00      1 D:xy           12
                        (      33.426 eV)
   396     396       --         1.228 au  C             1.00      1 D:xz           12
                        (      33.426 eV)
   397     397       --         1.228 au  C             1.00      1 D:yz           12
                        (      33.426 eV)
   398     398       --         3.999 au  C             1.00      1 F:z3           12
                        (     108.830 eV)
   399     399       --         3.999 au  C             1.00      1 F:z            12
                        (     108.830 eV)
   400     400       --         3.999 au  C             1.00      1 F:xyz          12
                        (     108.830 eV)
   401     401       --         3.999 au  C             1.00      1 F:z2x          12
                        (     108.830 eV)
   402     402       --         3.999 au  C             1.00      1 F:z2y          12
                        (     108.830 eV)
   403     403       --         3.999 au  C             1.00      1 F:x            12
                        (     108.830 eV)
   404     404       --         3.999 au  C             1.00      1 F:y            12
                        (     108.830 eV)
   405     405      2.000     -10.048 au  C             1.00      1 S              13
                        (    -273.419 eV)
   406     406      2.000      -0.511 au  C             1.00      2 S              13
                        (     -13.915 eV)
   407     407       --         0.351 au  C             1.00      3 S              13
                        (       9.550 eV)
   408     408       --         3.932 au  C             1.00      4 S              13
                        (     106.999 eV)
   409     409       --        20.688 au  C             1.00      5 S              13
[...]

 hello from rdinp, dbg=            0
   
   
  ****************************************  
     *************************************  
     **                                 **  
     **     ######  ######   ##         **  
     **    #######  ##   ##  ##         **  
     **   ##        ######   ##         **  
     **   ##        ##       ##         **  
     **    #######  ##       #######    **  
     **     ######  ##       #######    **  
     **                                 **  
     *************************************  
  ****************************************  
   
  CPL was written by                  
   
  Jochen Autschbach               
  SUNY Buffalo                  
   
  Original development of CPL took     
  place in the research group of       
  Tom Ziegler                 
  University of Calgary          
  Alberta, Canada              
   
  Further developments done by 
  JA's research group at SUNY Buffalo 
   
  Please cite this work using       
  some or all of Refs. [1-4]        
   
  Refs. [1,2]: original implementation    
  Ref. [3]: NBO analysis, 
  Ref. [4]: hybrid functionals and rewrite
  Recommended references: [2,4]       
   
  Nonrelativistic code for the       
  DSO term and a few other things     
  based on the Dickson & Ziegler      
  program, Refs. [5,6]            
   
  References: 
  =========== 
   
  [1] J. Autschbach and T. Ziegler,      
      J. Chem. Phys. 113 (2000), 936     
   
  [2] J. Autschbach and T. Ziegler,      
      J. Chem. Phys. 113 (2000), 9410    
   
  [3] J. Autschbach,                     
      J. Chem. Phys. 128 (2008), 164112  
   
  [4] J. Autschbach,                     
      J. Chem. Phys. 129 (2008), 094105  
   
  [5] R. M. Dickson and T. Ziegler,      
      J. Phys. Chem. 100 (1996), 5286    
   
  [6] J. Khandogin and T. Ziegler,       
      Spectrochim. Acta A55 (1999), 607  
   
  ****************************************  
   



                                        ***********************************
                                        *   J O B  I N F O R M A T I O N  *
                                        ***********************************
  



 ===============================
 General information from TAPE21
 ===============================
  
  TITLE:      *** adf ***                                       
 JOB ID:       470496223
  NONLXC:     OPTX PBEc                                         
  SYMMETRY:   NOSYM                                             
   
  IOPREL:       0
  ------>     non-rel. (Re MOs)



 ==========================================
 Nuclear Coordinates and internal numbering
 ==========================================
  
  O  (  1):       3.3347      0.2157      0.1175
  O  (  2):       1.1698      1.0514     -1.0305
  O  (  3):       1.2679     -1.0902      0.0034
  P  (  4):       2.2140     -0.2027     -0.9881
  C  (  5):       0.1793      1.0095      0.0292
  C  (  6):      -0.0440     -0.5188      0.2253
  C  (  7):       0.7455      1.6995      1.2612
  C  (  8):      -1.0437      1.7536     -0.4646
  C  (  9):      -0.9829     -1.1197     -0.8093
  C  ( 10):      -0.4854     -0.9029      1.6220
  C  ( 11):       4.6377      0.5819     -0.3277
  C  ( 12):       5.6543     -0.0704      0.5879
  C  ( 13):       7.3203      1.6611      0.7177
  C  ( 14):       7.9635     -0.6240      0.8347
  H  ( 15):      -0.0184      1.7925      2.0341
  H  ( 16):       1.6013      1.1644      1.6687
  H  ( 17):       1.0700      2.7026      0.9820
  H  ( 18):      -1.3775      1.3824     -1.4318
  H  ( 19):      -1.8617      1.6537      0.2513
  H  ( 20):      -0.8107      2.8144     -0.5632
  H  ( 21):      -2.0134     -0.8093     -0.6348
  H  ( 22):      -0.6983     -0.8315     -1.8221
  H  ( 23):      -0.9361     -2.2065     -0.7355
  H  ( 24):      -1.4379     -0.4262      1.8615
  H  ( 25):      -0.6255     -1.9829      1.6782
  H  ( 26):       0.2501     -0.6107      2.3691
  H  ( 27):       7.7684     -1.6271      0.4534
  H  ( 28):       8.3397      1.9209      0.4291
  H  ( 29):       4.7992      0.2549     -1.3601
  H  ( 30):       4.7160      1.6707     -0.3033
  H  ( 31):       5.5653     -1.1528      0.4727
  H  ( 32):       5.3964      0.1641      1.6353
  H  ( 33):       7.9177     -0.6588      1.9365
  H  ( 34):       7.2371      1.7624      1.8134
  H  ( 35):       6.6503      2.3869      0.2581
  H  ( 36):       8.9777     -0.3400      0.5496
  N  ( 37):       7.0156      0.3158      0.2701



 =======
 Numbers
 =======
  
  number of valence electrons:    128.00
 
  ---   AOs   ---          ---   MOs   ---
  ncor =      0            nocc =     64
  nval =    915            nvir =    769
  nbas =    915            nmo  =    833
  naos =    915            nsot =    833



 ===================
 Fragments and Basis
 ===================
  
   
  --------------------------
  ATOM TYPE:  O                                                 
  --------------------------
  === BASIS
    1S  800.00     VALENCE
    1S  160.00     VALENCE
    1S   40.00     VALENCE
    1S   16.00     VALENCE
    1S    9.80     VALENCE
    1S    6.80     VALENCE
    2S    7.58     VALENCE
    2S    2.88     VALENCE
    2S    1.72     VALENCE
    2P    9.80     VALENCE
    2P    4.08     VALENCE
    2P    2.08     VALENCE
    2P    1.12     VALENCE
    3D    2.00     VALENCE
    4F    3.00     VALENCE
   
  --------------------------
  ATOM TYPE:  P                                                 
  --------------------------
  === BASIS
    1S 1500.00     VALENCE
    1S  300.00     VALENCE
    1S   75.00     VALENCE
    1S   30.00     VALENCE
    1S   18.00     VALENCE
    1S   13.35     VALENCE
    2S    5.60     VALENCE
    2S    4.05     VALENCE
    2P   18.00     VALENCE
    2P    7.45     VALENCE
    2P    4.10     VALENCE
    3S    2.70     VALENCE
    3S    1.85     VALENCE
    3S    1.30     VALENCE
    3P    2.30     VALENCE
    3P    1.35     VALENCE
    3P    0.85     VALENCE
    3D    1.90     VALENCE
    4F    2.00     VALENCE
   
  --------------------------
  ATOM TYPE:  C                                                 
  --------------------------
  === BASIS
    1S  600.00     VALENCE
    1S  120.00     VALENCE
    1S   30.00     VALENCE
    1S   12.00     VALENCE
    1S    7.68     VALENCE
    1S    5.00     VALENCE
    2S    1.28     VALENCE
    2S    2.10     VALENCE
    2S    4.60     VALENCE
    2P    7.68     VALENCE
    2P    0.82     VALENCE
    2P    1.48     VALENCE
    2P    2.94     VALENCE
    3D    2.20     VALENCE
    4F    3.30     VALENCE
   
  --------------------------
  ATOM TYPE:  H                                                 
  --------------------------
  === BASIS
    1S  100.00     VALENCE
    1S   25.00     VALENCE
    1S    7.50     VALENCE
    1S    3.00     VALENCE
    1S    0.69     VALENCE
    1S    0.92     VALENCE
    1S    1.58     VALENCE
    2P    1.25     VALENCE
    3D    2.50     VALENCE
   
  --------------------------
  ATOM TYPE:  N                                                 
  --------------------------
  === BASIS
    1S  700.00     VALENCE
    1S  140.00     VALENCE
    1S   35.00     VALENCE
    1S   14.00     VALENCE
    1S    8.74     VALENCE
    1S    5.90     VALENCE
    2S    5.15     VALENCE
    2S    2.50     VALENCE
    2S    1.50     VALENCE
    2P    8.74     VALENCE
    2P    3.68     VALENCE
    2P    1.88     VALENCE
    2P    1.00     VALENCE
    3D    2.20     VALENCE
    4F    3.30     VALENCE



 =================================
 TAPE10 info, TAPE21 compatibility
 =================================
  
  ---> TAPE10 will be created by CPL
 
  ---> TAPE21 present
 
  ---> Potential is already on TAPE10.
       It will not be re-calculated.



 ==========================================
 Settings for the NMR couplings computation
 ==========================================
  
  Compute...
  FC  Term    YES             (*     default *)
  SD  Term     NO             (*     default *)
  PSO Term     NO             (*     default *)
  DSO Term     NO             (*     default *)
 
  Max. no. of SCF iterations:                25
  Convergence criterion for SCF cycle:       0.000100000

  Nuclei numbering in the output refers to the
  INTERNAL atom ordering of ADF.
  This ordering is usually different from the order
  that has been specified in the ADF input that pro-
  duced the TAPE21 being used here.



 ===========================
 L I N E A R   S C A L I N G
 ===========================
  

 Overlap cut-off criterion AO matrix elements:     0.1000000000E-07





                                  ***********************************************
                                  *  NMR spin spin coupling tensor calculation  *
                                  ***********************************************
  

 Nuclear magnetogyric ratios / 1E7 radians/(s T):
 O  (  1):    -3.628
 O  (  2):    -3.628
 O  (  3):    -3.628
 P  (  4):    10.841
 C  (  5):     6.728
 C  (  6):     6.728
 C  (  7):     6.728
 C  (  8):     6.728
 C  (  9):     6.728
 C  ( 10):     6.728
 C  ( 11):     6.728
 C  ( 12):     6.728
 C  ( 13):     6.728
 C  ( 14):     6.728
 H  ( 15):    26.752
 H  ( 16):    26.752
 H  ( 17):    26.752
 H  ( 18):    26.752
 H  ( 19):    26.752
 H  ( 20):    26.752
 H  ( 21):    26.752
 H  ( 22):    26.752
 H  ( 23):    26.752
 H  ( 24):    26.752
 H  ( 25):    26.752
 H  ( 26):    26.752
 H  ( 27):    26.752
 H  ( 28):    26.752
 H  ( 29):    26.752
 H  ( 30):    26.752
 H  ( 31):    26.752
 H  ( 32):    26.752
 H  ( 33):    26.752
 H  ( 34):    26.752
 H  ( 35):    26.752
 H  ( 36):    26.752
 N  ( 37):     1.934

 Performing the following coupling computations:
 Nucleus   4 (P ) perturbing 
          11 (C ) responding
          29 (H ) responding
          30 (H ) responding



 =============================================
 Computation for perturbing ADF-GUI atom: P(2)
 =============================================
  
 
 *** running FC calculation
     computing
     ... matrix elements for perturbing nucleus   4
     ... matrix elements for responding nucleus  11
     ... matrix elements for responding nucleus  29
     ... matrix elements for responding nucleus  30
     ... ZSO / Fermi contact coupling constant(s) 



 ===================================
 CPKS routine for spin-spin coupling  ***  Version 05/08 (scalar)  ***
 ===================================
  
 Using new AO based algorithms for CPKS
    running CPKS for TRIPLET Operator
    using first order VWN potential for LDA perturbation
    Will use LDA kernel
 
 iter.  1 V(1) measure  0.5005368513058E+00
 iter.  2 V(1) measure  0.7769830122861E+00
        2        delta  0.2764461609803E+00
 iter.  3 V(1) measure  0.7785414830524E+00
        3        delta  0.1558470766339E-02
 iter.  4 V(1) measure  0.7785507563613E+00
        4        delta  0.9273308858360E-05
 *** convergence reached



                                                *******************
                                                *  R E S U L T S  *
                                                *******************
  



 ========================================
  Nucleus 4 (P) perturbing nucleus 11 (C)
 ========================================
  
 Internal CPL numbering of atoms:  P(4) perturbing  C(11)
 ADF-GUI atoms:  P(2) perturbing  C(23)
  
 ---------------------------------
   Cartesian Axis Representation  
 ---------------------------------

 ----- k (10^19 kg m-2 s-2 A-2) ----         ------------- j (hz) -------------

 fermi-contact contribution:             
  isotropic    k=      22.242                              j=      27.230
      22.242       0.000       0.000             27.230       0.000       0.000
       0.000      22.242       0.000              0.000      27.230       0.000
       0.000       0.000      22.242              0.000       0.000      27.230

 total calculated spin-spin coupling:    
  isotropic    k=      22.242                              j=      27.230
      22.242       0.000       0.000             27.230       0.000       0.000
       0.000      22.242       0.000              0.000      27.230       0.000
       0.000       0.000      22.242              0.000       0.000      27.230
 
 ---------------------------------
   Principal Axis Representation  
 ---------------------------------

 ----- k (10^19 kg m-2 s-2 A-2) ----         ------------- j (hz) -------------

 fermi-contact contribution:             
  isotropic    k=      22.242                              j=      27.230
      22.242       0.000       0.000             27.230       0.000       0.000
       0.000      22.242       0.000              0.000      27.230       0.000
       0.000       0.000      22.242              0.000       0.000      27.230

 total calculated spin-spin coupling:    
  isotropic    k=      22.242                              j=      27.230
      22.242       0.000       0.000             27.230       0.000       0.000
       0.000      22.242       0.000              0.000      27.230       0.000
       0.000       0.000      22.242              0.000       0.000      27.230
 
 Principal Axis System (u,v,w) expressed in Cartesians:
 (taken as eigenvectors of the symmetric part of the coupling tensor,
  sorted in ascending order of eigenvalues = principal values)
        u         v         w
        1.000     0.000     0.000
        0.000     1.000     0.000
        0.000     0.000     1.000



 ========================================
  Nucleus 4 (P) perturbing nucleus 29 (H)
 ========================================
  
 Internal CPL numbering of atoms:  P(4) perturbing  H(29)
 ADF-GUI atoms:  P(2) perturbing  H(30)
  
 ---------------------------------
   Cartesian Axis Representation  
 ---------------------------------

 ----- k (10^19 kg m-2 s-2 A-2) ----         ------------- j (hz) -------------

 fermi-contact contribution:             
  isotropic    k=       2.475                              j=      12.048
       2.475       0.000       0.000             12.048       0.000       0.000
       0.000       2.475       0.000              0.000      12.048       0.000
       0.000       0.000       2.475              0.000       0.000      12.048

 total calculated spin-spin coupling:    
  isotropic    k=       2.475                              j=      12.048
       2.475       0.000       0.000             12.048       0.000       0.000
       0.000       2.475       0.000              0.000      12.048       0.000
       0.000       0.000       2.475              0.000       0.000      12.048
 
 ---------------------------------
   Principal Axis Representation  
 ---------------------------------

 ----- k (10^19 kg m-2 s-2 A-2) ----         ------------- j (hz) -------------

 fermi-contact contribution:             
  isotropic    k=       2.475                              j=      12.048
       2.475       0.000       0.000             12.048       0.000       0.000
       0.000       2.475       0.000              0.000      12.048       0.000
       0.000       0.000       2.475              0.000       0.000      12.048

 total calculated spin-spin coupling:    
  isotropic    k=       2.475                              j=      12.048
       2.475       0.000       0.000             12.048       0.000       0.000
       0.000       2.475       0.000              0.000      12.048       0.000
       0.000       0.000       2.475              0.000       0.000      12.048
 
 Principal Axis System (u,v,w) expressed in Cartesians:
 (taken as eigenvectors of the symmetric part of the coupling tensor,
  sorted in ascending order of eigenvalues = principal values)
        u         v         w
        1.000     0.000     0.000
        0.000     1.000     0.000
        0.000     0.000     1.000



 ========================================
  Nucleus 4 (P) perturbing nucleus 30 (H)
 ========================================
  
 Internal CPL numbering of atoms:  P(4) perturbing  H(30)
 ADF-GUI atoms:  P(2) perturbing  H(31)
  
 ---------------------------------
   Cartesian Axis Representation  
 ---------------------------------

 ----- k (10^19 kg m-2 s-2 A-2) ----         ------------- j (hz) -------------

 fermi-contact contribution:             
  isotropic    k=       0.038                              j=       0.184
       0.038       0.000       0.000              0.184       0.000       0.000
       0.000       0.038       0.000              0.000       0.184       0.000
       0.000       0.000       0.038              0.000       0.000       0.184

 total calculated spin-spin coupling:    
  isotropic    k=       0.038                              j=       0.184
       0.038       0.000       0.000              0.184       0.000       0.000
       0.000       0.038       0.000              0.000       0.184       0.000
       0.000       0.000       0.038              0.000       0.000       0.184
 
 ---------------------------------
   Principal Axis Representation  
 ---------------------------------

 ----- k (10^19 kg m-2 s-2 A-2) ----         ------------- j (hz) -------------

 fermi-contact contribution:             
  isotropic    k=       0.038                              j=       0.184
       0.038       0.000       0.000              0.184       0.000       0.000
       0.000       0.038       0.000              0.000       0.184       0.000
       0.000       0.000       0.038              0.000       0.000       0.184

 total calculated spin-spin coupling:    
  isotropic    k=       0.038                              j=       0.184
       0.038       0.000       0.000              0.184       0.000       0.000
       0.000       0.038       0.000              0.000       0.184       0.000
       0.000       0.000       0.038              0.000       0.000       0.184
 
 Principal Axis System (u,v,w) expressed in Cartesians:
 (taken as eigenvectors of the symmetric part of the coupling tensor,
  sorted in ascending order of eigenvalues = principal values)
        u         v         w
        1.000     0.000     0.000
        0.000     1.000     0.000
        0.000     0.000     1.000
 *******************************************************************************

                             N M R   E X I T
 NORMAL TERMINATION



 =================
 Timing Statistics
 =================
  
 Total Used :                     CPU=      200.10      System=        1.13     Elapsed=      206.65

 Calls  Section                     ( Mean, Percentage )
 ---------------------------------------------------------------------------------------------------
     3  ><      ................      0.00    0.00             0.00    0.18             0.00    0.00
     1  GENPT   ................      2.05    1.03             0.22   19.50             2.28    1.10
     4  CALFC   ................     28.40   56.76             0.13   46.44            29.30   56.71
     1  FCPT1   ................     84.45   42.20             0.38   33.17            87.15   42.17
     1  FCCPL   ................      0.00    0.00             0.00    0.00             0.00    0.00
     1  JCOUPL  ................      0.00    0.00             0.00    0.00             0.00    0.00
     1  EXIT PROCEDURE .........      0.00    0.00             0.01    0.71             0.01    0.00


 Currently Open Files (EXIT00)
 ====================

 Unit    Access Format  Status   Type       Ident (file)
 -------------------------------------------------------
   3      SEQ    FORM   TRANSP  NORMAL      LOGFILE
                                          ( /home/milias/Work/projects/open-collection/theoretical_chemistry/projects/nmr_diplomovky/derivaty_markerov/derivative_2/ams/nmr_opbe_tz2p-j_good_cosmo-chcl3/der2.nmr_opbe_tz2p-j_good_cosmo-chcl3.logfile )
