 *******************************************************************************
 **                                                                           **
 **                              MOPAC v23.1.2                                **
 **                                                                           **
 *******************************************************************************
 **          Digital Object Identifier (DOI): 10.5281/zenodo.6511958          **
 **    Visit the DOI location for information on how to cite this program.    **
 *******************************************************************************

                              PM6-D3 CALCULATION RESULTS

 *******************************************************************************
 *  CALCULATION DONE: (MAX THREADS = 12)             Wed Sep  3 11:35:28 2025  *
 *  PM6-D3     - CORRECT DISPERSION USING GRIMME's D3 METHOD
 *  SINGLET    - SPIN STATE DEFINED AS A SINGLET
 *
 *
 *
 *                 CHARGE ON SYSTEM = 0
 *
 *
 *
 *  PRECISE    - TIGHTER CRITERIA TO BE USED
 *  T=         - A TIME OF 172800.0 SECONDS REQUESTED
 *  DUMP=N     - RESTART FILE WRITTEN EVERY 7200.0 SECONDS REQUESTED
 *  AUX        - OUTPUT AUXILIARY INFORMATION
 *  LARGE      - EXPANDED OUTPUT TO BE PRINTED
 *******************************************************************************
 AUX LARGE CHARGE=0 SINGLET  PM6-D3 PRECISE
 Hg@C8(graphene)

   ATOM   CHEMICAL          X               Y               Z
  NUMBER   SYMBOL      (ANGSTROMS)     (ANGSTROMS)     (ANGSTROMS)
 
     1      Hg          1.44289000  *   1.76282000  *   5.76966000  *
     2       C         -0.02792000  *  -0.27061000  *   8.39425000  *
     3       C         -1.46478000  *   2.19341000  *   8.65987000  *
     4       C          2.34396000  *  -0.09944000  *   8.55589000  *
     5       C          1.06874000  *   2.07423000  *   8.80129000  *
     6       C          1.18386000  *   0.58145000  *   8.59016000  *
     7       C         -0.09088000  *   2.75626000  *   8.82802000  *
     8       C          3.71833000  *   0.46467000  *   8.71580000  *
     9       C          2.28048000  *   2.92608000  *   8.99850000  *
 


          CARTESIAN COORDINATES 

    NO.       ATOM           X           Y           Z

     1        Hg          1.4429      1.7628      5.7697
     2         C         -0.0279     -0.2706      8.3942
     3         C         -1.4648      2.1934      8.6599
     4         C          2.3440     -0.0994      8.5559
     5         C          1.0687      2.0742      8.8013
     6         C          1.1839      0.5814      8.5902
     7         C         -0.0909      2.7563      8.8280
     8         C          3.7183      0.4647      8.7158
     9         C          2.2805      2.9261      8.9985

 General Reference for PM6:
 "Optimization of Parameters for Semiempirical Methods V: Modification of NDDO Approximations
 and Application to 70 Elements", J. J. P. Stewart, J. Mol. Mod., 13, 1173-1213 (2007)
 URL: https://link.springer.com/article/10.1007/s00894-007-0233-4

           Empirical Formula: C8 Hg  =     9 atoms



      MOLECULAR POINT GROUP   :   C1  


 SINGLET STATE CALCULATION


      RHF CALCULATION, NO. OF DOUBLY OCCUPIED LEVELS = 17


          Geometry optimization using EF

          DIAGONAL MATRIX USED AS START HESSIAN

 CYCLE:     1 TIME:   0.016 TIME LEFT:  2.00D  GRAD.:   536.421 HEAT:  675.3432
 CYCLE:     2 TIME:   0.000 TIME LEFT:  2.00D  GRAD.:   231.166 HEAT:  596.1288
 CYCLE:     3 TIME:   0.004 TIME LEFT:  2.00D  GRAD.:   291.699 HEAT:  575.5333
 CYCLE:     4 TIME:   0.000 TIME LEFT:  2.00D  GRAD.:   212.769 HEAT:  558.8960
 CYCLE:     5 TIME:   0.004 TIME LEFT:  2.00D  GRAD.:   238.673 HEAT:  536.4345
 CYCLE:     6 TIME:   0.000 TIME LEFT:  2.00D  GRAD.:   141.651 HEAT:  505.1290
 CYCLE:     7 TIME:   0.000 TIME LEFT:  2.00D  GRAD.:   115.909 HEAT:  482.9482
 CYCLE:     8 TIME:   0.004 TIME LEFT:  2.00D  GRAD.:   183.735 HEAT:  470.9469
 CYCLE:     9 TIME:   0.000 TIME LEFT:  2.00D  GRAD.:   190.669 HEAT:  470.0650
 CYCLE:    10 TIME:   0.004 TIME LEFT:  2.00D  GRAD.:   132.977 HEAT:  462.0065
 CYCLE:    11 TIME:   0.000 TIME LEFT:  2.00D  GRAD.:   102.549 HEAT:  457.3235
 CYCLE:    12 TIME:   0.004 TIME LEFT:  2.00D  GRAD.:   121.215 HEAT:  454.2813
 CYCLE:    13 TIME:   0.000 TIME LEFT:  2.00D  GRAD.:   120.069 HEAT:  447.2101
 CYCLE:    14 TIME:   0.004 TIME LEFT:  2.00D  GRAD.:   105.687 HEAT:  439.5360
 CYCLE:    15 TIME:   0.000 TIME LEFT:  2.00D  GRAD.:   100.948 HEAT:  433.7134
 CYCLE:    16 TIME:   0.004 TIME LEFT:  2.00D  GRAD.:    97.020 HEAT:  428.4876
 CYCLE:    17 TIME:   0.000 TIME LEFT:  2.00D  GRAD.:   186.826 HEAT:  424.1251
 CYCLE:    18 TIME:   0.004 TIME LEFT:  2.00D  GRAD.:   175.086 HEAT:  421.2105
 CYCLE:    19 TIME:   0.004 TIME LEFT:  2.00D  GRAD.:   173.663 HEAT:  418.7201
 CYCLE:    20 TIME:   0.000 TIME LEFT:  2.00D  GRAD.:   117.607 HEAT:  412.9932
 CYCLE:    21 TIME:   0.004 TIME LEFT:  2.00D  GRAD.:   100.100 HEAT:  407.4016
 CYCLE:    22 TIME:   0.000 TIME LEFT:  2.00D  GRAD.:   166.146 HEAT:  401.7909
 CYCLE:    23 TIME:   0.004 TIME LEFT:  2.00D  GRAD.:   123.047 HEAT:  393.4249
 CYCLE:    24 TIME:   0.004 TIME LEFT:  2.00D  GRAD.:   197.402 HEAT:  391.5108
 CYCLE:    25 TIME:   0.000 TIME LEFT:  2.00D  GRAD.:    77.032 HEAT:  385.1328
 CYCLE:    26 TIME:   0.004 TIME LEFT:  2.00D  GRAD.:    73.904 HEAT:  383.9696
 CYCLE:    27 TIME:   0.004 TIME LEFT:  2.00D  GRAD.:    53.861 HEAT:  382.3166
 CYCLE:    28 TIME:   0.000 TIME LEFT:  2.00D  GRAD.:    64.615 HEAT:  379.8508
 CYCLE:    29 TIME:   0.004 TIME LEFT:  2.00D  GRAD.:   100.156 HEAT:  376.1249
 CYCLE:    30 TIME:   0.000 TIME LEFT:  2.00D  GRAD.:   164.052 HEAT:  370.1171
 CYCLE:    31 TIME:   0.004 TIME LEFT:  2.00D  GRAD.:   148.717 HEAT:  361.8052
 CYCLE:    32 TIME:   0.004 TIME LEFT:  2.00D  GRAD.:   190.693 HEAT:  358.6934
 CYCLE:    33 TIME:   0.004 TIME LEFT:  2.00D  GRAD.:   108.797 HEAT:  354.3643
 CYCLE:    34 TIME:   0.000 TIME LEFT:  2.00D  GRAD.:   107.783 HEAT:  352.6024
 CYCLE:    35 TIME:   0.004 TIME LEFT:  2.00D  GRAD.:    82.134 HEAT:  348.5637
 CYCLE:    36 TIME:   0.000 TIME LEFT:  2.00D  GRAD.:   109.765 HEAT:  345.7681
 CYCLE:    37 TIME:   0.000 TIME LEFT:  2.00D  GRAD.:    73.097 HEAT:  343.3716
 CYCLE:    38 TIME:   0.004 TIME LEFT:  2.00D  GRAD.:    55.605 HEAT:  341.6428
 CYCLE:    39 TIME:   0.000 TIME LEFT:  2.00D  GRAD.:    36.184 HEAT:  340.2273
 CYCLE:    40 TIME:   0.004 TIME LEFT:  2.00D  GRAD.:    34.520 HEAT:  339.6281
 CYCLE:    41 TIME:   0.000 TIME LEFT:  2.00D  GRAD.:    33.332 HEAT:  339.0502
 CYCLE:    42 TIME:   0.004 TIME LEFT:  2.00D  GRAD.:    43.487 HEAT:  338.6298
 CYCLE:    43 TIME:   0.000 TIME LEFT:  2.00D  GRAD.:    19.349 HEAT:  337.9452
 CYCLE:    44 TIME:   0.004 TIME LEFT:  2.00D  GRAD.:    14.628 HEAT:  337.5005
 CYCLE:    45 TIME:   0.000 TIME LEFT:  2.00D  GRAD.:    13.807 HEAT:  337.2621
 CYCLE:    46 TIME:   0.004 TIME LEFT:  2.00D  GRAD.:    11.645 HEAT:  337.1508
 CYCLE:    47 TIME:   0.004 TIME LEFT:  2.00D  GRAD.:     9.658 HEAT:  337.0201
 CYCLE:    48 TIME:   0.000 TIME LEFT:  2.00D  GRAD.:     8.068 HEAT:  336.8441
 CYCLE:    49 TIME:   0.004 TIME LEFT:  2.00D  GRAD.:     9.837 HEAT:  336.7238
 CYCLE:    50 TIME:   0.000 TIME LEFT:  2.00D  GRAD.:     9.590 HEAT:  336.6407
 CYCLE:    51 TIME:   0.004 TIME LEFT:  2.00D  GRAD.:     8.916 HEAT:  336.5860
 CYCLE:    52 TIME:   0.004 TIME LEFT:  2.00D  GRAD.:     5.704 HEAT:  336.5225
 CYCLE:    53 TIME:   0.000 TIME LEFT:  2.00D  GRAD.:     7.279 HEAT:  336.4542
 CYCLE:    54 TIME:   0.004 TIME LEFT:  2.00D  GRAD.:     9.195 HEAT:  336.3795
 CYCLE:    55 TIME:   0.004 TIME LEFT:  2.00D  GRAD.:    11.546 HEAT:  336.3058
 CYCLE:    56 TIME:   0.000 TIME LEFT:  2.00D  GRAD.:     8.890 HEAT:  336.2460
 CYCLE:    57 TIME:   0.004 TIME LEFT:  2.00D  GRAD.:     6.100 HEAT:  336.2011
 CYCLE:    58 TIME:   0.000 TIME LEFT:  2.00D  GRAD.:     5.938 HEAT:  336.1707
 CYCLE:    59 TIME:   0.004 TIME LEFT:  2.00D  GRAD.:     4.790 HEAT:  336.1452
 CYCLE:    60 TIME:   0.000 TIME LEFT:  2.00D  GRAD.:     5.548 HEAT:  336.1131
 CYCLE:    61 TIME:   0.004 TIME LEFT:  2.00D  GRAD.:     4.565 HEAT:  336.0975
 CYCLE:    62 TIME:   0.004 TIME LEFT:  2.00D  GRAD.:     4.405 HEAT:  336.0769
 CYCLE:    63 TIME:   0.000 TIME LEFT:  2.00D  GRAD.:     4.484 HEAT:  336.0662
 CYCLE:    64 TIME:   0.004 TIME LEFT:  2.00D  GRAD.:     3.510 HEAT:  336.0535
 CYCLE:    65 TIME:   0.000 TIME LEFT:  2.00D  GRAD.:     4.962 HEAT:  336.0404
 CYCLE:    66 TIME:   0.004 TIME LEFT:  2.00D  GRAD.:     4.969 HEAT:  336.0286
 CYCLE:    67 TIME:   0.000 TIME LEFT:  2.00D  GRAD.:     4.493 HEAT:  336.0101
 CYCLE:    68 TIME:   0.004 TIME LEFT:  2.00D  GRAD.:     3.189 HEAT:  335.9981
 CYCLE:    69 TIME:   0.000 TIME LEFT:  2.00D  GRAD.:     1.270 HEAT:  335.9945
 CYCLE:    70 TIME:   0.004 TIME LEFT:  2.00D  GRAD.:     0.805 HEAT:  335.9937
 CYCLE:    71 TIME:   0.004 TIME LEFT:  2.00D  GRAD.:     0.532 HEAT:  335.9931
 CYCLE:    72 TIME:   0.000 TIME LEFT:  2.00D  GRAD.:     0.449 HEAT:  335.9927
 CYCLE:    73 TIME:   0.004 TIME LEFT:  2.00D  GRAD.:     0.395 HEAT:  335.9926
 CYCLE:    74 TIME:   0.000 TIME LEFT:  2.00D  GRAD.:     0.189 HEAT:  335.9925
 CYCLE:    75 TIME:   0.004 TIME LEFT:  2.00D  GRAD.:     0.117 HEAT:  335.9924
 CYCLE:    76 TIME:   0.008 TIME LEFT:  2.00D  GRAD.:     2.578 HEAT:  335.9996
 CYCLE:    77 TIME:   0.000 TIME LEFT:  2.00D  GRAD.:     0.086 HEAT:  335.9924
 CYCLE:    78 TIME:   0.000 TIME LEFT:  2.00D  GRAD.:     0.035 HEAT:  335.9924

     GRADIENT =  0.03535 IS LESS THAN CUTOFF =  0.05000



 -------------------------------------------------------------------------------
 AUX LARGE CHARGE=0 SINGLET  PM6-D3 PRECISE
 Hg@C8(graphene)



     GEOMETRY OPTIMISED USING EIGENVECTOR FOLLOWING (EF).     
     SCF FIELD WAS ACHIEVED                                   


                              PM6-D3 CALCULATION
                                                       MOPAC v23.1.2 Linux
                                                       Wed Sep  3 11:35:28 2025




          FINAL HEAT OF FORMATION =        335.99240 KCAL/MOL =    1405.79221 KJ/MOL


          COSMO AREA              =        158.01 SQUARE ANGSTROMS
          COSMO VOLUME            =        155.60 CUBIC ANGSTROMS

          GRADIENT NORM           =          0.03535          =       0.01178 PER ATOM
          IONIZATION POTENTIAL    =          9.164414 EV
          HOMO LUMO ENERGIES (EV) =         -9.164 -0.771
          NO. OF FILLED LEVELS    =         17
          MOLECULAR WEIGHT        =        296.6780         POINT GROUP:  C2v 

          MOLECULAR DIMENSIONS (Angstroms)

            Atom       Atom       Distance
            C     9   Hg     1     4.85939
            C     2    C     3     4.09845
            C     8    C     3     0.00081


          SCF CALCULATIONS        =         87
 
          WALL-CLOCK TIME         =      0.195 SECONDS
          COMPUTATION TIME        =      1.104 SECONDS




   ATOM   CHEMICAL          X               Y               Z
  NUMBER   SYMBOL      (ANGSTROMS)     (ANGSTROMS)     (ANGSTROMS)
 
     1      Hg          1.44981120  *   1.79215028  *   5.85392370  *
     2       C          1.71285088  *  -0.28588844  *  10.23868177  *
     3       C          0.50576840  *   2.98173050  *   7.00422636  *
     4       C          1.87996749  *   0.28629725  *   7.92479667  *
     5       C          0.65581888  *   1.83841415  *   9.38864920  *
     6       C          1.43225838  *   0.55704761  *   9.25992502  *
     7       C          0.50886173  *   2.54968242  *   8.15220257  *
     8       C          2.15703506  *   0.25550148  *   6.73029578  *
     9       C          0.13094481  *   2.32340312  *  10.50064825  *

                             CARTESIAN COORDINATES

   1   Hg        1.449811201     1.792150277     5.853923704
   2    C        1.712850881    -0.285888442    10.238681770
   3    C        0.505768402     2.981730499     7.004226362
   4    C        1.879967491     0.286297249     7.924796672
   5    C        0.655818881     1.838414146     9.388649200
   6    C        1.432258378     0.557047608     9.259925020
   7    C        0.508861732     2.549682422     8.152202572
   8    C        2.157035062     0.255501476     6.730295785
   9    C        0.130944805     2.323403125    10.500648247


           Empirical Formula: C8 Hg  =     9 atoms



      MOLECULAR POINT GROUP   :   C2v 


                  EIGENVALUES  
 -29.53086 -26.89304 -26.75385 -24.88230 -20.48125 -17.83409 -17.25052 -13.77904
 -13.17000 -12.87137 -12.08276 -11.79285 -11.52825 -10.66212 -10.54182 -10.40470
  -9.16441  -0.77060  -0.57206  -0.15362   0.26476   0.96134   1.59807   1.74990
   1.78596   2.49879   2.75957   3.57940   3.67432   3.96786   4.77292   4.77440
   5.36735   5.47693   6.85340   6.89363


              NET ATOMIC CHARGES AND DIPOLE CONTRIBUTIONS

  ATOM NO.   TYPE          CHARGE      No. of ELECS.   s-Pop       p-Pop       
    1         Hg           0.534463        1.4655     0.64077     0.82477
    2          C           0.358542        3.6415     1.72486     1.91660
    3          C          -0.224082        4.2241     1.20812     3.01596
    4          C          -0.064335        4.0643     1.09509     2.96925
    5          C          -0.337369        4.3374     1.08986     3.24750
    6          C          -0.337356        4.3374     1.08986     3.24749
    7          C          -0.064335        4.0643     1.09509     2.96925
    8          C          -0.224079        4.2241     1.20812     3.01596
    9          C           0.358550        3.6415     1.72486     1.91659
 DIPOLE           X         Y         Z       TOTAL
 POINT-CHG.    -0.091    -0.133     0.775     0.792
 HYBRID         0.342     0.501    -2.928     2.990
 SUM            0.251     0.369    -2.152     2.198


          ATOMIC ORBITAL ELECTRON POPULATIONS

     Atom    s        px        py        pz   
    1 Hg   0.64077   0.23285   0.45474   0.13718
    2  C   1.72486   0.58862   0.67202   0.65596
    3  C   1.20812   0.95471   0.96859   1.09267
    4  C   1.09509   1.00240   1.02326   0.94358
    5  C   1.08986   1.18444   1.02529   1.03778
    6  C   1.08986   1.17581   1.04616   1.02552
    7  C   1.09509   1.00945   1.00624   0.95356
    8  C   1.20812   0.96932   0.93323   1.11341
    9  C   1.72486   0.70542   0.38976   0.82142

 **********************
 *                    *
 * JOB ENDED NORMALLY *
 *                    *
 **********************



 TOTAL JOB TIME:             0.20 SECONDS

 == MOPAC DONE ==
