37
	Energy:      32.2533465
N          1.02924        0.33120        0.61119
C          2.20439       -0.08959       -0.16071
C          2.48564       -1.60291        0.00881
C          2.79743       -2.00157        1.46280
C          3.13109       -3.46779        1.61843
O          3.12016       -4.21003        0.64513
N          3.44736       -3.94931        2.85295
C          3.79271       -5.34294        3.11271
C          5.22207       -5.41500        3.67460
S          6.43212       -4.72530        2.49939
C          2.80385       -5.95917        4.08629
O          1.90314       -5.27404        4.55413
N          2.90789       -7.27343        4.42934
C          1.97665       -7.89257        5.36129
C          2.26260       -9.35661        5.61050
O          3.19354       -9.92525        5.06156
O          1.47772      -10.05603        6.45647
C          2.00834        0.24456       -1.62693
O          0.95641        0.72745       -2.01791
O          2.99985        0.03525       -2.52016
H          1.22463        0.29005        1.63647
H          0.20598       -0.27477        0.38688
H          3.08450        0.49145        0.19316
H          3.36946       -1.87287       -0.60887
H          1.61204       -2.18651       -0.35770
H          1.92342       -1.78692        2.11159
H          3.66687       -1.40762        1.81898
H          3.45079       -3.29363        3.65052
H          3.75334       -5.94312        2.17749
H          5.52571       -6.45730        3.90569
H          5.29275       -4.84347        4.62494
H          6.37704       -5.85779        1.66441
H          3.66507       -7.83123        4.00830
H          0.94466       -7.80476        4.95804
H          2.02933       -7.35990        6.33545
H          0.73080       -9.64308        6.91223
H          3.86326       -0.31251       -2.25819
