

 Parallel Execution: Process Information
 ==============================================================================
 Rank   Node Name                              NodeID   MyNodeRank  NodeMaster
    0   ubuntu-kch                                0          0          0
    1   ubuntu-kch                                0          1         -1
    2   ubuntu-kch                                0          2         -1
    3   ubuntu-kch                                0          3         -1
 ==============================================================================


May use up to 7570MB of RAM as shared memory on node 0

 *******************************************************************************
 *                                                                             *
 *  --------------------------------                                           *
 *   Amsterdam Modeling Suite (AMS)              2019.405                      *
 *  --------------------------------                                           *
 *                                               r87318 2020-08-31             *
 *                                                                             *
 *                                                                             *
 *                              =================                              *
 *                              |               |                              *
 *                              |     A M S     |                              *
 *                              |               |                              *
 *                              =================                              *
 *                                                                             *
 *                                                                             *
 *   Online information and documentation:  https://www.scm.com/support/       *
 *   E-mail:  support@scm.com   info@scm.com                                   *
 *                                                                             *
 *   Scientific publications using AMS results must be properly referenced     *
 *   See the User Manuals (or the web site) for recommended citations          *
 *   The terms and conditions of the End User License Agreement apply to       *
 *   the use of AMS, https://www.scm.com/license-terms/                        *
 *                                                                             *
 **********************  x86_64_linux_intel / intelmpi  ************************
 
 Licensed to: Dr. Miroslav Ilias / Matej Bel University, Department Chemistry, Fac. Natural Sciences / Banska Bystrica / SLOVAKIA
 SCM User ID: u17848
  
 AMS 2019.405  RunTime: Dec09-2020 19:29:23  Nodes: 1  Procs: 4

 AMS jobname: ams
 AMS jobid  : 182064960

 Start   directory: /home/milias/work/projects/open-collection/theoretical_chemistry/projects/nmr_diplomovky/reference_compounds/trimethylsilane/ams/geomopt/tmp.milias.8806.0.noindex/
 Results directory: /home/milias/work/projects/open-collection/theoretical_chemistry/projects/nmr_diplomovky/reference_compounds/trimethylsilane/ams/geomopt/trimethyl-silane.geopt_freq_b3lyp_tzp_sc.results/
 Scratch directory: /tmp/amstmp_ams_kid0.182064960/


 Communication costs MPI_COMM_WORLD:      0.258 usec per message,   0.0033 usec per 8-byte item
 Communication costs for intra-node:      0.261 usec per message,   0.0033 usec per 8-byte item

 RNG seed: 1318323813 1283682998 1357224325 -974233802 -1925281884 546392285 -1588065373 -1500263293



                        ********************************************************************
                        *  ADF 2019.405  RunTime: Dec09-2020 19:29:23  Nodes: 1  Procs: 4  *
                        ********************************************************************
  
       ***************************
       *  GEOMETRY OPTIMIZATION  *
       ***************************

Optimization Method                    Quasi Newton
Optimization Coordinates               Delocalized Coordinates
Optimize lattice                       F
 
 ------------------------------------------------------
 Convergence criteria (Hartree,Angstrom)
 ------------------------------------------------------
 Maximum gradient               0.001000000000
 Maximum rms gradient           0.000666666667
 Maximum step allowed           0.001000000000
 Maximum rms step allowed       0.000666666667
 Maximum energy change allowe   0.000010000000
 Maximum stress energy allowe   0.000500000000
 
Initial model Hessian                  Automatic Hessian
 
------------------------------------
Quasi-Newton Optimizer Parameters
------------------------------------
Hessian Update Method                  BFGS
Maximum number of steps                  250
First GDIIS cycle                          0
Maximum GDIIS vectors                      0
Trust radius (bohr)                        0.200000
Trust radius varies                        T
Constraints converged at all steps         T
Use projector                              T
 
 Rigid motions settings for: old optimizer
 Atomic rotations (x,y,z):     T T T
 Atomic translations (x,y,z):  T T T
 Tolerance:                   1.000000000000000E-006
 
--------
Geometry
--------
Atoms
  Index Symbol   x (angstrom)   y (angstrom)   z (angstrom)
      1     Si     0.00000000     0.00000000    -0.50654415
      2      C     1.75986997     0.00000000     0.11545777
      3      C    -0.87993498     1.52409210     0.11545777
      4      C    -0.87993498    -1.52409210     0.11545777
      5      H     0.00000000     0.00000000    -1.98654415
      6      H     2.28229694    -0.90588279    -0.25462642
      7      H     2.28229694     0.90588279    -0.25462642
      8      H     1.75972643     0.00000000     1.22482451
      9      H    -0.35663096     2.42946853    -0.25462642
     10      H    -1.92566598     1.52358574    -0.25462642
     11      H    -0.87986322     1.52396780     1.22482451
     12      H    -1.92566598    -1.52358574    -0.25462642
     13      H    -0.35663096    -2.42946853    -0.25462642
     14      H    -0.87986322    -1.52396780     1.22482451
 
Total System Charge             0.00000
Bonding info available!
 
 
----------------
ADF Engine Input
----------------
 
 

 Title: *** (NO TITLE) ***

Number of symmetry operators: 6
Schoenflies symbol:           C(3V)
 Using automatic Hessian for delocalized coordinates.
 *** (NO TITLE) ***

 Energy gradients wrt nuclear displacements
 ==========================================

     Atom      Cartesian (a.u./angstrom)
                 X         Y         Z
 ----------------------------------------
     1 Si    0.000000 -0.000000 -0.002156
     2 C    -0.013272 -0.000000 -0.000735
     3 C     0.006636 -0.011494 -0.000735
     4 C     0.006636  0.011494 -0.000735
     5 H     0.000000  0.000000  0.025810
     6 H    -0.004730 -0.007306 -0.006149
     7 H    -0.004730  0.007306 -0.006149
     8 H    -0.007181 -0.000000  0.005149
     9 H     0.008692 -0.000444 -0.006149
    10 H    -0.003962 -0.007749 -0.006149
    11 H     0.003591 -0.006219  0.005149
    12 H    -0.003962  0.007749 -0.006149
    13 H     0.008692  0.000444 -0.006149
    14 H     0.003591  0.006219  0.005149
 ----------------------------------------
 Mulliken charges used for AMS results%charges...
 
----------------------------------------------------------------------
Geometry Convergence after Step   1       (Hartree/Angstrom,Angstrom)
----------------------------------------------------------------------
current energy                               -2.58926012 Hartree
energy change                      -2.58926012     0.00001000    F
constrained gradient max            0.02580978     0.00100000    F
constrained gradient rms            0.00709873     0.00066667    F
gradient max                        0.02580978
gradient rms                        0.00709873
cart. step max                      0.04479844     0.00100000    F
cart. step rms                      0.02092847     0.00066667    F
 
 
--------
Geometry
--------
Atoms
  Index Symbol   x (angstrom)   y (angstrom)   z (angstrom)
      1     Si     0.00000000    -0.00000000    -0.50689541
      2      C     1.77956343    -0.00000000     0.11074393
      3      C    -0.88978172     1.54114714     0.11074393
      4      C    -0.88978172    -1.54114714     0.11074393
      5      H     0.00000000    -0.00000000    -2.00186471
      6      H     2.32224886    -0.89534933    -0.24569184
      7      H     2.32224886     0.89534933    -0.24569184
      8      H     1.80452487    -0.00000000     1.21689314
      9      H    -0.38572917     2.45880118    -0.24569184
     10      H    -1.93651970     1.56345184    -0.24569184
     11      H    -0.90226244     1.56276438     1.21689314
     12      H    -1.93651970    -1.56345184    -0.24569184
     13      H    -0.38572917    -2.45880118    -0.24569184
     14      H    -0.90226244    -1.56276438     1.21689314
 
Total System Charge             0.00000
Bonding info available!
 
 *** (NO TITLE) ***

 Energy gradients wrt nuclear displacements
 ==========================================

     Atom      Cartesian (a.u./angstrom)
                 X         Y         Z
 ----------------------------------------
     1 Si    0.000000  0.000000 -0.001981
     2 C    -0.009001  0.000000 -0.002119
     3 C     0.004500 -0.007795 -0.002119
     4 C     0.004500  0.007795 -0.002119
     5 H    -0.000000 -0.000000  0.015648
     6 H    -0.001245 -0.001623 -0.001546
     7 H    -0.001245  0.001623 -0.001546
     8 H    -0.002170  0.000000  0.000656
     9 H     0.002028 -0.000266 -0.001546
    10 H    -0.000783 -0.001890 -0.001546
    11 H     0.001085 -0.001879  0.000656
    12 H    -0.000783  0.001890 -0.001546
    13 H     0.002028  0.000266 -0.001546
    14 H     0.001085  0.001879  0.000656
 ----------------------------------------
 Mulliken charges used for AMS results%charges...

 dE(predicted):    -0.20991E-02, dE(actual):    -0.28883E-02, Trust radius:    0.200000, all in a.u.
 
----------------------------------------------------------------------
Geometry Convergence after Step   2       (Hartree/Angstrom,Angstrom)
----------------------------------------------------------------------
current energy                               -2.59214845 Hartree
energy change                      -0.00288833     0.00001000    F
constrained gradient max            0.01564807     0.00100000    F
constrained gradient rms            0.00365200     0.00066667    F
gradient max                        0.01564807
gradient rms                        0.00365200
cart. step max                      0.02442957     0.00100000    F
cart. step rms                      0.01180776     0.00066667    F
 
 
--------
Geometry
--------
Atoms
  Index Symbol   x (angstrom)   y (angstrom)   z (angstrom)
      1     Si     0.00000000     0.00000000    -0.51080551
      2      C     1.79265705    -0.00000000     0.10973617
      3      C    -0.89632853     1.55248655     0.10973617
      4      C    -0.89632853    -1.55248655     0.10973617
      5      H     0.00000000     0.00000000    -2.02068231
      6      H     2.34416362    -0.89092710    -0.24040341
      7      H     2.34416362     0.89092710    -0.24040341
      8      H     1.82895444    -0.00000000     1.21489993
      9      H    -0.40051631     2.47556880    -0.24040341
     10      H    -1.94364731     1.58464170    -0.24040341
     11      H    -0.91447722     1.58392101     1.21489993
     12      H    -1.94364731    -1.58464170    -0.24040341
     13      H    -0.40051631    -2.47556880    -0.24040341
     14      H    -0.91447722    -1.58392101     1.21489993
 
Total System Charge             0.00000
Bonding info available!
 
 *** (NO TITLE) ***

 Energy gradients wrt nuclear displacements
 ==========================================

     Atom      Cartesian (a.u./angstrom)
                 X         Y         Z
 ----------------------------------------
     1 Si    0.000000 -0.000000 -0.001889
     2 C    -0.004773 -0.000000 -0.001867
     3 C     0.002387 -0.004134 -0.001867
     4 C     0.002387  0.004134 -0.001867
     5 H     0.000000 -0.000000  0.006072
     6 H     0.000369  0.000797  0.000570
     7 H     0.000369 -0.000797  0.000570
     8 H     0.000651  0.000000 -0.000668
     9 H    -0.000875 -0.000079  0.000570
    10 H     0.000506  0.000718  0.000570
    11 H    -0.000326  0.000564 -0.000668
    12 H     0.000506 -0.000718  0.000570
    13 H    -0.000875  0.000079  0.000570
    14 H    -0.000326 -0.000564 -0.000668
 ----------------------------------------
 Mulliken charges used for AMS results%charges...

 dE(predicted):    -0.52673E-03, dE(actual):    -0.61140E-03, Trust radius:    0.200000, all in a.u.
 
----------------------------------------------------------------------
Geometry Convergence after Step   3       (Hartree/Angstrom,Angstrom)
----------------------------------------------------------------------
current energy                               -2.59275984 Hartree
energy change                      -0.00061140     0.00001000    F
constrained gradient max            0.00607184     0.00100000    F
constrained gradient rms            0.00174871     0.00066667    F
gradient max                        0.00607184
gradient rms                        0.00174871
cart. step max                      0.00690245     0.00100000    F
cart. step rms                      0.00192827     0.00066667    F
 
 
--------
Geometry
--------
Atoms
  Index Symbol   x (angstrom)   y (angstrom)   z (angstrom)
      1     Si     0.00000000    -0.00000000    -0.51198595
      2      C     1.79612849    -0.00000000     0.11051572
      3      C    -0.89806425     1.55549291     0.11051572
      4      C    -0.89806425    -1.55549291     0.11051572
      5      H     0.00000000    -0.00000000    -2.02758476
      6      H     2.34691420    -0.89151464    -0.23999937
      7      H     2.34691420     0.89151464    -0.23999937
      8      H     1.83133727    -0.00000000     1.21600659
      9      H    -0.40138277     2.47824464    -0.23999937
     10      H    -1.94553142     1.58673000    -0.23999937
     11      H    -0.91566863     1.58598459     1.21600659
     12      H    -1.94553142    -1.58673000    -0.23999937
     13      H    -0.40138277    -2.47824464    -0.23999937
     14      H    -0.91566863    -1.58598459     1.21600659
 
Total System Charge             0.00000
Bonding info available!
 
 *** (NO TITLE) ***

 Energy gradients wrt nuclear displacements
 ==========================================

     Atom      Cartesian (a.u./angstrom)
                 X         Y         Z
 ----------------------------------------
     1 Si   -0.000000  0.000000 -0.001155
     2 C    -0.002701  0.000000 -0.001145
     3 C     0.001350 -0.002339 -0.001145
     4 C     0.001350  0.002339 -0.001145
     5 H    -0.000000  0.000000  0.002604
     6 H     0.000467  0.000487  0.000462
     7 H     0.000467 -0.000487  0.000462
     8 H     0.000690  0.000000 -0.000261
     9 H    -0.000655  0.000161  0.000462
    10 H     0.000189  0.000648  0.000462
    11 H    -0.000345  0.000598 -0.000261
    12 H     0.000189 -0.000648  0.000462
    13 H    -0.000655 -0.000161  0.000462
    14 H    -0.000345 -0.000598 -0.000261
 ----------------------------------------
 Mulliken charges used for AMS results%charges...

 dE(predicted):    -0.43331E-04, dE(actual):    -0.59283E-04, Trust radius:    0.200000, all in a.u.
 
----------------------------------------------------------------------
Geometry Convergence after Step   4       (Hartree/Angstrom,Angstrom)
----------------------------------------------------------------------
current energy                               -2.59281913 Hartree
energy change                      -0.00005928     0.00001000    F
constrained gradient max            0.00270055     0.00100000    F
constrained gradient rms            0.00097066     0.00066667    F
gradient max                        0.00270055
gradient rms                        0.00097066
cart. step max                      0.00483228     0.00100000    F
cart. step rms                      0.00118987     0.00066667    F
 
 
--------
Geometry
--------
Atoms
  Index Symbol   x (angstrom)   y (angstrom)   z (angstrom)
      1     Si     0.00000000    -0.00000000    -0.51244911
      2      C     1.79831527    -0.00000000     0.11159061
      3      C    -0.89915764     1.55738671     0.11159061
      4      C    -0.89915764    -1.55738671     0.11159061
      5      H     0.00000000    -0.00000000    -2.03241704
      6      H     2.34675998    -0.89269564    -0.24034371
      7      H     2.34675998     0.89269564    -0.24034371
      8      H     1.83031123    -0.00000000     1.21738553
      9      H    -0.40028289     2.47870158    -0.24034371
     10      H    -1.94647709     1.58600594    -0.24034371
     11      H    -0.91515562     1.58509603     1.21738553
     12      H    -1.94647709    -1.58600594    -0.24034371
     13      H    -0.40028289    -2.47870158    -0.24034371
     14      H    -0.91515562    -1.58509603     1.21738553
 
Total System Charge             0.00000
Bonding info available!
 
 *** (NO TITLE) ***

 Energy gradients wrt nuclear displacements
 ==========================================

     Atom      Cartesian (a.u./angstrom)
                 X         Y         Z
 ----------------------------------------
     1 Si   -0.000000  0.000000 -0.000181
     2 C    -0.000600  0.000000 -0.000259
     3 C     0.000300 -0.000520 -0.000259
     4 C     0.000300  0.000520 -0.000259
     5 H    -0.000000  0.000000  0.000047
     6 H     0.000233 -0.000040  0.000077
     7 H     0.000233  0.000040  0.000077
     8 H     0.000242  0.000000  0.000151
     9 H    -0.000082  0.000222  0.000077
    10 H    -0.000151  0.000182  0.000077
    11 H    -0.000121  0.000209  0.000151
    12 H    -0.000151 -0.000182  0.000077
    13 H    -0.000082 -0.000222  0.000077
    14 H    -0.000121 -0.000209  0.000151
 ----------------------------------------
 Mulliken charges used for AMS results%charges...

 dE(predicted):    -0.20741E-04, dE(actual):    -0.19629E-04, Trust radius:    0.200000, all in a.u.
 
----------------------------------------------------------------------
Geometry Convergence after Step   5       (Hartree/Angstrom,Angstrom)
----------------------------------------------------------------------
current energy                               -2.59283876 Hartree
energy change                      -0.00001963     0.00001000    F
constrained gradient max            0.00060011     0.00100000    T
constrained gradient rms            0.00021446     0.00066667    T
gradient max                        0.00060011
gradient rms                        0.00021446
cart. step max                      0.00095316     0.00100000    T
cart. step rms                      0.00039332     0.00066667    T
 
 
--------
Geometry
--------
Atoms
  Index Symbol   x (angstrom)   y (angstrom)   z (angstrom)
      1     Si     0.00000000    -0.00000000    -0.51229416
      2      C     1.79837686    -0.00000000     0.11181817
      3      C    -0.89918843     1.55744005     0.11181817
      4      C    -0.89918843    -1.55744005     0.11181817
      5      H     0.00000000    -0.00000000    -2.03255997
      6      H     2.34606102    -0.89291868    -0.24054501
      7      H     2.34606102     0.89291868    -0.24054501
      8      H     1.82935808    -0.00000000     1.21755656
      9      H    -0.39974025     2.47820778    -0.24054501
     10      H    -1.94632077     1.58528910    -0.24054501
     11      H    -0.91467904     1.58427057     1.21755656
     12      H    -1.94632077    -1.58528910    -0.24054501
     13      H    -0.39974025    -2.47820778    -0.24054501
     14      H    -0.91467904    -1.58427057     1.21755656
 
Total System Charge             0.00000
Bonding info available!
 
 *** (NO TITLE) ***

 Energy gradients wrt nuclear displacements
 ==========================================

     Atom      Cartesian (a.u./angstrom)
                 X         Y         Z
 ----------------------------------------
     1 Si   -0.000000 -0.000000  0.000041
     2 C    -0.000159  0.000000 -0.000059
     3 C     0.000080 -0.000138 -0.000059
     4 C     0.000080  0.000138 -0.000059
     5 H     0.000000 -0.000000 -0.000114
     6 H     0.000076 -0.000072 -0.000009
     7 H     0.000076  0.000072 -0.000009
     8 H     0.000052  0.000000  0.000103
     9 H     0.000024  0.000102 -0.000009
    10 H    -0.000100  0.000030 -0.000009
    11 H    -0.000026  0.000045  0.000103
    12 H    -0.000100 -0.000030 -0.000009
    13 H     0.000024 -0.000102 -0.000009
    14 H    -0.000026 -0.000045  0.000103
 ----------------------------------------
 Mulliken charges used for AMS results%charges...
 
---------------------------------------------------------
Geometry Convergence after Step   6       ** CONVERGED **
---------------------------------------------------------
current energy                               -2.59283920 Hartree
energy change                      -0.00000044     0.00001000    T
constrained gradient max            0.00015907     0.00100000    T
constrained gradient rms            0.00007015     0.00066667    T
gradient max                        0.00015907
gradient rms                        0.00007015
cart. step max                      0.00029076     0.00100000    T
cart. step rms                      0.00012163     0.00066667    T
 
Geometry optimization converged

Optimized geometry:
 
--------
Geometry
--------
Atoms
  Index Symbol   x (angstrom)   y (angstrom)   z (angstrom)
      1     Si     0.00000000    -0.00000000    -0.51229416
      2      C     1.79837686    -0.00000000     0.11181817
      3      C    -0.89918843     1.55744005     0.11181817
      4      C    -0.89918843    -1.55744005     0.11181817
      5      H     0.00000000    -0.00000000    -2.03255997
      6      H     2.34606102    -0.89291868    -0.24054501
      7      H     2.34606102     0.89291868    -0.24054501
      8      H     1.82935808    -0.00000000     1.21755656
      9      H    -0.39974025     2.47820778    -0.24054501
     10      H    -1.94632077     1.58528910    -0.24054501
     11      H    -0.91467904     1.58427057     1.21755656
     12      H    -1.94632077    -1.58528910    -0.24054501
     13      H    -0.39974025    -2.47820778    -0.24054501
     14      H    -0.91467904    -1.58427057     1.21755656
 
Total System Charge             0.00000
Bonding info available!
 
Performing a single point calculation on the final geometry ...

 *** (NO TITLE) ***



 ===========================
 A T T A C H E D   F I L E S
 ===========================
  
 Restart/tmp/amstmp_ams_kid0.182064960/GOStep6.rkf           0 *** (NO TITLE) **
 *



 ===============================
 M O D E L   P A R A M E T E R S
 ===============================
  
 DENSITY FUNCTIONAL POTENTIAL (scf)
    LDA:                               VWN                                      
    Gradient Corrections:              ---                                      

 SPIN  (restricted / unrestr.)
    Molecule:                          Restricted                               
    Fragments:                         Restricted                               

 OTHER ASPECTS
    Relativistic Corrections:          scalar (ZORA,MAPA)                      == Not Default ==

    Nuclear Charge Density Model:      Point Charge Nuclei                      
    Core Treatment:                    Frozen Orbital(s)                        

    Hyperfine or Zeeman Interaction:   ---                                      



 ===============
 G E O M E T R Y  ***  3D  Molecule  ***
 ===============
  

 ATOMS
 =====                            X Y Z                    CHARGE
                                (Angstrom)             Nucl     +Core       At.Mass
                       --------------------------    ----------------       -------
    1  Si              0.0000   -0.0000   -0.5123     14.00      4.00       27.9769
    2  C               1.7984   -0.0000    0.1118      6.00      4.00       12.0000
    3  C              -0.8992    1.5574    0.1118      6.00      4.00       12.0000
    4  C              -0.8992   -1.5574    0.1118      6.00      4.00       12.0000
    5  H               0.0000   -0.0000   -2.0326      1.00      1.00        1.0078
    6  H               2.3461   -0.8929   -0.2405      1.00      1.00        1.0078
    7  H               2.3461    0.8929   -0.2405      1.00      1.00        1.0078
    8  H               1.8294   -0.0000    1.2176      1.00      1.00        1.0078
    9  H              -0.3997    2.4782   -0.2405      1.00      1.00        1.0078
   10  H              -1.9463    1.5853   -0.2405      1.00      1.00        1.0078
   11  H              -0.9147    1.5843    1.2176      1.00      1.00        1.0078
   12  H              -1.9463   -1.5853   -0.2405      1.00      1.00        1.0078
   13  H              -0.3997   -2.4782   -0.2405      1.00      1.00        1.0078
   14  H              -0.9147   -1.5843    1.2176      1.00      1.00        1.0078


 FRAGMENTS
 =========                                     Atoms in this Fragment     Cart. coord.s (Angstrom)
                                               -------------------------------------------------------
    1  Si                                                1  Si           0.0000   -0.0000   -0.5123
    2  C                                                 2  C            1.7984   -0.0000    0.1118
    3  C                                                 3  C           -0.8992    1.5574    0.1118
    4  C                                                 4  C           -0.8992   -1.5574    0.1118
    5  H                                                 5  H            0.0000   -0.0000   -2.0326
    6  H                                                 6  H            2.3461   -0.8929   -0.2405
    7  H                                                 7  H            2.3461    0.8929   -0.2405
    8  H                                                 8  H            1.8294   -0.0000    1.2176
    9  H                                                 9  H           -0.3997    2.4782   -0.2405
   10  H                                                10  H           -1.9463    1.5853   -0.2405
   11  H                                                11  H           -0.9147    1.5843    1.2176
   12  H                                                12  H           -1.9463   -1.5853   -0.2405
   13  H                                                13  H           -0.3997   -2.4782   -0.2405
   14  H                                                14  H           -0.9147   -1.5843    1.2176


 Interatomic Distance Matrix (Angstrom)
 --------------------------------------

   1)     0.000
   2)     1.904   0.000
   3)     1.904   3.115   0.000
   4)     1.904   3.115   3.115   0.000
   5)     1.520   2.799   2.799   2.799   0.000
   6)     2.525   1.105   4.082   3.331   3.084   0.000
   7)     2.525   1.105   3.331   4.082   3.084   1.786   0.000
   8)     2.518   1.106   3.331   3.331   3.730   1.786   1.786   0.000
   9)     2.525   3.331   1.105   4.082   3.084   4.348   3.171   3.638   0.000
  10)     2.525   4.082   1.105   3.331   3.084   4.956   4.348   4.347   1.786   0.000
  11)     2.518   3.331   1.106   3.331   3.730   4.347   3.638   3.169   1.786   1.786
          0.000
  12)     2.525   4.082   3.331   1.105   3.084   4.348   4.956   4.347   4.348   3.171
          3.638   0.000
  13)     2.525   3.331   4.082   1.105   3.084   3.171   4.348   3.638   4.956   4.348
          4.347   1.786   0.000
  14)     2.518   3.331   3.331   1.106   3.730   3.638   4.347   3.169   4.347   3.638
          3.169   1.786   1.786   0.000

 Min. Distance =    1.1052
 Max. Distance =    4.9564



 =====================================
 S Y M M E T R Y ,   E L E C T R O N S
 =====================================
  
 Symmetry: C(3V)

 Irreducible Representations, including subspecies
 -------------------------------------------------
 A1
 A2
 E1:1  E1:2


 Configuration of Valence Electrons
 ==================================
 ( determined in the SCF procedure )

 Total:   26

 Net Charge: 0 (Nuclei minus Electrons)

 Aufbau principle for MO occupations will be applied through SCF cycle no.     150
 Thereafter, the program will assign electrons to MOs that are spatially
 similar to the occupied MOs in a "reference" cycle ("KeepOrbitals").
 The reference cycle is always the PREVIOUS cycle: it will evolve with
 the SCF procedure.
1
 ***************************************************************************************************



                                      ****************************************
                                      *  B U I L D : (Fragments, Functions)  *
                                      ****************************************
  



 =======
 S F O s  ***  (Symmetrized Fragment Orbitals)  ***
 =======
  
 SFOs are linear combinations of (valence) Fragment Orbitals (FOs), such that the SFOs transform as the
 irreducible representations of the (molecular) symmetry group. Each SFO is therefore characterized by
 an irrep of the molecule and by a few (or only one) generating FOs.
 The SFOs constitute a symmetry-adapted basis for the Fock matrix. The MO eigenvector coefficients in
 this basis provide a direct interpretation of the MOs in terms of Frontier Orbital Theory.

 The SFOs are combined with auxiliary Core Functions (CFs) to ensure orthogonalization on the (frozen)
 Core Orbitals (COs). The Core-orthogonalized SFOs (CSFOs) constitute the true Fock basis.

 The FOs, and hence also the (C)SFOs are combinations of the elementary basis functions (BAS). The basis
 functions that participate in the description of the SFOs depend on the irrep. The indices of the
 involved functions are printed below for each irrep.
 (The complete list of primitive basis functions is printed in another section)

 Total nr. of (C)SFOs (summation over all irreps) :    52

 NOTE: a (C)SFO that is defined as a combination of more than one FO is usually NOT normalized.



                                       === A1 ===
 Nr. of SFOs :   16
 Cartesian basis functions that participate in this irrep (total number =    52) :
      1     2     5    14    23    32     6     7    10    13
     15    24    33    16    25    34    19    28    37    22
     31    40    17    26    27    35    36    20    29    30
     38    39    41    42    43    45    49    51    55    57
     44    46    50    52    56    58    47    53    59    48
     54    60

    SFO  (index         Fragment          Generating    Expansion in Fragment Orbitals
  indx  incl.CFs)   Occup   Orb.Energy   FragmentType  Coeff.   Orbital     on Fragment
 --------------------------------------------------------------------------------------
     1       7      2.000      -0.403 au  Si            1.00      1 S               1
                        (     -10.972 eV)
     2       8       --         0.251 au  Si            1.00      2 S               1
                        (       6.817 eV)
     3       9      0.667      -0.154 au  Si            1.00      1 P:z             1
                        (      -4.188 eV)
     4      10       --         0.156 au  Si            1.00      2 P:z             1
                        (       4.236 eV)
     5      11      2.000      -0.508 au  C             0.58      1 S               2
                        (     -13.825 eV)               0.58      1 S               3
                                                        0.58      1 S               4
     6      12       --         0.468 au  C             0.58      2 S               2
                        (      12.744 eV)               0.58      2 S               3
                                                        0.58      2 S               4
     7      13      0.667      -0.206 au  C             0.58      1 P:x             2
                        (      -5.593 eV)              -0.29      1 P:x             3
                                                        0.50      1 P:y             3
                                                       -0.29      1 P:x             4
                                                       -0.50      1 P:y             4
     8      14       --         0.432 au  C             0.58      2 P:x             2
                        (      11.759 eV)              -0.29      2 P:x             3
                                                        0.50      2 P:y             3
                                                       -0.29      2 P:x             4
                                                       -0.50      2 P:y             4
     9      15      0.667      -0.206 au  C             0.58      1 P:z             2
                        (      -5.593 eV)               0.58      1 P:z             3
                                                        0.58      1 P:z             4
    10      16       --         0.432 au  C             0.58      2 P:z             2
                        (      11.759 eV)               0.58      2 P:z             3
                                                        0.58      2 P:z             4
    11      17      1.000      -0.234 au  H             1.00      1 S               5
                        (      -6.379 eV)
    12      18       --         0.403 au  H             1.00      2 S               5
                        (      10.963 eV)
    13      19      1.000      -0.234 au  H             0.41      1 S               6
                        (      -6.379 eV)               0.41      1 S               7
                                                        0.41      1 S               9
                                                        0.41      1 S              10
                                                        0.41      1 S              12
                                                        0.41      1 S              13
    14      20       --         0.403 au  H             0.41      2 S               6
                        (      10.963 eV)               0.41      2 S               7
                                                        0.41      2 S               9
                                                        0.41      2 S              10
                                                        0.41      2 S              12
                                                        0.41      2 S              13
    15      21      1.000      -0.234 au  H             0.58      1 S               8
                        (      -6.379 eV)               0.58      1 S              11
                                                        0.58      1 S              14
    16      22       --         0.403 au  H             0.58      2 S               8
                        (      10.963 eV)               0.58      2 S              11
                                                        0.58      2 S              14



                                       === A2 ===
 Nr. of SFOs :    4
 Cartesian basis functions that participate in this irrep (total number =    22) :
     18    26    27    35    36    21    29    30    38    39
     43    45    49    51    55    57    44    46    50    52
     56    58

    SFO  (index         Fragment          Generating    Expansion in Fragment Orbitals
  indx  incl.CFs)   Occup   Orb.Energy   FragmentType  Coeff.   Orbital     on Fragment
 --------------------------------------------------------------------------------------
     1       1      0.667      -0.206 au  C             0.58      1 P:y             2
                        (      -5.593 eV)              -0.50      1 P:x             3
                                                       -0.29      1 P:y             3
                                                        0.50      1 P:x             4
                                                       -0.29      1 P:y             4
     2       2       --         0.432 au  C             0.58      2 P:y             2
                        (      11.759 eV)              -0.50      2 P:x             3
                                                       -0.29      2 P:y             3
                                                        0.50      2 P:x             4
                                                       -0.29      2 P:y             4
     3       3      1.000      -0.234 au  H             0.41      1 S               6
                        (      -6.379 eV)              -0.41      1 S               7
                                                        0.41      1 S               9
                                                       -0.41      1 S              10
                                                        0.41      1 S              12
                                                       -0.41      1 S              13
     4       4       --         0.403 au  H             0.41      2 S               6
                        (      10.963 eV)              -0.41      2 S               7
                                                        0.41      2 S               9
                                                       -0.41      2 S              10
                                                        0.41      2 S              12
                                                       -0.41      2 S              13



                                       === E1:1 ===
 Nr. of SFOs :   16
 Cartesian basis functions that participate in this irrep (total number =    46) :
      3    14    23    32     8    11    15    24    33    16
     25    34    19    28    37    22    31    40    17    26
     27    35    36    20    29    30    38    39    43    45
     49    51    55    57    44    46    50    52    56    58
     47    53    59    48    54    60

    SFO  (index         Fragment          Generating    Expansion in Fragment Orbitals
  indx  incl.CFs)   Occup   Orb.Energy   FragmentType  Coeff.   Orbital     on Fragment
 --------------------------------------------------------------------------------------
     1       5      0.667      -0.154 au  Si            1.00      1 P:x             1
                        (      -4.188 eV)
     2       6       --         0.156 au  Si            1.00      2 P:x             1
                        (       4.236 eV)
     3       7      2.000      -0.508 au  C             0.82      1 S               2
                        (     -13.825 eV)              -0.41      1 S               3
                                                       -0.41      1 S               4
     4       8       --         0.468 au  C             0.82      2 S               2
                        (      12.744 eV)              -0.41      2 S               3
                                                       -0.41      2 S               4
     5       9      0.667      -0.206 au  C             0.82      1 P:x             2
                        (      -5.593 eV)               0.20      1 P:x             3
                                                       -0.35      1 P:y             3
                                                        0.20      1 P:x             4
                                                        0.35      1 P:y             4
     6      10       --         0.432 au  C             0.82      2 P:x             2
                        (      11.759 eV)               0.20      2 P:x             3
                                                       -0.35      2 P:y             3
                                                        0.20      2 P:x             4
                                                        0.35      2 P:y             4
     7      11      0.667      -0.206 au  C             0.82      1 P:z             2
                        (      -5.593 eV)              -0.41      1 P:z             3
                                                       -0.41      1 P:z             4
     8      12       --         0.432 au  C             0.82      2 P:z             2
                        (      11.759 eV)              -0.41      2 P:z             3
                                                       -0.41      2 P:z             4
     9      13      0.667      -0.206 au  C             0.61      1 P:x             3
                        (      -5.593 eV)               0.35      1 P:y             3
                                                        0.61      1 P:x             4
                                                       -0.35      1 P:y             4
    10      14       --         0.432 au  C             0.61      2 P:x             3
                        (      11.759 eV)               0.35      2 P:y             3
                                                        0.61      2 P:x             4
                                                       -0.35      2 P:y             4
    11      15      1.000      -0.234 au  H             0.58      1 S               6
                        (      -6.379 eV)               0.58      1 S               7
                                                       -0.29      1 S               9
                                                       -0.29      1 S              10
                                                       -0.29      1 S              12
                                                       -0.29      1 S              13
    12      16       --         0.403 au  H             0.58      2 S               6
                        (      10.963 eV)               0.58      2 S               7
                                                       -0.29      2 S               9
                                                       -0.29      2 S              10
                                                       -0.29      2 S              12
                                                       -0.29      2 S              13
    13      17      1.000      -0.234 au  H             0.50      1 S               9
                        (      -6.379 eV)              -0.50      1 S              10
                                                       -0.50      1 S              12
                                                        0.50      1 S              13
    14      18       --         0.403 au  H             0.50      2 S               9
                        (      10.963 eV)              -0.50      2 S              10
                                                       -0.50      2 S              12
                                                        0.50      2 S              13
    15      19      1.000      -0.234 au  H             0.82      1 S               8
                        (      -6.379 eV)              -0.41      1 S              11
                                                       -0.41      1 S              14
    16      20       --         0.403 au  H             0.82      2 S               8
                        (      10.963 eV)              -0.41      2 S              11
                                                       -0.41      2 S              14



                                       === E1:2 ===
 Nr. of SFOs :   16
 Cartesian basis functions that participate in this irrep (total number =    39) :
      4    23    32     9    12    24    33    25    34    28
     37    31    40    18    26    27    35    36    21    29
     30    38    39    43    45    49    51    55    57    44
     46    50    52    56    58    53    59    54    60

    SFO  (index         Fragment          Generating    Expansion in Fragment Orbitals
  indx  incl.CFs)   Occup   Orb.Energy   FragmentType  Coeff.   Orbital     on Fragment
 --------------------------------------------------------------------------------------
     1       4      0.667      -0.154 au  Si            1.00      1 P:y             1
                        (      -4.188 eV)
     2       5       --         0.156 au  Si            1.00      2 P:y             1
                        (       4.236 eV)
     3       6      2.000      -0.508 au  C             0.71      1 S               3
                        (     -13.825 eV)              -0.71      1 S               4
     4       7       --         0.468 au  C             0.71      2 S               3
                        (      12.744 eV)              -0.71      2 S               4
     5       8      0.667      -0.206 au  C            -0.35      1 P:x             3
                        (      -5.593 eV)               0.61      1 P:y             3
                                                        0.35      1 P:x             4
                                                        0.61      1 P:y             4
     6       9       --         0.432 au  C            -0.35      2 P:x             3
                        (      11.759 eV)               0.61      2 P:y             3
                                                        0.35      2 P:x             4
                                                        0.61      2 P:y             4
     7      10      0.667      -0.206 au  C             0.71      1 P:z             3
                        (      -5.593 eV)              -0.71      1 P:z             4
     8      11       --         0.432 au  C             0.71      2 P:z             3
                        (      11.759 eV)              -0.71      2 P:z             4
     9      12      0.667      -0.206 au  C             0.82      1 P:y             2
                        (      -5.593 eV)               0.35      1 P:x             3
                                                        0.20      1 P:y             3
                                                       -0.35      1 P:x             4
                                                        0.20      1 P:y             4
    10      13       --         0.432 au  C             0.82      2 P:y             2
                        (      11.759 eV)               0.35      2 P:x             3
                                                        0.20      2 P:y             3
                                                       -0.35      2 P:x             4
                                                        0.20      2 P:y             4
    11      14      1.000      -0.234 au  H             0.50      1 S               9
                        (      -6.379 eV)               0.50      1 S              10
                                                       -0.50      1 S              12
                                                       -0.50      1 S              13
    12      15       --         0.403 au  H             0.50      2 S               9
                        (      10.963 eV)               0.50      2 S              10
                                                       -0.50      2 S              12
                                                       -0.50      2 S              13
    13      16      1.000      -0.234 au  H            -0.58      1 S               6
                        (      -6.379 eV)               0.58      1 S               7
                                                        0.29      1 S               9
                                                       -0.29      1 S              10
                                                        0.29      1 S              12
                                                       -0.29      1 S              13
    14      17       --         0.403 au  H            -0.58      2 S               6
                        (      10.963 eV)               0.58      2 S               7
                                                        0.29      2 S               9
                                                       -0.29      2 S              10
                                                        0.29      2 S              12
                                                       -0.29      2 S              13
    15      18      1.000      -0.234 au  H             0.71      1 S              11
                        (      -6.379 eV)              -0.71      1 S              14
    16      19       --         0.403 au  H             0.71      2 S              11
                        (      10.963 eV)              -0.71      2 S              14



 ================================
 (Slater-type)  F U N C T I O N S  ***  (Basis and Fit)  ***
 ================================
  

 Atom Type    1  (Si)
 ==============

 Valence Basis Sets:   7
 -----------------------
   1 S   11.700000
   2 S    4.650000
   2 P    5.250000
   3 S    1.250000
   3 S    2.000000
   3 P    0.850000
   3 P    1.600000

 Frozen Core Shells
 ------------------
    S:  2
    P:  1

 Atom Type    2  (C)
 ==============

 Valence Basis Sets:   5
 -----------------------
   1 S    5.400000
   2 S    1.240000
   2 S    1.980000
   2 P    0.960000
   2 P    2.200000

 Frozen Core Shells
 ------------------
    S:  1

 Atom Type    3  (H)
 ==============

 Valence Basis Sets:   2
 -----------------------
   1 S    0.760000
   1 S    1.280000


 BAS: List of all Elementary Cartesian Basis Functions
 =====================================================

 The numbering in the list below (to the right of the function characteristics) is referred
 to in print-outs of MO eigenvectors and Mulliken populations in the BAS representation
 (as contrasted to the SFO representation).

 Notes:
 1. The functions are characterized by a polynomial prefactor (powers of x,y,z and r) and
    an exponential decay factor alpha.
 2. Since the basis sets are specific for an atom TYPE, the individual functions occur on
    all atoms of that type.
 3. The word 'Core' in the left margin signals that it is a Core Function (CF) : not a
    degree of freedom in the valence set, but only used to ensure orthogonalization of
    the other valence basis functions on the frozen Core Orbitals.


 (power of) X  Y  Z  R     Alpha  on Atom
            ==========     =====     ==========

 Si                                   1
                                  ---------------------------------------------------------------------------
    Core    0  0  0  0    11.700      1
    Core    0  0  0  1     4.650      2
    Core    1  0  0  0     5.250      3
    Core    0  1  0  0     5.250      4
    Core    0  0  1  0     5.250      5
            0  0  0  2     1.250      6
            0  0  0  2     2.000      7
            1  0  0  1     0.850      8
            0  1  0  1     0.850      9
            0  0  1  1     0.850     10
            1  0  0  1     1.600     11
            0  1  0  1     1.600     12
            0  0  1  1     1.600     13

 C                                    2    3    4
                                  ---------------------------------------------------------------------------
    Core    0  0  0  0     5.400     14   23   32
            0  0  0  1     1.240     15   24   33
            0  0  0  1     1.980     16   25   34
            1  0  0  0     0.960     17   26   35
            0  1  0  0     0.960     18   27   36
            0  0  1  0     0.960     19   28   37
            1  0  0  0     2.200     20   29   38
            0  1  0  0     2.200     21   30   39
            0  0  1  0     2.200     22   31   40

 H                                    5    6    7    8    9   10   11   12   13   14
                                  ---------------------------------------------------------------------------
            0  0  0  0     0.760     41   43   45   47   49   51   53   55   57   59
            0  0  0  0     1.280     42   44   46   48   50   52   54   56   58   60

 Total number of charge fitting functions (nprimf)       849
 Total number of Cartesian basis functions (naos)         60
 Total number of Cartesian core functions  (ncos)          8

1
 ***************************************************************************************************



                                              ***********************
                                              *  T E C H N I C A L  *
                                              ***********************
  



 =============================================================
 P A R A L L E L I Z A T I O N  and  V E C T O R I Z A T I O N
 =============================================================
  
 Nr of parallel processes:                                4
 Maximum vector length in NumInt loops:                 128



 =====================
 S C F   U P D A T E S
 =====================
  
 Max. nr. of cycles:                               300
 Convergence criterion:                              0.0000010000
   secondary criterion:                              0.0010000000

 Mix parameter (when DIIS does not apply):           0.2000000000
 Mixed ADIIS+SDIIS will be used                  
    Max number of expansion vectors:                10
    Pure ADIIS when Max([F,P]) is above              0.1000000000
    Pure SDIIS when Max([F,P]) is below              0.0010000000
 Automatic ElectronSmearing (in case of problematic SCF convergence) disabled



 =================
 P R E C I S I O N  ***  (General: NumInt, NeglectFunctionTails, ...)  ***
 =================
  

 NumInt:           Target precision:                 4.0000000000
 -------           Initial precision:                4.0000000000
                   Min. precision (optimization):    4.0000000000

 Neglect Functions:          Basis functions:        0.1000000000E-05
 ------------------          Fit functions:          0.1000000000E-05



 ===========================
 L I N E A R   S C A L I N G
 ===========================
  

 Cut-off radii density fit:                        0.1000000000E-07
 Overlap cut-off criterion AO matrix elements:     0.1000000000E-05
 Cut-offs for Coulomb potential and fitted density:0.1000000000E-07
 Cut-off criterion for Coulomb multipole terms:    0.1000000000E-07
 Progressive Convergence parameter:                 0.000000000    

 Number of elements of the density matrix on this node (used, total):       469      1830



 ===========================================
 Numerical Integration : Fuzzy Cells (Becke)
 ===========================================
  
 Becke grid quality: NORMAL         
  
 Lebedev angular grid order:             min:  11 max:  23
 Nr. of radial points:                   min:  46 max:  55

 Total nr. of points:     151704
 Nr. of blocks:             1188
 Block length:               128
 Nr. of dummy points:        360


 Test of Precision of the Numerical Integration Grid
 ===================================================

 Integral of the Total Core Density:                  16.00002639017535
 Relative Error:                                       1.649E-06



 ========================
 Density Fitting (zlmFit)
 ========================
  
 ZlmFit Fit Quality: NORMAL         
  
 Max L-expansion:                        min:   4 max:   5
 Nr. of radial interpolation points:     min:  36 max:  54



 =====
 S C F  ***  ScaSCF  ***
 =====
  
 Initial density matrix is taken from previous geometry

 CYCLE    1
  ***********************************************************
  ** : orbital data taken from :/tmp/amstmp_ams_kid0.182064960/GOStep6.rkf
  ***********************************************************
 SCF Error: norm([F,P])=      0.000579437038, max([F,P])=      0.000176650967
 orbitals (Q,E):
 ---------------
 A1 :1...14          ( 2.00    -0.6544)  ( 2.00    -0.4452)  ( 2.00    -0.3843)  ( 2.00    -0.2805)
                     ( 0.00     0.0018)  ( 0.00     0.0556)  ( 0.00     0.0888)  ( 0.00     0.0991)
                     ( 0.00     0.2227)  ( 0.00     0.4693)  ( 0.00     0.6369)  ( 0.00     0.6948)
                     ( 0.00     0.8098)  ( 0.00     0.8444)
 A2 :1...4           ( 2.00    -0.3472)  ( 0.00     0.1442)  ( 0.00     0.6938)  ( 0.00     0.9894)
 E1 :1...14          ( 4.00    -0.6180)  ( 4.00    -0.3731)  ( 4.00    -0.3558)  ( 4.00    -0.2801)
                     ( 0.00     0.0209)  ( 0.00     0.0885)  ( 0.00     0.1229)  ( 0.00     0.1328)
                     ( 0.00     0.3078)  ( 0.00     0.3772)  ( 0.00     0.5933)  ( 0.00     0.7222)
                     ( 0.00     0.8352)  ( 0.00     0.9275)

 CYCLE    2
  SDIIS (wt  0.000):  0.3438  0.6562
 A-DIIS (wt  1.000):  0.0000  1.0000
  DIIS coefficients:  0.0000  1.0000
 SCF Error: norm([F,P])=      0.000318817108, max([F,P])=      0.000118783723
 orbitals (Q,E):
 ---------------
 A1 :1...5           ( 2.00    -0.6544)  ( 2.00    -0.4452)  ( 2.00    -0.3843)  ( 2.00    -0.2805)
                     ( 0.00     0.0018)
 A2 :1...2           ( 2.00    -0.3472)  ( 0.00     0.1442)
 E1 :1...5           ( 4.00    -0.6180)  ( 4.00    -0.3731)  ( 4.00    -0.3559)  ( 4.00    -0.2801)
                     ( 0.00     0.0209)

 CYCLE    3
  SDIIS (wt  0.000):  0.1350  0.5244  0.3405
 A-DIIS (wt  1.000):  0.0000  0.4611  0.5389
  DIIS coefficients:  0.0000  0.4611  0.5389
 SCF Error: norm([F,P])=      0.000315913379, max([F,P])=      0.000116461253
 orbitals (Q,E):
 ---------------
 A1 :1...5           ( 2.00    -0.6544)  ( 2.00    -0.4452)  ( 2.00    -0.3843)  ( 2.00    -0.2805)
                     ( 0.00     0.0018)
 A2 :1...2           ( 2.00    -0.3472)  ( 0.00     0.1442)
 E1 :1...5           ( 4.00    -0.6180)  ( 4.00    -0.3731)  ( 4.00    -0.3558)  ( 4.00    -0.2801)
                     ( 0.00     0.0209)

 CYCLE    4
  SDIIS (wt  1.000):  0.2331  0.3223  0.4446
  DIIS coefficients:  0.2331  0.3223  0.4446
 SCF Error: norm([F,P])=      0.000105822699, max([F,P])=      0.000025119399
 orbitals (Q,E):
 ---------------
 A1 :1...5           ( 2.00    -0.6544)  ( 2.00    -0.4452)  ( 2.00    -0.3843)  ( 2.00    -0.2805)
                     ( 0.00     0.0018)
 A2 :1...2           ( 2.00    -0.3472)  ( 0.00     0.1442)
 E1 :1...5           ( 4.00    -0.6180)  ( 4.00    -0.3731)  ( 4.00    -0.3558)  ( 4.00    -0.2801)
                     ( 0.00     0.0209)

 CYCLE    5
  SDIIS (wt  1.000):  0.0896  0.1329  0.2033  0.5743
  DIIS coefficients:  0.0896  0.1329  0.2033  0.5743
 SCF Error: norm([F,P])=      0.000011219734, max([F,P])=      0.000004709375
 orbitals (Q,E):
 ---------------
 A1 :1...5           ( 2.00    -0.6544)  ( 2.00    -0.4452)  ( 2.00    -0.3843)  ( 2.00    -0.2805)
                     ( 0.00     0.0018)
 A2 :1...2           ( 2.00    -0.3472)  ( 0.00     0.1442)
 E1 :1...5           ( 4.00    -0.6180)  ( 4.00    -0.3731)  ( 4.00    -0.3558)  ( 4.00    -0.2801)
                     ( 0.00     0.0209)

 CYCLE    6
  SDIIS (wt  1.000):  0.0217  0.0336  0.0530  0.2111  0.6806
  DIIS coefficients:  0.0217  0.0336  0.0530  0.2111  0.6806
 SCF Error: norm([F,P])=      0.000001736346, max([F,P])=      0.000000587081
 orbitals (Q,E):
 ---------------
 A1 :1...5           ( 2.00    -0.6544)  ( 2.00    -0.4452)  ( 2.00    -0.3843)  ( 2.00    -0.2805)
                     ( 0.00     0.0018)
 A2 :1...2           ( 2.00    -0.3472)  ( 0.00     0.1442)
 E1 :1...5           ( 4.00    -0.6180)  ( 4.00    -0.3731)  ( 4.00    -0.3558)  ( 4.00    -0.2801)
                     ( 0.00     0.0209)

 SCF CONVERGED

 CYCLE    7
1
 ***************************************************************************************************



                                                *******************
                                                *  R E S U L T S  *
                                                *******************
  
 *** Using FIT density in Focky
  SDIIS (wt  1.000):  0.0081  0.0126  0.0200  0.0818  0.2914  0.5861
  DIIS coefficients:  0.0081  0.0126  0.0200  0.0818  0.2914  0.5861
 SCF Error: norm([F,P])=      0.000000267605, max([F,P])=      0.000000086686

 Scaled ZORA Orbital Energies, per Irrep and Spin:
 =================================================
                        Occup              E (au)              E (eV)       Diff (eV) with prev. cycle
                        -----      --------------------        ------       --------------------------
 A1
               1        2.000     -0.65436306500257E+00       -17.806              -3.03E-07
               2        2.000     -0.44519934907086E+00       -12.114              -1.30E-06
               3        2.000     -0.38430083753236E+00       -10.457              -1.45E-07
               4        2.000     -0.28050309146248E+00        -7.633              -2.02E-06
               5        0.000      0.18143760848801E-02         0.049
               6        0.000      0.55616633544687E-01         1.513
               7        0.000      0.88813507649858E-01         2.417
               8        0.000      0.99124829548846E-01         2.697
               9        0.000      0.22267541761975E+00         6.059
              10        0.000      0.46928469804635E+00        12.770
              11        0.000      0.63691619038861E+00        17.331
              12        0.000      0.69476108541441E+00        18.905
              13        0.000      0.80984895376027E+00        22.037
              14        0.000      0.84441975404138E+00        22.978
 A2
               1        2.000     -0.34716681251143E+00        -9.447              -5.80E-08
               2        0.000      0.14417416904576E+00         3.923
               3        0.000      0.69384035204686E+00        18.880
               4        0.000      0.98940174104308E+00        26.923
 E1
               1        4.000     -0.61797004347039E+00       -16.816              -7.31E-09
               2        4.000     -0.37306534176221E+00       -10.152              -1.44E-07
               3        4.000     -0.35582352201528E+00        -9.682               2.03E-07
               4        4.000     -0.28007219588409E+00        -7.621              -5.23E-07
               5        0.000      0.20919947274212E-01         0.569
               6        0.000      0.88483428390355E-01         2.408
               7        0.000      0.12286271688672E+00         3.343
               8        0.000      0.13273906531390E+00         3.612
               9        0.000      0.30776082078827E+00         8.375
              10        0.000      0.37717082973128E+00        10.263
              11        0.000      0.59334331247016E+00        16.146
              12        0.000      0.72221095655363E+00        19.652
              13        0.000      0.83516913473039E+00        22.726
              14        0.000      0.92745630211437E+00        25.237
  
 HOMO :        4 E1               -0.28007219588409E+00
 LUMO :        5 A1                0.18143760848801E-02
  


 Orbital Energies, all Irreps
 ========================================

 Irrep        no.  (spin)   Occup              E (au)                E (eV)
 ---------------------------------------------------------------------------
 A1            1             2.00       -0.65436306500257E+00       -17.8061
 E1            1             4.00       -0.61797004347039E+00       -16.8158
 A1            2             2.00       -0.44519934907086E+00       -12.1145
 A1            3             2.00       -0.38430083753236E+00       -10.4574
 E1            2             4.00       -0.37306534176221E+00       -10.1516
 E1            3             4.00       -0.35582352201528E+00        -9.6825
 A2            1             2.00       -0.34716681251143E+00        -9.4469
 A1            4             2.00       -0.28050309146248E+00        -7.6329
 E1            4             4.00       -0.28007219588409E+00        -7.6212
 A1            5             0.00        0.18143760848801E-02         0.0494
 E1            5             0.00        0.20919947274212E-01         0.5693
 A1            6             0.00        0.55616633544687E-01         1.5134
 E1            6             0.00        0.88483428390355E-01         2.4078
 A1            7             0.00        0.88813507649858E-01         2.4167
 A1            8             0.00        0.99124829548846E-01         2.6973
 E1            7             0.00        0.12286271688672E+00         3.3433
 E1            8             0.00        0.13273906531390E+00         3.6120
 A2            2             0.00        0.14417416904576E+00         3.9232
 A1            9             0.00        0.22267541761975E+00         6.0593
 E1            9             0.00        0.30776082078827E+00         8.3746
 E1           10             0.00        0.37717082973128E+00        10.2633
 A1           10             0.00        0.46928469804635E+00        12.7699
 E1           11             0.00        0.59334331247016E+00        16.1457
 A1           11             0.00        0.63691619038861E+00        17.3314
 A2            3             0.00        0.69384035204686E+00        18.8804
 A1           12             0.00        0.69476108541441E+00        18.9054
 E1           12             0.00        0.72221095655363E+00        19.6524
 A1           13             0.00        0.80984895376027E+00        22.0371
 E1           13             0.00        0.83516913473039E+00        22.7261
 A1           14             0.00        0.84441975404138E+00        22.9778
 E1           14             0.00        0.92745630211437E+00        25.2374
 E1           15             0.00        0.96026491186755E+00        26.1301
 A2            4             0.00        0.98940174104308E+00        26.9230
 A1           15             0.00        0.10402349965049E+01        28.3062
 E1           16             0.00        0.13712459858075E+01        37.3135
 A1           16             0.00        0.16325680472135E+01        44.4244


 Scaled ZORA Orbital Energies of the Core Orbitals:
 ==================================================

 (Note that the atoms are grouped by atomtype, see the labels, and may hence NOT be in input order)

 AtomType  Orbital  Atom                   E (au)                        E (eV)
 --------  -------  ----           --------------------        ----------------
 Si          1S        1          -0.65245875007480E+02               -1775.431
             2S        1          -0.50377920676299E+01                -137.085
             2P        1          -0.34464467351281E+01                 -93.783
 C           1S        2          -0.97857436089817E+01                -266.284
                       3          -0.97857436089817E+01                -266.284
                       4          -0.97857436089817E+01                -266.284


 Fit test: (difference of exact and fit density, squared integrated, result summed over spins)
         Sum-of-Fragments:                             0.00000000000638
         Orthogonalized Fragments:                     0.00056464306003
         SCF:                                          0.00177008186675



 ==========================
 Electron Density at Nuclei
 ==========================
  
 The electron density is calculated at points on a small sphere around the center of a nucleus.
 The printed electron density is the average electron density on these points.
 The radius of the sphere is the printed approximate finite nuclear radius.
 Note: ZORA-4 density is used, which includes small component density

         Atom        Nuclear Radius (Angstrom)             Electron Density (a.u.)
         ----        -------------------------             -----------------------
     1)   Si                0.0000401317                             1885.92877
     2)   C                 0.0000320678                              126.84871
     3)   C                 0.0000320678                              126.84871
     4)   C                 0.0000320678                              126.84871
     5)   H                 0.0000181514                                0.42449
     6)   H                 0.0000181514                                0.46647
     7)   H                 0.0000181514                                0.46647
     8)   H                 0.0000181514                                0.46598
     9)   H                 0.0000181514                                0.46647
    10)   H                 0.0000181514                                0.46647
    11)   H                 0.0000181514                                0.46598
    12)   H                 0.0000181514                                0.46647
    13)   H                 0.0000181514                                0.46647
    14)   H                 0.0000181514                                0.46598



 =======================================
 M U L L I K E N   P O P U L A T I O N S
 =======================================
  
 The survey below gives for each atom:
 a) the total charge (Z minus electrons)
 b) the net spin polarization (nr of electrons spin-A minus spin-B)
 c) for each spin the atomic electron valence density (integrated) per L-value.

 Atom              Charge    Spin density          S         P         D         F
 ----              ------    ------------       ------    ------    ------    ------
 1 Si              0.9975                       1.1622    1.8403    0.0000    0.0000
 2 C              -1.2114                       1.5194    3.6920    0.0000    0.0000
 3 C              -1.2114                       1.5194    3.6920    0.0000    0.0000
 4 C              -1.2114                       1.5194    3.6920    0.0000    0.0000
 5 H              -0.0930                       1.0930    0.0000    0.0000    0.0000
 6 H               0.3050                       0.6950    0.0000    0.0000    0.0000
 7 H               0.3050                       0.6950    0.0000    0.0000    0.0000
 8 H               0.2999                       0.7001    0.0000    0.0000    0.0000
 9 H               0.3050                       0.6950    0.0000    0.0000    0.0000
 10 H              0.3050                       0.6950    0.0000    0.0000    0.0000
 11 H              0.2999                       0.7001    0.0000    0.0000    0.0000
 12 H              0.3050                       0.6950    0.0000    0.0000    0.0000
 13 H              0.3050                       0.6950    0.0000    0.0000    0.0000
 14 H              0.2999                       0.7001    0.0000    0.0000    0.0000

 Populations of individual BAS functions
 ----------------------------------------
 1 Si          -0.0023  0.0122  0.0194  0.0194  0.0198  0.2802  0.8722 -0.0477 -0.0477 -0.0221
                0.6039  0.6039  0.6913
 2 C            0.0006  0.8088  0.7101  0.6747  0.6617  0.6599  0.5589  0.5696  0.5671
 3 C            0.0006  0.8088  0.7101  0.6650  0.6714  0.6599  0.5669  0.5615  0.5671
 4 C            0.0006  0.8088  0.7101  0.6650  0.6714  0.6599  0.5669  0.5615  0.5671
 5 H            0.4217  0.6713
 6 H           -0.1843  0.8793
 7 H           -0.1843  0.8793
 8 H           -0.1763  0.8764
 9 H           -0.1843  0.8793
 10 H          -0.1843  0.8793
 11 H          -0.1763  0.8764
 12 H          -0.1843  0.8793
 13 H          -0.1843  0.8793
 14 H          -0.1763  0.8764

 Gross Charges per Atom (Z minus electrons)
 ==========================================
             0.9975   -1.2114   -1.2114   -1.2114   -0.0930    0.3050    0.3050    0.2999    0.3050    0.3050
             0.2999    0.3050    0.3050    0.2999
 Net Total: -0.00000000


 Atom-Atom Population Matrix (off-diagonal elements not doubled)
 ===============================================================

     1 :     1.9084
     2 :     0.2841    4.0670
     3 :     0.2841   -0.0720    4.0670
     4 :     0.2841   -0.0720   -0.0720    4.0670
     5 :     0.3932   -0.0611   -0.0611   -0.0611    0.8852
     6 :    -0.0184    0.3585    0.0043   -0.0025   -0.0028    0.3832
     7 :    -0.0184    0.3585   -0.0025    0.0043   -0.0028   -0.0134    0.3832
     8 :    -0.0137    0.3539   -0.0045   -0.0045    0.0049   -0.0145   -0.0145    0.3909
     9 :    -0.0184   -0.0025    0.3585    0.0043   -0.0028    0.0001    0.0007   -0.0005    0.3832
    10 :    -0.0184    0.0043    0.3585   -0.0025   -0.0028   -0.0000    0.0001    0.0001   -0.0134    0.3832
    11 :    -0.0137   -0.0045    0.3539   -0.0045    0.0049    0.0001   -0.0005    0.0014   -0.0145   -0.0145
             0.3909
    12 :    -0.0184    0.0043   -0.0025    0.3585   -0.0028    0.0001   -0.0000    0.0001    0.0001    0.0007
            -0.0005    0.3832
    13 :    -0.0184   -0.0025    0.0043    0.3585   -0.0028    0.0007    0.0001   -0.0005   -0.0000    0.0001
             0.0001   -0.0134    0.3832
    14 :    -0.0137   -0.0045   -0.0045    0.3539    0.0049   -0.0005    0.0001    0.0014    0.0001   -0.0005
             0.0014   -0.0145   -0.0145    0.3909



 =================================================
 H I R S H F E L D   C H A R G E   A N A L Y S I S
 =================================================
  
 For each fragment: the (numerical) integral of rho(scf) * rho(fragment)/rho(sum-of-fragments)
 (nuclear charges are included, electrons are counted negative)

 The fragments and their ordering are defined in the early G E O M E T R Y output section.
 If you use single-atom fragments, this usually implies that all atoms of the same
 chemical type are grouped together. This may not be the order in which you listed them
 in the input file!

    1  Si                        0.3607
    2  C                        -0.2233
    3  C                        -0.2233
    4  C                        -0.2233
    5  H                        -0.0770
    6  H                         0.0432
    7  H                         0.0432
    8  H                         0.0423
    9  H                         0.0432
   10  H                         0.0432
   11  H                         0.0423
   12  H                         0.0432
   13  H                         0.0432
   14  H                         0.0423

 Sum of these charges (accuracy NumInt/Tails) =          -0.00005162



 =============================
 V O R O N O I   C H A R G E S
 =============================
  
 For each atom: the (numerical) integral of the total electronic charge density in its Voronoi cell,
 i.e. the region of space that is closer to that atom than to any other atom.
 (cf. Wigner-Seitz cells in crystals)

 Within the Voronoi cell the subintegrals over the atomic sphere and the remaining part are evaluated
 separately to give the numbers of electrons (negative charge) in these regions.
 The net total charge in the cell (including the nuclear charge) is also given.

 Values are provided for
    a) the Initial (sum-of-fragments) density
    b) the Orthogonalized-Fragments density
    c) the SCF density
    d) the Voronoi Deformation Density (VDD): the difference SCF-Initial for the complete atomic cell


  Atom                Initial                    OrthFrag                   SCF
             Sphere RestCell NetTotal   Sphere RestCell NetTotal   Sphere RestCell NetTotal      VDD
 -----       ------------------------   ------------------------   ------------------------    -----
    1 Si     -9.063   -3.533    1.403   -9.113   -3.738    1.149   -9.064   -3.288    1.647    0.244
    2 C      -2.135   -2.531    1.335   -2.267   -2.809    0.925   -2.157   -2.748    1.096   -0.239
    3 C      -2.135   -2.531    1.335   -2.267   -2.809    0.925   -2.157   -2.748    1.096   -0.239
    4 C      -2.135   -2.531    1.335   -2.267   -2.809    0.925   -2.157   -2.748    1.096   -0.239
    5 H      -0.064   -1.533   -0.597   -0.096   -1.423   -0.519   -0.093   -1.557   -0.650   -0.053
    6 H      -0.070   -1.465   -0.536   -0.093   -1.288   -0.381   -0.101   -1.376   -0.477    0.058
    7 H      -0.070   -1.465   -0.536   -0.093   -1.288   -0.381   -0.101   -1.376   -0.477    0.058
    8 H      -0.071   -1.462   -0.532   -0.094   -1.279   -0.373   -0.101   -1.372   -0.473    0.059
    9 H      -0.070   -1.465   -0.536   -0.093   -1.288   -0.381   -0.101   -1.376   -0.477    0.058
   10 H      -0.070   -1.465   -0.536   -0.093   -1.288   -0.381   -0.101   -1.376   -0.477    0.058
   11 H      -0.071   -1.462   -0.532   -0.094   -1.279   -0.373   -0.101   -1.372   -0.473    0.059
   12 H      -0.070   -1.465   -0.536   -0.093   -1.288   -0.381   -0.101   -1.376   -0.477    0.058
   13 H      -0.070   -1.465   -0.536   -0.093   -1.288   -0.381   -0.101   -1.376   -0.477    0.058
   14 H      -0.071   -1.462   -0.532   -0.094   -1.279   -0.373   -0.101   -1.372   -0.473    0.059
 ---------------------------------------------------------------------------------------------------
 Total NetCharge:              -0.000                     -0.000                     -0.000    0.000
 (accuracy NumInt/Tails)

 Remark: the 'NetTotal' Voronoi charges often do not match the Mulliken and/or Hirshfeld charges very
 well. This is caused by the fact that chemically different atoms are not treated in accordance with
 their relative sizes. (Voronoi cells are defined by boundary planes halfway between the atoms.)
 However, the CHANGES in charge, comparing 'Initial' to 'SCF' for instance, do give a fair indication
 of the flow of charge caused by the relaxation from sum-of-fragments to self-consistency.

 Warning: the absolute accuracy of the VDD charges obtained using the Fuzzy Cells (Becke) integration
 scheme is much poorer than the one obtained with an 'equivalent' Voronoi integration grid. 



 =================================================================
 M U L T I P O L E   D E R I V E D   C H A R G E   A N A L Y S I S
 =================================================================

 This charge analysis uses the atomic multipoles (obtained from the fitted density) up to some level X,
 and reconstructs these multipoles exactly (up to level X) by distributing charges over all atoms.
 This is achieved by using Lagrange multipliers and a weight function to keep the multipoles local.

 Dummy atoms can be included (by setting INCDUM in MDC-block to 1) to obtain a fractional charge.
 This is generally useful and necessary only for small symmetrical molecules, when there are not
 enough degrees of freedom to reconstruct the multipoles.

 Since the atomic multipoles are reconstructed up to level X,
 the molecular multipoles are represented also up to level X.
 The recommended level is to reconstruct up to quadrupole : -> MDC-q charges.

 See: M. Swart, P.Th. van Duijnen, J.G. Snijders, J.Comput.Chem., (2001), p. 79-88.

 ------------------------------------------------------------- 
 Atomic electronic multipole moments from SCF equations (a.u.)
 ------------------------------------------------------------- 

   atom        charge        dip-x     dip-y     dip-z      quad-xx   quad-xy   quad-xz   quad-yy   quad-yz   quad-zz
 --------------------------------------------------------------------------------------------------------------------
    1 Si     1.297972     0.000895  0.000000  0.021278    -0.000064  0.000000  0.006785  0.007298 -0.000000 -0.007234
    2 C     -0.104190     0.393457 -0.000000  0.149004    -0.244164  0.000000 -0.114482  0.178874  0.000000  0.065290
    3 C     -0.103423    -0.197951  0.339290  0.149347     0.071479  0.118062  0.059397 -0.133599 -0.098401  0.062119
    4 C     -0.103423    -0.197951 -0.339290  0.149347     0.071479 -0.118062  0.059397 -0.133599  0.098401  0.062119
    5 H     -0.335699     0.000047  0.000000 -0.012746    -0.144716  0.000000  0.000086 -0.145601  0.000000  0.290317
    6 H     -0.071947     0.014111  0.006938  0.011347    -0.073689 -0.098159 -0.058876  0.157370  0.072226 -0.083680
[...]
     4     C      -0.043911  -0.076983   0.030945
     5     H       0.000000  -0.004279   0.000000
     6     H      -0.001361   0.000299  -0.005445
     7     H       0.001361   0.000299   0.005445
     8     H      -0.000000   0.009350   0.000000
     9     H      -0.283804   0.210900   0.200885
    10     H      -0.039774   0.350364   0.195373
    11     H      -0.197394   0.351502  -0.026436
    12     H       0.039774   0.350364  -0.195373
    13     H       0.283804   0.210900  -0.200885
    14     H       0.197394   0.351502   0.026436
 
 Mode:    25      Frequency (cm-1):     1295.5920     Intensity (km/mol):       92.6650     Irrep: E
 Index  Atom      ---- Displacements (x/y/z) ----
     1    Si      -0.000445  -0.000000  -0.000000
     2     C       0.102125   0.000000   0.035700
     3     C       0.026343  -0.044100  -0.017929
     4     C       0.026343   0.044100  -0.017929
     5     H       0.004317   0.000000   0.000028
     6     H      -0.373173  -0.161745  -0.228576
     7     H      -0.373173   0.161745  -0.228576
     8     H      -0.464731  -0.000000   0.030487
     9     H      -0.164112   0.120712   0.110036
    10     H      -0.024132   0.204234   0.119547
    11     H      -0.123850   0.198214  -0.015321
    12     H      -0.024132  -0.204234   0.119547
    13     H      -0.164112  -0.120712   0.110036
    14     H      -0.123850  -0.198214  -0.015321
 
 Mode:    26      Frequency (cm-1):     1313.7028     Intensity (km/mol):       20.3978     Irrep: A1
 Index  Atom      ---- Displacements (x/y/z) ----
     1    Si      -0.000005  -0.000000   0.001541
     2     C       0.070479   0.000000   0.025164
     3     C      -0.035019   0.060715   0.024974
     4     C      -0.035019  -0.060715   0.024974
     5     H       0.000020  -0.000000  -0.009894
     6     H      -0.262389  -0.111361  -0.166662
     7     H      -0.262389   0.111361  -0.166662
     8     H      -0.334197  -0.000000   0.022696
     9     H       0.226597  -0.170576  -0.165474
    10     H       0.034399  -0.281667  -0.165382
    11     H       0.165921  -0.287670   0.022543
    12     H       0.034399   0.281667  -0.165382
    13     H       0.226597   0.170576  -0.165474
    14     H       0.165921   0.287670   0.022543
 
 Mode:    27      Frequency (cm-1):     1427.3709     Intensity (km/mol):        0.0000     Irrep: A2
 Index  Atom      ---- Displacements (x/y/z) ----
     1    Si       0.000000  -0.000000  -0.000000
     2     C       0.000000  -0.038372  -0.000000
     3     C       0.033224   0.019191  -0.000046
     4     C      -0.033224   0.019191   0.000046
     5     H      -0.000000  -0.000006  -0.000000
     6     H      -0.072887   0.037375  -0.263053
     7     H       0.072887   0.037375   0.263053
     8     H       0.000000   0.424351  -0.000000
     9     H       0.004303  -0.081798  -0.262729
    10     H      -0.068924   0.044127   0.263361
    11     H      -0.367616  -0.211929  -0.000033
    12     H       0.068924   0.044127  -0.263361
    13     H      -0.004303  -0.081798   0.262729
    14     H       0.367616  -0.211929   0.000033
 
 Mode:    28      Frequency (cm-1):     1434.6220     Intensity (km/mol):        3.6553     Irrep: E
 Index  Atom      ---- Displacements (x/y/z) ----
     1    Si      -0.000000  -0.001363  -0.000000
     2     C      -0.000000   0.004259   0.000000
     3     C       0.009591  -0.012272   0.043766
     4     C      -0.009591  -0.012272  -0.043766
     5     H       0.000000   0.010406  -0.000000
     6     H       0.004243  -0.004734   0.023484
     7     H      -0.004243  -0.004734  -0.023484
     8     H      -0.000000  -0.041402   0.000000
     9     H      -0.348710   0.054678  -0.315800
    10     H       0.120600   0.330856  -0.291537
    11     H       0.105718  -0.225618   0.030462
    12     H      -0.120600   0.330856   0.291537
    13     H       0.348710   0.054678   0.315800
    14     H      -0.105718  -0.225618  -0.030462
 
 Mode:    29      Frequency (cm-1):     1434.7100     Intensity (km/mol):        3.6546     Irrep: E
 Index  Atom      ---- Displacements (x/y/z) ----
     1    Si       0.001363  -0.000000   0.000035
     2     C       0.017813   0.000000  -0.050362
     3     C       0.001227  -0.009620   0.025417
     4     C       0.001227   0.009620   0.025417
     5     H      -0.010343   0.000000   0.000007
     6     H      -0.258050  -0.313477   0.349387
     7     H      -0.258050   0.313477   0.349387
     8     H       0.285446  -0.000000  -0.035050
     9     H      -0.200257   0.038915  -0.155718
    10     H       0.077411   0.190514  -0.197139
    11     H       0.103773  -0.106758   0.017694
    12     H       0.077411  -0.190514  -0.197139
    13     H      -0.200257  -0.038915  -0.155718
    14     H       0.103773   0.106758   0.017694
 
 Mode:    30      Frequency (cm-1):     1443.2365     Intensity (km/mol):       29.2301     Irrep: E
 Index  Atom      ---- Displacements (x/y/z) ----
     1    Si       0.005549  -0.000000  -0.000016
     2     C      -0.000237  -0.000000  -0.003113
     3     C       0.038226   0.022238   0.001455
     4     C       0.038226  -0.022238   0.001455
     5     H      -0.017221   0.000000  -0.000004
     6     H      -0.013969  -0.019224   0.025630
     7     H      -0.013969   0.019224   0.025630
     8     H       0.029525   0.000000  -0.003186
     9     H      -0.002043  -0.104163  -0.334712
    10     H      -0.082170   0.070483   0.310590
    11     H      -0.438719  -0.269559   0.001520
    12     H      -0.082170  -0.070483   0.310590
    13     H      -0.002043   0.104163  -0.334712
    14     H      -0.438719   0.269559   0.001520
 
 Mode:    31      Frequency (cm-1):     1443.2479     Intensity (km/mol):       29.2107     Irrep: E
 Index  Atom      ---- Displacements (x/y/z) ----
     1    Si      -0.000000  -0.005548   0.000000
     2     C       0.000000  -0.051066   0.000000
     3     C      -0.022224  -0.012566   0.002616
     4     C       0.022224  -0.012566  -0.002616
     5     H       0.000000   0.017237   0.000000
     6     H      -0.110489   0.051818  -0.372577
     7     H       0.110489   0.051818   0.372577
     8     H      -0.000000   0.594393   0.000000
     9     H      -0.024979   0.062842   0.164679
    10     H       0.058178  -0.016733  -0.207886
    11     H       0.269869   0.126907   0.002702
    12     H      -0.058178  -0.016733   0.207886
    13     H       0.024979   0.062842  -0.164679
    14     H      -0.269869   0.126907  -0.002702
 
 Mode:    32      Frequency (cm-1):     1451.1015     Intensity (km/mol):       54.4869     Irrep: A1
 Index  Atom      ---- Displacements (x/y/z) ----
     1    Si       0.000005  -0.000000   0.007752
     2     C      -0.012458   0.000000   0.032590
     3     C       0.006224  -0.010602   0.032292
     4     C       0.006224   0.010602   0.032292
     5     H       0.000012  -0.000000   0.002703
     6     H       0.191692   0.224693  -0.241983
     7     H       0.191692  -0.224693  -0.241983
     8     H      -0.209744  -0.000000   0.023033
     9     H      -0.287628   0.052811  -0.240667
    10     H       0.097692   0.275788  -0.239166
    11     H       0.103094  -0.180890   0.022831
    12     H       0.097692  -0.275788  -0.239166
    13     H      -0.287628  -0.052811  -0.240667
    14     H       0.103094   0.180890   0.022831
 
 Mode:    33      Frequency (cm-1):     2074.6131     Intensity (km/mol):      167.1796     Irrep: A1
 Index  Atom      ---- Displacements (x/y/z) ----
     1    Si       0.000000  -0.000000  -0.035176
     2     C       0.001056  -0.000000   0.000428
     3     C      -0.000528   0.000915   0.000428
     4     C      -0.000528  -0.000915   0.000428
     5     H      -0.000000  -0.000000   0.999253
     6     H       0.000555  -0.002679  -0.003963
     7     H       0.000555   0.002679  -0.003963
     8     H      -0.003832  -0.000000  -0.004762
     9     H       0.002042   0.001820  -0.003963
    10     H      -0.002598  -0.000857  -0.003963
    11     H       0.001916  -0.003319  -0.004762
    12     H      -0.002598   0.000857  -0.003963
    13     H       0.002042  -0.001820  -0.003963
    14     H       0.001916   0.003319  -0.004762
 
 Mode:    34      Frequency (cm-1):     2933.0670     Intensity (km/mol):        4.2874     Irrep: MIX
 Index  Atom      ---- Displacements (x/y/z) ----
     1    Si      -0.000059  -0.000000  -0.000498
     2     C       0.027549  -0.000000   0.012401
     3     C      -0.012497   0.021614   0.011277
     4     C      -0.012497  -0.021614   0.011277
     5     H       0.000081   0.000000   0.000670
     6     H      -0.159648   0.280605   0.116598
     7     H      -0.159648  -0.280605   0.116598
     8     H       0.002281   0.000000  -0.376200
     9     H      -0.147797  -0.252440   0.105620
    10     H       0.292860   0.001704   0.105719
    11     H      -0.000988   0.001720  -0.341364
    12     H       0.292860  -0.001704   0.105719
    13     H      -0.147797   0.252440   0.105620
    14     H      -0.000988  -0.001720  -0.341364
 
 Mode:    35      Frequency (cm-1):     2933.7870     Intensity (km/mol):       13.5273     Irrep: MIX
 Index  Atom      ---- Displacements (x/y/z) ----
     1    Si       0.001248   0.000000  -0.000023
     2     C      -0.035419   0.000000  -0.015827
     3     C      -0.009709   0.016928   0.008750
     4     C      -0.009709  -0.016928   0.008750
     5     H      -0.001710  -0.000000   0.000028
     6     H       0.203374  -0.360191  -0.149956
     7     H       0.203374   0.360191  -0.149956
     8     H      -0.004003  -0.000000   0.482912
     9     H      -0.116392  -0.198049   0.082925
    10     H       0.226249   0.002425   0.082317
    11     H      -0.001232   0.001761  -0.266402
    12     H       0.226249  -0.002425   0.082317
    13     H      -0.116392   0.198049   0.082925
    14     H      -0.001232  -0.001761  -0.266402
 
 Mode:    36      Frequency (cm-1):     2933.8132     Intensity (km/mol):       13.5409     Irrep: E
 Index  Atom      ---- Displacements (x/y/z) ----
     1    Si       0.000000  -0.001249  -0.000000
     2     C      -0.000000  -0.000077  -0.000000
     3     C      -0.015909   0.027471   0.014219
     4     C       0.015909   0.027471  -0.014219
     5     H      -0.000000   0.001725   0.000000
     6     H      -0.001381   0.001610   0.000382
     7     H       0.001381   0.001610  -0.000382
     8     H      -0.000000   0.000215   0.000000
     9     H      -0.188057  -0.318316   0.134204
    10     H       0.371841   0.003294   0.134606
    11     H      -0.001676   0.003139  -0.433214
    12     H      -0.371841   0.003294  -0.134606
    13     H       0.188057  -0.318316  -0.134204
    14     H       0.001676   0.003139   0.433214
 
 Mode:    37      Frequency (cm-1):     3035.6803     Intensity (km/mol):       11.4540     Irrep: MIX
 Index  Atom      ---- Displacements (x/y/z) ----
     1    Si       0.000005  -0.000000  -0.001277
     2     C       0.021139   0.000000  -0.054472
     3     C      -0.009334   0.015140  -0.045693
     4     C      -0.009334  -0.015140  -0.045693
     5     H       0.000074  -0.000000   0.010776
     6     H      -0.133867   0.232774   0.076091
     7     H      -0.133867  -0.232774   0.076091
     8     H       0.017479   0.000000   0.505230
     9     H      -0.111351  -0.192003   0.062577
    10     H       0.229337   0.000149   0.065271
    11     H      -0.007681   0.012918   0.424138
    12     H       0.229337  -0.000149   0.065271
    13     H      -0.111351   0.192003   0.062577
    14     H      -0.007681  -0.012918   0.424138
 
 Mode:    38      Frequency (cm-1):     3035.9235     Intensity (km/mol):        0.8299     Irrep: MIX
 Index  Atom      ---- Displacements (x/y/z) ----
     1    Si      -0.000083  -0.000000  -0.000109
     2     C      -0.024925   0.000000   0.064896
     3     C      -0.003699   0.015046  -0.038637
     4     C      -0.003699  -0.015046  -0.038637
     5     H      -0.000844  -0.000000   0.000915
     6     H       0.158141  -0.276215  -0.090375
     7     H       0.158141   0.276215  -0.090375
     8     H      -0.017935   0.000000  -0.598261
     9     H      -0.110057  -0.191417   0.065284
    10     H       0.158873   0.001623   0.042493
    11     H      -0.003989   0.010383   0.356472
    12     H       0.158873  -0.001623   0.042493
    13     H      -0.110057   0.191417   0.065284
    14     H      -0.003989  -0.010383   0.356472
 
 Mode:    39      Frequency (cm-1):     3035.9414     Intensity (km/mol):        0.7422     Irrep: E
 Index  Atom      ---- Displacements (x/y/z) ----
     1    Si      -0.000000   0.000081  -0.000000
     2     C      -0.000000  -0.005209   0.000000
     3     C      -0.013798   0.018669  -0.059975
     4     C       0.013798   0.018669   0.059975
     5     H      -0.000000   0.000862   0.000000
     6     H      -0.019753   0.031734   0.013731
     7     H       0.019753   0.031734  -0.013731
     8     H      -0.000000  -0.002072  -0.000000
     9     H      -0.139268  -0.237918   0.076708
    10     H       0.313195   0.000390   0.090494
    11     H      -0.009274   0.014002   0.553006
    12     H      -0.313195   0.000390  -0.090494
    13     H       0.139268  -0.237918  -0.076708
    14     H       0.009274   0.014002  -0.553006
 
 Mode:    40      Frequency (cm-1):     3042.3309     Intensity (km/mol):        5.9396     Irrep: E
 Index  Atom      ---- Displacements (x/y/z) ----
     1    Si      -0.000000  -0.000742  -0.000000
     2     C      -0.000000  -0.076384   0.000000
     3     C      -0.029317  -0.018654   0.004184
     4     C       0.029317  -0.018654  -0.004184
     5     H       0.000000   0.001277  -0.000000
     6     H      -0.297510   0.470489   0.197466
     7     H       0.297510   0.470489  -0.197466
     8     H      -0.000000  -0.023338  -0.000000
     9     H       0.127964   0.243447  -0.096077
    10     H       0.230921  -0.009581   0.083444
    11     H      -0.008747  -0.006162  -0.036794
    12     H      -0.230921  -0.009581  -0.083444
    13     H      -0.127964   0.243447   0.096077
    14     H       0.008747  -0.006162   0.036794
 
 Mode:    41      Frequency (cm-1):     3042.3760     Intensity (km/mol):        5.9358     Irrep: E
 Index  Atom      ---- Displacements (x/y/z) ----
     1    Si       0.000743  -0.000000  -0.000003
     2     C       0.001701  -0.000000  -0.004765
     3     C       0.056003   0.031433   0.002221
     4     C       0.056003  -0.031433   0.002221
     5     H      -0.001272   0.000000   0.000024
     6     H      -0.013157   0.021253   0.007194
     7     H      -0.013157  -0.021253   0.007194
     8     H       0.001106  -0.000000   0.041909
     9     H      -0.212046  -0.404205   0.162678
    10     H      -0.479241   0.019297  -0.169354
    11     H       0.017272   0.009396  -0.019513
    12     H      -0.479241  -0.019297  -0.169354
    13     H      -0.212046   0.404205   0.162678
    14     H       0.017272  -0.009396  -0.019513
 
 Mode:    42      Frequency (cm-1):     3043.4088     Intensity (km/mol):        0.0116     Irrep: A2
 Index  Atom      ---- Displacements (x/y/z) ----
     1    Si      -0.000000   0.000033   0.000000
     2     C      -0.000000  -0.049353   0.000000
     3     C       0.046938   0.027181  -0.000192
     4     C      -0.046938   0.027181   0.000192
     5     H       0.000000  -0.000056  -0.000000
     6     H      -0.191270   0.303636   0.127375
     7     H       0.191270   0.303636  -0.127375
     8     H      -0.000000  -0.014374  -0.000000
     9     H      -0.184391  -0.349925   0.140303
    10     H      -0.393184   0.015262  -0.139713
    11     H       0.013719   0.007973   0.001674
    12     H       0.393184   0.015262   0.139713
    13     H       0.184391  -0.349925  -0.140303
    14     H      -0.013719   0.007973  -0.001674

PES point character: Geometry corresponds to a local minimum on the PES.




 ============================
 Statistical Thermal Analysis  ***  ideal gas assumed  ***
 ============================
  
 Pressure:                  1.000000 atm.
 Temperature:             298.150000 K



 Moments of Inertia [amu*bohr^2] and principal axis
 ==================================================

         348.9954        348.9954        587.9817
 ------------------------------------------------
          -0.9491         -0.3149          0.0000
           0.3149         -0.9491          0.0000
           0.0000          0.0000          1.0000


 The rotational contribution to the molecular entropy includes
 a term, dependent on the symmetry number sigma. The results 
 reported below were computed using sigma = 3, determined from
 the point group symmetry of the input geometry (C(3V)). 
 If this is not the correct symmetry, try symmetrizing the molecule before
 running the calculation (note: linear molecules should be aligned along one
 of the Cartesian axes).
 Contributions from frequencies below 20 1/cm are not included in vibrational sums.
 Their contributions, if any, are reported separately.


     Temp                                                        Transl      Rotat     Vibrat     Total
     ----                                                        ------      -----     ------     -----

     298.15   Entropy (cal/mol-K):                               38.823     23.591     17.957     80.371
              Nuclear Internal Energy (kcal/mol):                 0.889      0.889     76.070     77.847
              Constant Volume Heat Capacity (cal/mol-K):          2.981      2.981     20.266     26.228

       Summary of energy terms
                                                   hartree              eV         kcal/mol           kJ/mol
                                      --------------------     -----------       ----------      -----------
       Energy from Engine:              -2.592771545415684        -70.5529         -1626.99         -6807.32
       Nuclear Internal Energy:          0.124057752621235          3.3758            77.85           325.71
       Internal Energy U:               -2.468713792794449        -67.1771         -1549.14         -6481.61
       pV/n = RT:                        0.000944186013486          0.0257             0.59             2.48
       Enthalpy H:                      -2.467769606780963        -67.1514         -1548.55         -6479.13
       -T*S:                            -0.038186779169249         -1.0391           -23.96          -100.26
       Gibbs free energy:               -2.505956385950212        -68.1905         -1572.51         -6579.39
 
 
 Low Vibrational Frequency Free Rotor Interpolation Correction
 -------------------------------------------------------------
 
 References:
    DOI:10.1021/jp509921r
    DOI:10.1002/chem.201200497
 
 Configuration:
    Dampener Frequency          :   100.000 1/cm
    Dampener Alpha              :     4.000
    Averaging Moment of Inertia : 1.000E-44 kg m2
 
 Corrected thermodynamic properties:
    -T*S:                               -0.03809392 Hartree
    Nuclear Internal Energy:             0.12362319 Hartree
    Constant Volume Heat Capacity:       0.00004059 Hartree
 
 
Atomic charges
 ====================
       atom    charge
 ====================
         1     0.998
         2    -1.211
         3    -1.211
         4    -1.211
         5    -0.093
         6     0.305
         7     0.305
         8     0.300
         9     0.305
        10     0.305
        11     0.300
        12     0.305
        13     0.305
        14     0.300
 ====================
 

Dipole moment vector    (Debye):     0.00000000   -0.00000000    0.41773023
              magnitude (Debye):     0.41773023


Final PES point is a local minimum. Geometry optimization successful!


AMS application finished. Exiting.
 NORMAL TERMINATION
     Total cpu time:      38.23
  Total system time:       0.81
 Total elapsed time:      39.64
