 argument  1 = /home/milias/Work/open-collection/theoretical_chemistry/projects/nmr_diplomovky/reference_compounds/phosphoric_acid/nwchem/cosmo-chcl3/geometry_optimization/6-311++g2d_2p/h3po4.geopt_pbe0_6-311++g2d_2p_cosmo-chcl3.nw
 


============================== echo of input deck ==============================
echo

start molecule

# https://nwchemgit.github.io/Memory.html
memory total 40 gb

print low

title "H3PO4"
charge 0

geometry units angstroms print xyz autosym
  load format xyz h3po4_startgeom.xyz
end

basis
  * library 6-311++G(2d,2p)
end

dft
  grid fine
 # grid huge
  xc pbe0
  mult 1
# Reduce output during geometry optimization
  noprint "final vectors analysis"
  print low
end

driver
#  clear
  tight
#  linopt 0
  maxiter 9999
  xyz h3po4_geom_pbe0
  print low
end

cosmo
  solvent chcl3
end

task dft optimize

================================================================================


                                         
                                         
 
 
             Northwest Computational Chemistry Package (NWChem) 7.0.1
             --------------------------------------------------------
 
 
                    Environmental Molecular Sciences Laboratory
                       Pacific Northwest National Laboratory
                                Richland, WA 99352
 
                              Copyright (c) 1994-2020
                       Pacific Northwest National Laboratory
                            Battelle Memorial Institute
 
             NWChem is an open-source computational chemistry package
                        distributed under the terms of the
                      Educational Community License (ECL) 2.0
             A copy of the license is included with this distribution
                              in the LICENSE.TXT file
 
                                  ACKNOWLEDGMENT
                                  --------------

            This software and its documentation were developed at the
            EMSL at Pacific Northwest National Laboratory, a multiprogram
            national laboratory, operated for the U.S. Department of Energy
            by Battelle under Contract Number DE-AC05-76RL01830. Support
            for this work was provided by the Department of Energy Office
            of Biological and Environmental Research, Office of Basic
            Energy Sciences, and the Office of Advanced Scientific Computing.


           Job information
           ---------------

    hostname        = comp16.grid.umb.sk
    program         = /home/milias/Work/qch/software/nwchem_suite/nwchem_master/bin/LINUX64/nwchem
    date            = Wed Oct 20 21:43:50 2021

    compiled        = Sat_Sep_11_13:54:11_2021
    source          = /home/milias/Work/qch/software/nwchem_suite/nwchem_master
    nwchem branch   = 7.0.0
    nwchem revision = nwchem_on_git-2853-g04c637f
    ga revision     = 5.8.0
    use scalapack   = F
    input           = /home/milias/Work/open-collection/theoretical_chemistry/projects/nmr_diplomovky/reference_compounds/phosphoric_acid/nwchem/cosmo-chcl3/geometry_optimization/6-311++g2d_2p/h3po4.geopt_pbe0_6-311++g2d_2p_cosmo-chcl3.nw
    prefix          = molecule.
    data base       = ./molecule.db
    status          = startup
    nproc           =       12
    time left       =     -1s



           Memory information
           ------------------

    heap     = 1342177276 doubles =  10240.0 Mbytes
    stack    = 1342177281 doubles =  10240.0 Mbytes
    global   = 2684354560 doubles =  20480.0 Mbytes (distinct from heap & stack)
    total    = 5368709117 doubles =  40960.0 Mbytes
    verify   = yes
    hardfail = no 


           Directory information
           ---------------------
 
  0 permanent = .
  0 scratch   = .
 
 
 
 
                                NWChem Input Module
                                -------------------
 
 
                                       H3PO4
                                       -----

 Scaling coordinates for geometry "geometry" by  1.889725989
 (inverse scale =  0.529177249)


          ------
          auto-z
          ------
  no constraints, skipping   0.000000000000000E+000
  no constraints, skipping   0.000000000000000E+000
 
 
                             Geometry "geometry" -> ""
                             -------------------------
 
 Output coordinates in angstroms (scale by  1.889725989 to convert to a.u.)
 
  No.       Tag          Charge          X              Y              Z
 ---- ---------------- ---------- -------------- -------------- --------------
    1 P                   15.0000     0.00000000    -0.00000000     0.12464916
    2 O                    8.0000     0.00000000     1.40906474    -0.60759438
    3 O                    8.0000     1.22028586    -0.70453237    -0.60759438
    4 O                    8.0000    -1.22028586    -0.70453237    -0.60759438
    5 O                    8.0000    -0.00000000     0.00000000     1.59615802
    6 H                    1.0000    -0.08717283     2.17150490    -0.01891210
    7 H                    1.0000     1.92416482    -1.01025856    -0.01891210
    8 H                    1.0000    -1.83699199    -1.16124634    -0.01891210
 
      Atomic Mass 
      ----------- 
 
      P                 30.973760
      O                 15.994910
      H                  1.007825
 

 Effective nuclear repulsion energy (a.u.)     280.7588061291

            Nuclear Dipole moment (a.u.) 
            ----------------------------
        X                 Y               Z
 ---------------- ---------------- ----------------
     0.0000000000    -0.0000000000     0.0000000000
 
      Symmetry information
      --------------------
 
 Group name             C3        
 Group number              5
 Group order               3
 No. of unique centers     4
 
      Symmetry unique atoms
 
     1    2    5    6
 


                                Z-matrix (autoz)
                                -------- 

 Units are Angstrom for bonds and degrees for angles
 
      Type          Name      I     J     K     L     M      Value
      ----------- --------  ----- ----- ----- ----- ----- ----------
    1 Stretch                  1     2                       1.58797
    2 Stretch                  1     3                       1.58797
    3 Stretch                  1     4                       1.58797
    4 Stretch                  1     5                       1.47151
    5 Stretch                  2     6                       0.96719
    6 Stretch                  3     7                       0.96719
    7 Stretch                  4     8                       0.96719
    8 Bend                     1     2     6               114.76074
    9 Bend                     1     3     7               114.76074
   10 Bend                     1     4     8               114.76074
   11 Bend                     2     1     3               100.43110
   12 Bend                     2     1     4               100.43110
   13 Bend                     2     1     5               117.45938
   14 Bend                     3     1     4               100.43110
   15 Bend                     3     1     5               117.45938
   16 Bend                     4     1     5               117.45938
   17 Torsion                  2     1     3     7         122.91750
   18 Torsion                  2     1     4     8        -134.31002
   19 Torsion                  3     1     2     6        -134.31002
   20 Torsion                  3     1     4     8         122.91750
   21 Torsion                  4     1     2     6         122.91750
   22 Torsion                  4     1     3     7        -134.31002
   23 Torsion                  5     1     2     6          -5.69626
   24 Torsion                  5     1     3     7          -5.69626
   25 Torsion                  5     1     4     8          -5.69626
 
 
            XYZ format geometry
            -------------------
     8
 geometry
 P                     0.00000000    -0.00000000     0.12464916
 O                     0.00000000     1.40906474    -0.60759438
 O                     1.22028586    -0.70453237    -0.60759438
 O                    -1.22028586    -0.70453237    -0.60759438
 O                    -0.00000000     0.00000000     1.59615802
 H                    -0.08717283     2.17150490    -0.01891210
 H                     1.92416482    -1.01025856    -0.01891210
 H                    -1.83699199    -1.16124634    -0.01891210
 
 ==============================================================================
                                internuclear distances
 ------------------------------------------------------------------------------
       center one      |      center two      | atomic units |  angstroms
 ------------------------------------------------------------------------------
    2 O                |   1 P                |     3.00083  |     1.58797
    3 O                |   1 P                |     3.00083  |     1.58797
    4 O                |   1 P                |     3.00083  |     1.58797
    5 O                |   1 P                |     2.78075  |     1.47151
    6 H                |   2 O                |     1.82773  |     0.96719
    7 H                |   3 O                |     1.82773  |     0.96719
    8 H                |   4 O                |     1.82773  |     0.96719
 ------------------------------------------------------------------------------
                         number of included internuclear distances:          7
 ==============================================================================



 ==============================================================================
                                 internuclear angles
 ------------------------------------------------------------------------------
        center 1       |       center 2       |       center 3       |  degrees
 ------------------------------------------------------------------------------
    2 O                |   1 P                |   3 O                |   100.43
    2 O                |   1 P                |   4 O                |   100.43
    2 O                |   1 P                |   5 O                |   117.46
    3 O                |   1 P                |   4 O                |   100.43
    3 O                |   1 P                |   5 O                |   117.46
    4 O                |   1 P                |   5 O                |   117.46
    1 P                |   2 O                |   6 H                |   114.76
    1 P                |   3 O                |   7 H                |   114.76
    1 P                |   4 O                |   8 H                |   114.76
 ------------------------------------------------------------------------------
                            number of included internuclear angles:          9
 ==============================================================================





 Summary of "ao basis" -> "" (cartesian)
 ------------------------------------------------------------------------------
       Tag                 Description            Shells   Functions and Types
 ---------------- ------------------------------  ------  ---------------------
 *                      6-311++G(2d,2p)               on all atoms 


 
 
                           NWChem Geometry Optimization
                           ----------------------------
 
 
 
 
                                       H3PO4
 
 
  no constraints, skipping   0.000000000000000E+000
 maximum gradient threshold         (gmax) =   0.000015
 rms gradient threshold             (grms) =   0.000010
 maximum cartesian step threshold   (xmax) =   0.000060
 rms cartesian step threshold       (xrms) =   0.000040
 fixed trust radius                (trust) =   0.300000
 maximum step size to saddle      (sadstp) =   0.100000
 energy precision                  (eprec) =   5.0D-06
 maximum number of steps          (nptopt) = 9999
 initial hessian option           (inhess) =    0
 line search option               (linopt) =    1
 hessian update option            (modupd) =    1
 saddle point option              (modsad) =    0
 initial eigen-mode to follow     (moddir) =    0
 initial variable to follow       (vardir) =    0
 follow first negative mode     (firstneg) =    T
 apply conjugacy                    (opcg) =    F
 source of zmatrix                         =   autoz   


          -------------------
          Energy Minimization
          -------------------

 
 Names of Z-matrix variables 
    1              2              3              4              5         
    6              7              8              9             10         
   11             12             13             14             15         
   16             17             18             19             20         
   21             22             23             24             25         
 
 Variables with the same non-blank name are constrained to be equal
 
 
 Using diagonal initial Hessian 
 Scaling for Hessian diagonals: bonds = 1.00  angles = 0.25  torsions = 0.10

          --------
          Step   0
          --------
 
                                 NWChem DFT Module
                                 -----------------
 
 
                                       H3PO4
 
 
                      Basis "ao basis" -> "ao basis" (cartesian)
                      -----
  P (Phosphorous)
  ---------------
            Exponent  Coefficients 
       -------------- ---------------------------------------------------------
  1 S  7.74924000E+04  0.000781
  1 S  1.16058000E+04  0.006068
  1 S  2.64596000E+03  0.031160
  1 S  7.54976000E+02  0.123431
  1 S  2.48755000E+02  0.378209
  1 S  9.11565000E+01  0.563262
 
  2 S  9.11565000E+01  0.160255
  2 S  3.62257000E+01  0.627647
  2 S  1.52113000E+01  0.263849
 
  3 S  4.79417000E+00  1.000000
 
  4 S  1.80793000E+00  1.000000
 
  5 S  3.56816000E-01  1.000000
 
  6 S  1.14783000E-01  1.000000
 
  7 P  3.84843000E+02  0.009206
  7 P  9.05521000E+01  0.069874
  7 P  2.91339000E+01  0.292470
  7 P  1.08862000E+01  0.728103
 
  8 P  4.35259000E+00  0.628349
  8 P  1.77706000E+00  0.428044
 
  9 P  6.97005000E-01  1.000000
 
 10 P  2.53532000E-01  1.000000
 
 11 P  6.84930000E-02  1.000000
 
 12 S  3.48000000E-02  1.000000
 
 13 P  3.48000000E-02  1.000000
 
 14 D  1.10000000E+00  1.000000
 
 15 D  2.75000000E-01  1.000000
 
  O (Oxygen)
  ----------
            Exponent  Coefficients 
       -------------- ---------------------------------------------------------
  1 S  8.58850000E+03  0.001895
  1 S  1.29723000E+03  0.014386
  1 S  2.99296000E+02  0.070732
  1 S  8.73771000E+01  0.240001
  1 S  2.56789000E+01  0.594797
  1 S  3.74004000E+00  0.280802
 
  2 S  4.21175000E+01  0.113889
  2 S  9.62837000E+00  0.920811
  2 S  2.85332000E+00 -0.003274
 
  3 P  4.21175000E+01  0.036511
  3 P  9.62837000E+00  0.237153
  3 P  2.85332000E+00  0.819702
 
  4 S  9.05661000E-01  1.000000
 
  5 P  9.05661000E-01  1.000000
 
  6 S  2.55611000E-01  1.000000
 
  7 P  2.55611000E-01  1.000000
 
  8 S  8.45000000E-02  1.000000
 
  9 P  8.45000000E-02  1.000000
 
 10 D  2.58400000E+00  1.000000
 
 11 D  6.46000000E-01  1.000000
 
  H (Hydrogen)
  ------------
            Exponent  Coefficients 
       -------------- ---------------------------------------------------------
  1 S  3.38650000E+01  0.025494
  1 S  5.09479000E+00  0.190373
  1 S  1.15879000E+00  0.852161
 
  2 S  3.25840000E-01  1.000000
 
  3 S  1.02741000E-01  1.000000
 
  4 S  3.60000000E-02  1.000000
 
  5 P  1.50000000E+00  1.000000
 
  6 P  3.75000000E-01  1.000000
 


 Summary of "ao basis" -> "ao basis" (cartesian)
 ------------------------------------------------------------------------------
       Tag                 Description            Shells   Functions and Types
 ---------------- ------------------------------  ------  ---------------------
 P                      6-311++G(2d,2p)             15       37   7s6p2d
 O                      6-311++G(2d,2p)             11       29   5s4p2d
 H                      6-311++G(2d,2p)              6       10   4s2p


 
 
 solvent parameters
 solvname_short: chcl3   
 solvname_long:  chloroform                         
 dielec:        4.7113
 dielecinf:     2.0906

          ---------------
          -cosmo- solvent
          ---------------
 Cosmo: York-Karplus, doi: 10.1021/jp992097l
 dielectric constant -eps-     =   4.71
 screen = (eps-1)/(eps    )    =   0.78774
 surface charge correction     = lagrangian
 -lineq- algorithm             =   0
 -bem- low  level              =   2
 -bem- from -octahedral-
 gaussian surface charge width =   0.98000
 degree of switching           =   1.00000
 switching function tolerance  =   0.00010
 atomic radii = 
 --------------
    1 15.000  2.106
    2  8.000  1.720
    3  8.000  1.720
    4  8.000  1.720
    5  8.000  1.720
    6  1.000  1.300
    7  1.000  1.300
    8  1.000  1.300

 solvent accessible surface
 --------------------------

 ---------- ATOMIC COORDINATES (A.U.) ------------ VDWR(ANG.) --
     1    0.00000000   -0.00000000    0.23555275     2.106
     2    0.00000000    2.66274626   -1.14818690     1.720
     3    2.30600590   -1.33137313   -1.14818690     1.720
     4   -2.30600590   -1.33137312   -1.14818690     1.720
     5   -0.00000000    0.00000000    3.01630129     1.720
     6   -0.16473277    4.10354924   -0.03573869     1.300
     7    3.63614427   -1.90911186   -0.03573869     1.300
     8   -3.47141150   -2.19443738   -0.03573869     1.300
 number of segments per atom =         32
 number of   points per atom =         32
 atom (   nspa,  nppa )
 ----------------------
    1 (     10,     0 )       0
    2 (     18,     0 )       0
    3 (     18,     0 )       0
    4 (     18,     0 )       0
    5 (     24,     0 )       0
    6 (     17,     0 )       0
    7 (     18,     0 )       0
    8 (     17,     0 )       0
 number of -cosmo- surface points =      140
 molecular surface =    105.164 angstrom**2
 molecular volume  =     57.996 angstrom**3
 G(cav/disp)       =      1.386 kcal/mol
 ...... end of -cosmo- initialization ......


  Caching 1-el integrals 
  Rotation of axis 
   Time after variat. SCF:      0.7
   Time prior to 1st pass:      0.7
  Resetting Diis


         Total DFT energy =     -643.875900390481
      One electron energy =    -1447.051373732803
           Coulomb energy =      580.738108573145
    Exchange-Corr. energy =      -58.521272765004
 Nuclear repulsion energy =      280.758806129140

             COSMO energy =        0.199831405042

 Numeric. integr. density =       50.000001175792

     Total iterative time =     11.0s


                                   COSMO solvation results
                                   -----------------------

                 gas phase energy =      -643.855521718076
                 sol phase energy =      -643.875900390481
 (electrostatic) solvation energy =         0.020378672404 (   12.79 kcal/mol)
 
                  Occupations of the irreducible representations
                  ----------------------------------------------
 
                     irrep           alpha         beta
                     --------     --------     --------
                     a                11.0         11.0
                     e+               14.0         14.0
                     e-                0.0          0.0
 
  Rotation of axis 


                         DFT ENERGY GRADIENTS

    atom               coordinates                        gradient
                 x          y          z           x          y          z
   1 P       0.000000  -0.000000   0.235553    0.000000   0.000000  -0.001980
   2 O       0.000000   2.662746  -1.148187   -0.006228  -0.002501  -0.002665
   3 O       2.306006  -1.331373  -1.148187    0.000948   0.006644  -0.002665
   4 O      -2.306006  -1.331373  -1.148187    0.005280  -0.004143  -0.002665
   5 O      -0.000000   0.000000   3.016301    0.000000   0.000000   0.006189
   6 H      -0.164733   4.103549  -0.035739    0.002857   0.003971   0.001262
   7 H       3.636144  -1.909112  -0.035739    0.002010  -0.004459   0.001262
   8 H      -3.471412  -2.194437  -0.035739   -0.004867   0.000489   0.001262
 
  no constraints, skipping   0.000000000000000E+000

@ Step       Energy      Delta E   Gmax     Grms     Xrms     Xmax   Walltime
@ ---- ---------------- -------- -------- -------- -------- -------- --------
@    0    -643.87590039  0.0D+00  0.00619  0.00211  0.00000  0.00000     16.1
                                                                    

  no constraints, skipping   0.000000000000000E+000
  no constraints, skipping   0.000000000000000E+000
  no constraints, skipping   0.000000000000000E+000
  no constraints, skipping   0.000000000000000E+000
  no constraints, skipping   0.000000000000000E+000
  no constraints, skipping   0.000000000000000E+000
  no constraints, skipping   0.000000000000000E+000
  no constraints, skipping   0.000000000000000E+000
 
                                 NWChem DFT Module
                                 -----------------
 
 
                                       H3PO4
 
 
 
 
 solvent parameters
 solvname_short: chcl3   
 solvname_long:  chloroform                         
 dielec:        4.7113
 dielecinf:     2.0906

          ---------------
          -cosmo- solvent
          ---------------
 Cosmo: York-Karplus, doi: 10.1021/jp992097l
 dielectric constant -eps-     =   4.71
 screen = (eps-1)/(eps    )    =   0.78774
 surface charge correction     = lagrangian
 -lineq- algorithm             =   0
 -bem- low  level              =   2
 -bem- from -octahedral-
 gaussian surface charge width =   0.98000
 degree of switching           =   1.00000
 switching function tolerance  =   0.00010
 atomic radii = 
 --------------
    1 15.000  2.106
    2  8.000  1.720
    3  8.000  1.720
    4  8.000  1.720
    5  8.000  1.720
    6  1.000  1.300
    7  1.000  1.300
    8  1.000  1.300

 solvent accessible surface
 --------------------------

 ---------- ATOMIC COORDINATES (A.U.) ------------ VDWR(ANG.) --
     1    0.00000000   -0.00000000    0.21905680     2.106
     2    0.01562959    2.66598402   -1.14976673     1.720
     3    2.30099509   -1.34652763   -1.14976673     1.720
     4   -2.31662468   -1.31945639   -1.14976673     1.720
     5   -0.00000000    0.00000000    2.98999670     1.720
     6   -0.17381164    4.07706326   -0.01989201     1.300
     7    3.61774618   -1.88800633   -0.01989201     1.300
     8   -3.44393454   -2.18905693   -0.01989201     1.300
 number of segments per atom =         32
 number of   points per atom =         32
 atom (   nspa,  nppa )
 ----------------------
    1 (     10,     0 )       0
    2 (     19,     0 )       0
    3 (     18,     0 )       0
    4 (     17,     0 )       0
    5 (     24,     0 )       0
    6 (     17,     0 )       0
    7 (     18,     0 )       0
    8 (     17,     0 )       0
 number of -cosmo- surface points =      140
 molecular surface =    105.137 angstrom**2
 molecular volume  =     58.016 angstrom**3
 G(cav/disp)       =      1.386 kcal/mol
 ...... end of -cosmo- initialization ......


  Caching 1-el integrals 
  Rotation of axis 
   Time after variat. SCF:     16.3
   Time prior to 1st pass:     16.3


         Total DFT energy =     -643.876395394458
      One electron energy =    -1448.233711218431
           Coulomb energy =      581.328573241654
    Exchange-Corr. energy =      -58.537507802050
 Nuclear repulsion energy =      281.385948399206

             COSMO energy =        0.180301985163

 Numeric. integr. density =       50.000001184563

     Total iterative time =     10.4s


                                   COSMO solvation results
                                   -----------------------

                 gas phase energy =      -643.856305064568
                 sol phase energy =      -643.876395394458
 (electrostatic) solvation energy =         0.020090329890 (   12.61 kcal/mol)
 
                  Occupations of the irreducible representations
                  ----------------------------------------------
 
                     irrep           alpha         beta
                     --------     --------     --------
                     a                11.0         11.0
                     e+               14.0         14.0
                     e-                0.0          0.0
 
 Line search: 
     step= 1.00 grad=-7.6D-04 hess= 2.7D-04 energy=   -643.876395 mode=downhill
 new step= 1.43                   predicted energy=   -643.876444
  no constraints, skipping   0.000000000000000E+000
  no constraints, skipping   0.000000000000000E+000
  no constraints, skipping   0.000000000000000E+000
  no constraints, skipping   0.000000000000000E+000
  no constraints, skipping   0.000000000000000E+000
  no constraints, skipping   0.000000000000000E+000
  no constraints, skipping   0.000000000000000E+000
  no constraints, skipping   0.000000000000000E+000

          --------
          Step   1
          --------
 
                                 NWChem DFT Module
                                 -----------------
 
 
                                       H3PO4
 
 
 
 
 solvent parameters
 solvname_short: chcl3   
 solvname_long:  chloroform                         
 dielec:        4.7113
 dielecinf:     2.0906

          ---------------
          -cosmo- solvent
          ---------------
 Cosmo: York-Karplus, doi: 10.1021/jp992097l
 dielectric constant -eps-     =   4.71
 screen = (eps-1)/(eps    )    =   0.78774
 surface charge correction     = lagrangian
 -lineq- algorithm             =   0
 -bem- low  level              =   2
 -bem- from -octahedral-
 gaussian surface charge width =   0.98000
 degree of switching           =   1.00000
 switching function tolerance  =   0.00010
 atomic radii = 
 --------------
    1 15.000  2.106
    2  8.000  1.720
    3  8.000  1.720
    4  8.000  1.720
    5  8.000  1.720
    6  1.000  1.300
    7  1.000  1.300
    8  1.000  1.300

 solvent accessible surface
 --------------------------

 ---------- ATOMIC COORDINATES (A.U.) ------------ VDWR(ANG.) --
     1   -0.00000000    0.00000000    0.21213751     2.106
     2    0.02237843    2.66731519   -1.15029546     1.720
     3    2.29877350   -1.35303788   -1.15029546     1.720
     4   -2.32115193   -1.31427731   -1.15029546     1.720
     5    0.00000000    0.00000000    2.97886931     1.720
     6   -0.17773078    4.06558912   -0.01334772     1.300
     7    3.60976885   -1.87887519   -0.01334772     1.300
     8   -3.43203807   -2.18671393   -0.01334772     1.300
 number of segments per atom =         32
 number of   points per atom =         32
 atom (   nspa,  nppa )
 ----------------------
    1 (     10,     0 )       0
    2 (     19,     0 )       0
    3 (     18,     0 )       0
    4 (     17,     0 )       0
    5 (     24,     0 )       0
    6 (     17,     0 )       0
    7 (     18,     0 )       0
    8 (     17,     0 )       0
 number of -cosmo- surface points =      140
 molecular surface =    105.101 angstrom**2
 molecular volume  =     58.011 angstrom**3
 G(cav/disp)       =      1.386 kcal/mol
 ...... end of -cosmo- initialization ......


  Caching 1-el integrals 
  Rotation of axis 
   Time after variat. SCF:     26.9
   Time prior to 1st pass:     26.9


         Total DFT energy =     -643.876494460574
      One electron energy =    -1448.745170271254
           Coulomb energy =      581.583993070677
    Exchange-Corr. energy =      -58.544519123737
 Nuclear repulsion energy =      281.657264376829

             COSMO energy =        0.171937486911

 Numeric. integr. density =       50.000001202186

     Total iterative time =     10.1s


                                   COSMO solvation results
                                   -----------------------

                 gas phase energy =      -643.856528331901
                 sol phase energy =      -643.876494460574
 (electrostatic) solvation energy =         0.019966128673 (   12.53 kcal/mol)
 
                  Occupations of the irreducible representations
                  ----------------------------------------------
 
                     irrep           alpha         beta
                     --------     --------     --------
                     a                11.0         11.0
                     e+               14.0         14.0
                     e-                0.0          0.0
 
  Rotation of axis 


                         DFT ENERGY GRADIENTS

    atom               coordinates                        gradient
                 x          y          z           x          y          z
   1 P      -0.000000   0.000000   0.212138    0.000000   0.000000   0.002672
   2 O       0.022378   2.667315  -1.150295   -0.006964   0.002289   0.002978
   3 O       2.298774  -1.353038  -1.150295    0.005465   0.004886   0.002978
   4 O      -2.321152  -1.314277  -1.150295    0.001499  -0.007176   0.002978
   5 O       0.000000   0.000000   2.978869   -0.000000   0.000000  -0.003554
   6 H      -0.177731   4.065589  -0.013348    0.003355  -0.003384  -0.002684
   7 H       3.609769  -1.878875  -0.013348   -0.004609  -0.001214  -0.002684
   8 H      -3.432038  -2.186714  -0.013348    0.001253   0.004598  -0.002684
 
  no constraints, skipping   0.000000000000000E+000

  Step       Energy      Delta E   Gmax     Grms     Xrms     Xmax   Walltime
  ---- ---------------- -------- -------- -------- -------- -------- --------
@    1    -643.87649446 -5.9D-04  0.00474  0.00195  0.02024  0.03952     41.3
                                                                    

 Restricting large step in mode    1 eval= 8.9D-03 step=-3.4D-01 new=-3.0D-01
  no constraints, skipping   0.000000000000000E+000
  no constraints, skipping   0.000000000000000E+000
  no constraints, skipping   0.000000000000000E+000
  no constraints, skipping   0.000000000000000E+000
  no constraints, skipping   0.000000000000000E+000
  no constraints, skipping   0.000000000000000E+000
  no constraints, skipping   0.000000000000000E+000
  no constraints, skipping   0.000000000000000E+000
 
                                 NWChem DFT Module
                                 -----------------
 
 
                                       H3PO4
 
 
 
 
 solvent parameters
 solvname_short: chcl3   
 solvname_long:  chloroform                         
 dielec:        4.7113
 dielecinf:     2.0906

          ---------------
          -cosmo- solvent
          ---------------
 Cosmo: York-Karplus, doi: 10.1021/jp992097l
 dielectric constant -eps-     =   4.71
 screen = (eps-1)/(eps    )    =   0.78774
 surface charge correction     = lagrangian
 -lineq- algorithm             =   0
 -bem- low  level              =   2
 -bem- from -octahedral-
 gaussian surface charge width =   0.98000
 degree of switching           =   1.00000
 switching function tolerance  =   0.00010
 atomic radii = 
 --------------
    1 15.000  2.106
    2  8.000  1.720
    3  8.000  1.720
    4  8.000  1.720
    5  8.000  1.720
    6  1.000  1.300
    7  1.000  1.300
    8  1.000  1.300

 solvent accessible surface
 --------------------------

 ---------- ATOMIC COORDINATES (A.U.) ------------ VDWR(ANG.) --
     1    0.00000000    0.00000000    0.18592397     2.106
     2    0.06299780    2.67458453   -1.15535752     1.720
     3    2.28475925   -1.39184996   -1.15535752     1.720
     4   -2.34775705   -1.28273457   -1.15535752     1.720
     5    0.00000000   -0.00000000    2.94672675     1.720
     6   -0.20330674    4.04190488    0.01116638     1.300
     7    3.60204568   -1.84488364    0.01116638     1.300
     8   -3.39873894   -2.19702124    0.01116638     1.300
 number of segments per atom =         32
 number of   points per atom =         32
 atom (   nspa,  nppa )
 ----------------------
    1 (     10,     0 )       0
    2 (     18,     0 )       0
    3 (     18,     0 )       0
    4 (     17,     0 )       0
    5 (     24,     0 )       0
    6 (     17,     0 )       0
    7 (     17,     0 )       0
    8 (     16,     0 )       0
 number of -cosmo- surface points =      137
 molecular surface =    105.335 angstrom**2
 molecular volume  =     58.157 angstrom**3
 G(cav/disp)       =      1.387 kcal/mol
 ...... end of -cosmo- initialization ......


  Caching 1-el integrals 
  Rotation of axis 
   Time after variat. SCF:     41.5
   Time prior to 1st pass:     41.5


         Total DFT energy =     -643.876918448857
      One electron energy =    -1449.347385534088
           Coulomb energy =      581.885017331838
    Exchange-Corr. energy =      -58.547543985251
 Nuclear repulsion energy =      281.981600534127

             COSMO energy =        0.151393204517

 Numeric. integr. density =       50.000000906611

     Total iterative time =     10.5s


                                   COSMO solvation results
                                   -----------------------

                 gas phase energy =      -643.857097331769
                 sol phase energy =      -643.876918448857
 (electrostatic) solvation energy =         0.019821117088 (   12.44 kcal/mol)
 
                  Occupations of the irreducible representations
                  ----------------------------------------------
 
                     irrep           alpha         beta
                     --------     --------     --------
                     a                11.0         11.0
                     e+               14.0         14.0
                     e-                0.0          0.0
 
 Line search: 
     step= 1.00 grad=-1.0D-03 hess= 6.0D-04 energy=   -643.876918 mode=downhill
 new step= 0.85                   predicted energy=   -643.876931
  no constraints, skipping   0.000000000000000E+000
  no constraints, skipping   0.000000000000000E+000
  no constraints, skipping   0.000000000000000E+000
  no constraints, skipping   0.000000000000000E+000
  no constraints, skipping   0.000000000000000E+000
  no constraints, skipping   0.000000000000000E+000
  no constraints, skipping   0.000000000000000E+000
  no constraints, skipping   0.000000000000000E+000

          --------
          Step   2
          --------
 
                                 NWChem DFT Module
                                 -----------------
 
 
                                       H3PO4
 
 
 
 
 solvent parameters
 solvname_short: chcl3   
 solvname_long:  chloroform                         
 dielec:        4.7113
 dielecinf:     2.0906

          ---------------
          -cosmo- solvent
          ---------------
 Cosmo: York-Karplus, doi: 10.1021/jp992097l
 dielectric constant -eps-     =   4.71
 screen = (eps-1)/(eps    )    =   0.78774
 surface charge correction     = lagrangian
 -lineq- algorithm             =   0
 -bem- low  level              =   2
 -bem- from -octahedral-
 gaussian surface charge width =   0.98000
 degree of switching           =   1.00000
 switching function tolerance  =   0.00010
 atomic radii = 
 --------------
    1 15.000  2.106
    2  8.000  1.720
    3  8.000  1.720
    4  8.000  1.720
    5  8.000  1.720
    6  1.000  1.300
    7  1.000  1.300
    8  1.000  1.300

 solvent accessible surface
 --------------------------

 ---------- ATOMIC COORDINATES (A.U.) ------------ VDWR(ANG.) --
     1    0.00000000    0.00000000    0.18965783     2.106
     2    0.05696558    2.67356889   -1.15472975     1.720
     3    2.28689579   -1.38611808   -1.15472975     1.720
     4   -2.34386137   -1.28745081   -1.15472975     1.720
     5   -0.00000000    0.00000000    2.95133169     1.720
     6   -0.19951008    4.04547676    0.00775900     1.300
     7    3.60324068   -1.84995758    0.00775900     1.300
     8   -3.40373060   -2.19551918    0.00775900     1.300
 number of segments per atom =         32
 number of   points per atom =         32
 atom (   nspa,  nppa )
 ----------------------
    1 (     10,     0 )       0
    2 (     18,     0 )       0
    3 (     18,     0 )       0
    4 (     17,     0 )       0
    5 (     24,     0 )       0
    6 (     17,     0 )       0
    7 (     17,     0 )       0
    8 (     16,     0 )       0
 number of -cosmo- surface points =      137
 molecular surface =    105.317 angstrom**2
 molecular volume  =     58.145 angstrom**3
 G(cav/disp)       =      1.387 kcal/mol
 ...... end of -cosmo- initialization ......


  Caching 1-el integrals 
  Rotation of axis 
   Time after variat. SCF:     52.2
   Time prior to 1st pass:     52.2


         Total DFT energy =     -643.876869359539
      One electron energy =    -1449.257642383535
           Coulomb energy =      581.840182637581
    Exchange-Corr. energy =      -58.547099558368
 Nuclear repulsion energy =      281.933257690478

             COSMO energy =        0.154432254306

 Numeric. integr. density =       50.000000967408

     Total iterative time =     10.5s


                                   COSMO solvation results
                                   -----------------------

                 gas phase energy =      -643.857027294656
                 sol phase energy =      -643.876869359539
 (electrostatic) solvation energy =         0.019842064883 (   12.45 kcal/mol)
 
                  Occupations of the irreducible representations
                  ----------------------------------------------
 
                     irrep           alpha         beta
                     --------     --------     --------
                     a                11.0         11.0
                     e+               14.0         14.0
                     e-                0.0          0.0
 
  Rotation of axis 


                         DFT ENERGY GRADIENTS

    atom               coordinates                        gradient
                 x          y          z           x          y          z
   1 P       0.000000   0.000000   0.189658    0.000000   0.000000   0.003356
   2 O       0.056966   2.673569  -1.154730   -0.006666   0.000720   0.002570
   3 O       2.286896  -1.386118  -1.154730    0.003957   0.005413   0.002570
   4 O      -2.343861  -1.287451  -1.154730    0.002709  -0.006133   0.002570
   5 O      -0.000000   0.000000   2.951332    0.000000  -0.000000  -0.007631
   6 H      -0.199510   4.045477   0.007759    0.002808  -0.003156  -0.001145
   7 H       3.603241  -1.849958   0.007759   -0.004138  -0.000854  -0.001145
   8 H      -3.403731  -2.195519   0.007759    0.001329   0.004010  -0.001145
 
  no constraints, skipping   0.000000000000000E+000

  Step       Energy      Delta E   Gmax     Grms     Xrms     Xmax   Walltime
  ---- ---------------- -------- -------- -------- -------- -------- --------
@    2    -643.87686936 -3.7D-04  0.00763  0.00233  0.01928  0.03509     66.9
                                                                    

 Restricting large step in mode    1 eval= 2.2D-03 step=-1.3D+00 new=-3.0D-01
  no constraints, skipping   0.000000000000000E+000
  no constraints, skipping   0.000000000000000E+000
  no constraints, skipping   0.000000000000000E+000
  no constraints, skipping   0.000000000000000E+000
  no constraints, skipping   0.000000000000000E+000
  no constraints, skipping   0.000000000000000E+000
  no constraints, skipping   0.000000000000000E+000
  no constraints, skipping   0.000000000000000E+000
 
                                 NWChem DFT Module
                                 -----------------
 
 
                                       H3PO4
 
 
 
 
 solvent parameters
 solvname_short: chcl3   
 solvname_long:  chloroform                         
 dielec:        4.7113
 dielecinf:     2.0906

          ---------------
          -cosmo- solvent
          ---------------
 Cosmo: York-Karplus, doi: 10.1021/jp992097l
 dielectric constant -eps-     =   4.71
 screen = (eps-1)/(eps    )    =   0.78774
 surface charge correction     = lagrangian
 -lineq- algorithm             =   0
 -bem- low  level              =   2
 -bem- from -octahedral-
 gaussian surface charge width =   0.98000
 degree of switching           =   1.00000
 switching function tolerance  =   0.00010
 atomic radii = 
 --------------
    1 15.000  2.106
    2  8.000  1.720
    3  8.000  1.720
    4  8.000  1.720
    5  8.000  1.720
    6  1.000  1.300
    7  1.000  1.300
    8  1.000  1.300

 solvent accessible surface
 --------------------------

 ---------- ATOMIC COORDINATES (A.U.) ------------ VDWR(ANG.) --
     1    0.00000000   -0.00000000    0.18226985     2.106
     2    0.09851414    2.67920178   -1.15576096     1.720
     3    2.27099973   -1.42491664   -1.15576096     1.720
     4   -2.36951388   -1.25428514   -1.15576096     1.720
     5    0.00000000    0.00000000    2.94956877     1.720
     6   -0.22666471    4.04088191    0.01184051     1.300
     7    3.61283875   -1.82414356    0.01184051     1.300
     8   -3.38617403   -2.21673836    0.01184051     1.300
 number of segments per atom =         32
 number of   points per atom =         32
 atom (   nspa,  nppa )
 ----------------------
    1 (     11,     0 )       0
    2 (     18,     0 )       0
    3 (     17,     0 )       0
    4 (     17,     0 )       0
    5 (     24,     0 )       0
    6 (     16,     0 )       0
    7 (     17,     0 )       0
    8 (     16,     0 )       0
 number of -cosmo- surface points =      136
 molecular surface =    105.597 angstrom**2
 molecular volume  =     58.293 angstrom**3
 G(cav/disp)       =      1.388 kcal/mol
 ...... end of -cosmo- initialization ......


  Caching 1-el integrals 
  Rotation of axis 
   Time after variat. SCF:     67.1
   Time prior to 1st pass:     67.1


         Total DFT energy =     -643.877266771276
      One electron energy =    -1448.483201837390
           Coulomb energy =      581.444842539442
    Exchange-Corr. energy =      -58.536747411560
 Nuclear repulsion energy =      281.552150939205

             COSMO energy =        0.145688999027

 Numeric. integr. density =       50.000000471119

     Total iterative time =     10.6s


                                   COSMO solvation results
                                   -----------------------

                 gas phase energy =      -643.857346437728
                 sol phase energy =      -643.877266771276
 (electrostatic) solvation energy =         0.019920333548 (   12.50 kcal/mol)
 
                  Occupations of the irreducible representations
                  ----------------------------------------------
 
                     irrep           alpha         beta
                     --------     --------     --------
                     a                11.0         11.0
                     e+               14.0         14.0
                     e-                0.0          0.0
 
 Line search: 
     step= 1.00 grad=-1.0D-03 hess= 6.4D-04 energy=   -643.877267 mode=downhill
 new step= 0.81                   predicted energy=   -643.877290
  no constraints, skipping   0.000000000000000E+000
  no constraints, skipping   0.000000000000000E+000
  no constraints, skipping   0.000000000000000E+000
  no constraints, skipping   0.000000000000000E+000
  no constraints, skipping   0.000000000000000E+000
  no constraints, skipping   0.000000000000000E+000
  no constraints, skipping   0.000000000000000E+000
  no constraints, skipping   0.000000000000000E+000

          --------
          Step   3
          --------
 
                                 NWChem DFT Module
                                 -----------------
 
 
                                       H3PO4
 
 
 
 
 solvent parameters
 solvname_short: chcl3   
 solvname_long:  chloroform                         
 dielec:        4.7113
 dielecinf:     2.0906

          ---------------
          -cosmo- solvent
          ---------------
 Cosmo: York-Karplus, doi: 10.1021/jp992097l
 dielectric constant -eps-     =   4.71
 screen = (eps-1)/(eps    )    =   0.78774
 surface charge correction     = lagrangian
 -lineq- algorithm             =   0
 -bem- low  level              =   2
 -bem- from -octahedral-
 gaussian surface charge width =   0.98000
 degree of switching           =   1.00000
 switching function tolerance  =   0.00010
 atomic radii = 
 --------------
    1 15.000  2.106
    2  8.000  1.720
    3  8.000  1.720
    4  8.000  1.720
    5  8.000  1.720
    6  1.000  1.300
    7  1.000  1.300
    8  1.000  1.300

 solvent accessible surface
 --------------------------

 ---------- ATOMIC COORDINATES (A.U.) ------------ VDWR(ANG.) --
     1   -0.00000000    0.00000000    0.18355646     2.106
     2    0.09052912    2.67817553   -1.15569261     1.720
     3    2.27410349   -1.41748828   -1.15569261     1.720
     4   -2.36463260   -1.26068725   -1.15569261     1.720
     5    0.00000000    0.00000000    2.94977862     1.720
     6   -0.22144659    4.04180454    0.01127334     1.300
     7    3.61102870   -1.82912390    0.01127334     1.300
     8   -3.38958211   -2.21268064    0.01127334     1.300
 number of segments per atom =         32
 number of   points per atom =         32
 atom (   nspa,  nppa )
 ----------------------
    1 (     11,     0 )       0
    2 (     18,     0 )       0
    3 (     17,     0 )       0
    4 (     17,     0 )       0
    5 (     24,     0 )       0
    6 (     17,     0 )       0
    7 (     17,     0 )       0
    8 (     16,     0 )       0
 number of -cosmo- surface points =      137
 molecular surface =    105.554 angstrom**2
 molecular volume  =     58.271 angstrom**3
 G(cav/disp)       =      1.388 kcal/mol
 ...... end of -cosmo- initialization ......


  Caching 1-el integrals 
  Rotation of axis 
   Time after variat. SCF:     77.9
   Time prior to 1st pass:     77.9


         Total DFT energy =     -643.877196086238
      One electron energy =    -1448.631041860377
           Coulomb energy =      581.520322550448
    Exchange-Corr. energy =      -58.538729368330
 Nuclear repulsion energy =      281.624846476366

             COSMO energy =        0.147406115656

 Numeric. integr. density =       50.000000563879

     Total iterative time =     10.2s


                                   COSMO solvation results
                                   -----------------------

                 gas phase energy =      -643.857292080516
                 sol phase energy =      -643.877196086238
 (electrostatic) solvation energy =         0.019904005722 (   12.49 kcal/mol)
 
                  Occupations of the irreducible representations
                  ----------------------------------------------
 
                     irrep           alpha         beta
                     --------     --------     --------
                     a                11.0         11.0
                     e+               14.0         14.0
                     e-                0.0          0.0
 
  Rotation of axis 


                         DFT ENERGY GRADIENTS

    atom               coordinates                        gradient
                 x          y          z           x          y          z
   1 P      -0.000000   0.000000   0.183556    0.000000   0.000000   0.001194
   2 O       0.090529   2.678176  -1.155693   -0.005909  -0.000271   0.000442
   3 O       2.274103  -1.417488  -1.155693    0.002720   0.005252   0.000442
   4 O      -2.364633  -1.260687  -1.155693    0.003189  -0.004982   0.000442
   5 O       0.000000   0.000000   2.949779    0.000000   0.000000  -0.004737
   6 H      -0.221447   4.041805   0.011273    0.001954  -0.001573   0.000739
   7 H       3.611029  -1.829124   0.011273   -0.002340  -0.000906   0.000739
   8 H      -3.389582  -2.212681   0.011273    0.000385   0.002479   0.000739
 
  no constraints, skipping   0.000000000000000E+000

  Step       Energy      Delta E   Gmax     Grms     Xrms     Xmax   Walltime
  ---- ---------------- -------- -------- -------- -------- -------- --------
@    3    -643.87719609 -3.3D-04  0.00474  0.00150  0.01447  0.03376     92.4
                                                                    

 Restricting large step in mode    1 eval= 1.5D-03 step=-1.9D+00 new=-3.0D-01
  no constraints, skipping   0.000000000000000E+000
  no constraints, skipping   0.000000000000000E+000
  no constraints, skipping   0.000000000000000E+000
  no constraints, skipping   0.000000000000000E+000
  no constraints, skipping   0.000000000000000E+000
  no constraints, skipping   0.000000000000000E+000
  no constraints, skipping   0.000000000000000E+000
  no constraints, skipping   0.000000000000000E+000
 
                                 NWChem DFT Module
                                 -----------------
 
 
                                       H3PO4
 
 
 
 
 solvent parameters
 solvname_short: chcl3   
 solvname_long:  chloroform                         
 dielec:        4.7113
 dielecinf:     2.0906

          ---------------
          -cosmo- solvent
          ---------------
 Cosmo: York-Karplus, doi: 10.1021/jp992097l
 dielectric constant -eps-     =   4.71
 screen = (eps-1)/(eps    )    =   0.78774
 surface charge correction     = lagrangian
 -lineq- algorithm             =   0
 -bem- low  level              =   2
 -bem- from -octahedral-
 gaussian surface charge width =   0.98000
 degree of switching           =   1.00000
 switching function tolerance  =   0.00010
 atomic radii = 
 --------------
    1 15.000  2.106
    2  8.000  1.720
    3  8.000  1.720
    4  8.000  1.720
    5  8.000  1.720
    6  1.000  1.300
    7  1.000  1.300
    8  1.000  1.300

 solvent accessible surface
 --------------------------

 ---------- ATOMIC COORDINATES (A.U.) ------------ VDWR(ANG.) --
     1   -0.00000000    0.00000000    0.19597723     2.106
     2    0.13085767    2.67980609   -1.14984851     1.720
     3    2.25535132   -1.45322911   -1.14984851     1.720
     4   -2.38620899   -1.22657698   -1.14984851     1.720
     5    0.00000000    0.00000000    2.97011012     1.720
     6   -0.24875843    4.05320024   -0.00548818     1.300
     7    3.63455359   -1.81116900   -0.00548818     1.300
     8   -3.38579516   -2.24203124   -0.00548818     1.300
 number of segments per atom =         32
 number of   points per atom =         32
 atom (   nspa,  nppa )
 ----------------------
    1 (     11,     0 )       0
    2 (     18,     0 )       0
    3 (     17,     0 )       0
    4 (     17,     0 )       0
    5 (     24,     0 )       0
    6 (     16,     0 )       0
    7 (     17,     0 )       0
    8 (     16,     0 )       0
 number of -cosmo- surface points =      136
 molecular surface =    105.844 angstrom**2
 molecular volume  =     58.411 angstrom**3
 G(cav/disp)       =      1.389 kcal/mol
 ...... end of -cosmo- initialization ......


  Caching 1-el integrals 
  Rotation of axis 
   Time after variat. SCF:     92.6
   Time prior to 1st pass:     92.6


         Total DFT energy =     -643.877511670885
      One electron energy =    -1447.368458814333
           Coulomb energy =      580.881650385018
    Exchange-Corr. energy =      -58.524754872136
 Nuclear repulsion energy =      280.983256266627

             COSMO energy =        0.150795363938

 Numeric. integr. density =       50.000000186793

     Total iterative time =     10.4s


                                   COSMO solvation results
                                   -----------------------

                 gas phase energy =      -643.857372823982
                 sol phase energy =      -643.877511670885
 (electrostatic) solvation energy =         0.020138846903 (   12.64 kcal/mol)
 
                  Occupations of the irreducible representations
                  ----------------------------------------------
 
                     irrep           alpha         beta
                     --------     --------     --------
                     a                11.0         11.0
                     e+               14.0         14.0
                     e-                0.0          0.0
 
 Line search: 
     step= 1.00 grad=-1.0D-03 hess= 7.3D-04 energy=   -643.877512 mode=downhill
 new step= 0.72                   predicted energy=   -643.877570
  no constraints, skipping   0.000000000000000E+000
  no constraints, skipping   0.000000000000000E+000
  no constraints, skipping   0.000000000000000E+000
  no constraints, skipping   0.000000000000000E+000
  no constraints, skipping   0.000000000000000E+000
  no constraints, skipping   0.000000000000000E+000
  no constraints, skipping   0.000000000000000E+000
  no constraints, skipping   0.000000000000000E+000

          --------
          Step   4
          --------
 
                                 NWChem DFT Module
                                 -----------------
 
 
                                       H3PO4
 
 
 
 
 solvent parameters
 solvname_short: chcl3   
 solvname_long:  chloroform                         
 dielec:        4.7113
 dielecinf:     2.0906

          ---------------
          -cosmo- solvent
          ---------------
 Cosmo: York-Karplus, doi: 10.1021/jp992097l
 dielectric constant -eps-     =   4.71
 screen = (eps-1)/(eps    )    =   0.78774
 surface charge correction     = lagrangian
 -lineq- algorithm             =   0
 -bem- low  level              =   2
 -bem- from -octahedral-
 gaussian surface charge width =   0.98000
 degree of switching           =   1.00000
 switching function tolerance  =   0.00010
 atomic radii = 
 --------------
    1 15.000  2.106
    2  8.000  1.720
    3  8.000  1.720
    4  8.000  1.720
    5  8.000  1.720
    6  1.000  1.300
    7  1.000  1.300
    8  1.000  1.300

 solvent accessible surface
 --------------------------

 ---------- ATOMIC COORDINATES (A.U.) ------------ VDWR(ANG.) --
     1   -0.00000000    0.00000000    0.19229946     2.106
     2    0.11949570    2.67940565   -1.15166457     1.720
     3    2.26068551   -1.44318914   -1.15166457     1.720
     4   -2.38018121   -1.23621651   -1.15166457     1.720
     5    0.00000000    0.00000000    2.96419484     1.720
     6   -0.24106424    4.05003274   -0.00047443     1.300
     7    3.62796336   -1.81624862   -0.00047443     1.300
     8   -3.38689912   -2.23378412   -0.00047443     1.300
 number of segments per atom =         32
 number of   points per atom =         32
 atom (   nspa,  nppa )
 ----------------------
    1 (     11,     0 )       0
    2 (     18,     0 )       0
    3 (     17,     0 )       0
    4 (     17,     0 )       0
    5 (     24,     0 )       0
    6 (     16,     0 )       0
    7 (     17,     0 )       0
    8 (     16,     0 )       0
 number of -cosmo- surface points =      136
 molecular surface =    105.773 angstrom**2
 molecular volume  =     58.377 angstrom**3
 G(cav/disp)       =      1.389 kcal/mol
 ...... end of -cosmo- initialization ......


  Caching 1-el integrals 
  Rotation of axis 
   Time after variat. SCF:    103.2
   Time prior to 1st pass:    103.2


         Total DFT energy =     -643.877433745163
      One electron energy =    -1447.724935257431
           Coulomb energy =      581.061964988151
    Exchange-Corr. energy =      -58.528702653725
 Nuclear repulsion energy =      281.164317325702

             COSMO energy =        0.149921852139

 Numeric. integr. density =       50.000000276967

     Total iterative time =     10.2s


                                   COSMO solvation results
                                   -----------------------

                 gas phase energy =      -643.857362823481
                 sol phase energy =      -643.877433745163
 (electrostatic) solvation energy =         0.020070921683 (   12.59 kcal/mol)
 
                  Occupations of the irreducible representations
                  ----------------------------------------------
 
                     irrep           alpha         beta
                     --------     --------     --------
                     a                11.0         11.0
                     e+               14.0         14.0
                     e-                0.0          0.0
 
  Rotation of axis 


                         DFT ENERGY GRADIENTS

    atom               coordinates                        gradient
                 x          y          z           x          y          z
   1 P      -0.000000   0.000000   0.192299    0.000000   0.000000  -0.000091
   2 O       0.119496   2.679406  -1.151665   -0.005117  -0.000588  -0.001564
   3 O       2.260686  -1.443189  -1.151665    0.002050   0.004726  -0.001564
   4 O      -2.380181  -1.236217  -1.151665    0.003068  -0.004138  -0.001564
   5 O       0.000000   0.000000   2.964195   -0.000000  -0.000000  -0.000760
   6 H      -0.241064   4.050033  -0.000474    0.001172   0.000110   0.001847
   7 H       3.627963  -1.816249  -0.000474   -0.000491  -0.001070   0.001847
   8 H      -3.386899  -2.233784  -0.000474   -0.000681   0.000960   0.001847
 
  no constraints, skipping   0.000000000000000E+000

  Step       Energy      Delta E   Gmax     Grms     Xrms     Xmax   Walltime
  ---- ---------------- -------- -------- -------- -------- -------- --------
@    4    -643.87743375 -2.4D-04  0.00117  0.00075  0.01400  0.02876    117.8
                                                                    

 Restricting large step in mode    1 eval= 1.3D-03 step=-2.0D+00 new=-3.0D-01
  no constraints, skipping   0.000000000000000E+000
  no constraints, skipping   0.000000000000000E+000
  no constraints, skipping   0.000000000000000E+000
  no constraints, skipping   0.000000000000000E+000
  no constraints, skipping   0.000000000000000E+000
  no constraints, skipping   0.000000000000000E+000
  no constraints, skipping   0.000000000000000E+000
  no constraints, skipping   0.000000000000000E+000
 
                                 NWChem DFT Module
                                 -----------------
 
 
                                       H3PO4
 
 
 
 
 solvent parameters
 solvname_short: chcl3   
 solvname_long:  chloroform                         
 dielec:        4.7113
 dielecinf:     2.0906

          ---------------
          -cosmo- solvent
          ---------------
 Cosmo: York-Karplus, doi: 10.1021/jp992097l
 dielectric constant -eps-     =   4.71
 screen = (eps-1)/(eps    )    =   0.78774
 surface charge correction     = lagrangian
 -lineq- algorithm             =   0
 -bem- low  level              =   2
 -bem- from -octahedral-
 gaussian surface charge width =   0.98000
 degree of switching           =   1.00000
 switching function tolerance  =   0.00010
 atomic radii = 
 --------------
    1 15.000  2.106
    2  8.000  1.720
    3  8.000  1.720
    4  8.000  1.720
    5  8.000  1.720
    6  1.000  1.300
    7  1.000  1.300
    8  1.000  1.300

 solvent accessible surface
 --------------------------

 ---------- ATOMIC COORDINATES (A.U.) ------------ VDWR(ANG.) --
     1    0.00000000   -0.00000000    0.20921708     2.106
     2    0.15843992    2.67784569   -1.14131886     1.720
     3    2.23986243   -1.47613585   -1.14131886     1.720
     4   -2.39830236   -1.20170985   -1.14131886     1.720
     5    0.00000000    0.00000000    2.98426877     1.720
     6   -0.26737692    4.05845119   -0.02315066     1.300
     7    3.64841030   -1.79767039   -0.02315066     1.300
     8   -3.38103337   -2.26078081   -0.02315066     1.300
 number of segments per atom =         32
 number of   points per atom =         32
 atom (   nspa,  nppa )
 ----------------------
    1 (     11,     0 )       0
    2 (     18,     0 )       0
    3 (     16,     0 )       0
    4 (     17,     0 )       0
    5 (     24,     0 )       0
    6 (     16,     0 )       0
    7 (     18,     0 )       0
    8 (     16,     0 )       0
 number of -cosmo- surface points =      136
 molecular surface =    105.857 angstrom**2
 molecular volume  =     58.410 angstrom**3
 G(cav/disp)       =      1.389 kcal/mol
 ...... end of -cosmo- initialization ......


  Caching 1-el integrals 
  Rotation of axis 
   Time after variat. SCF:    118.0
   Time prior to 1st pass:    118.0


         Total DFT energy =     -643.877755878377
      One electron energy =    -1447.083609578050
           Coulomb energy =      580.738310470335
    Exchange-Corr. energy =      -58.522600186513
 Nuclear repulsion energy =      280.836600486018

             COSMO energy =        0.153542929833

 Numeric. integr. density =       50.000000028241

     Total iterative time =     10.3s


                                   COSMO solvation results
                                   -----------------------

                 gas phase energy =      -643.857486668110
                 sol phase energy =      -643.877755878377
 (electrostatic) solvation energy =         0.020269210267 (   12.72 kcal/mol)
 
                  Occupations of the irreducible representations
                  ----------------------------------------------
 
                     irrep           alpha         beta
                     --------     --------     --------
                     a                11.0         11.0
                     e+               14.0         14.0
                     e-                0.0          0.0
 
 Line search: 
     step= 1.00 grad=-8.7D-04 hess= 5.5D-04 energy=   -643.877756 mode=downhill
 new step= 0.79                   predicted energy=   -643.877779
  no constraints, skipping   0.000000000000000E+000
  no constraints, skipping   0.000000000000000E+000
  no constraints, skipping   0.000000000000000E+000
  no constraints, skipping   0.000000000000000E+000
  no constraints, skipping   0.000000000000000E+000
  no constraints, skipping   0.000000000000000E+000
  no constraints, skipping   0.000000000000000E+000
  no constraints, skipping   0.000000000000000E+000

          --------
          Step   5
          --------
 
                                 NWChem DFT Module
                                 -----------------
 
 
                                       H3PO4
 
 
 
 
 solvent parameters
 solvname_short: chcl3   
 solvname_long:  chloroform                         
 dielec:        4.7113
 dielecinf:     2.0906

          ---------------
          -cosmo- solvent
          ---------------
 Cosmo: York-Karplus, doi: 10.1021/jp992097l
 dielectric constant -eps-     =   4.71
 screen = (eps-1)/(eps    )    =   0.78774
 surface charge correction     = lagrangian
 -lineq- algorithm             =   0
 -bem- low  level              =   2
 -bem- from -octahedral-
 gaussian surface charge width =   0.98000
 degree of switching           =   1.00000
 switching function tolerance  =   0.00010
 atomic radii = 
 --------------
    1 15.000  2.106
    2  8.000  1.720
    3  8.000  1.720
    4  8.000  1.720
    5  8.000  1.720
    6  1.000  1.300
    7  1.000  1.300
    8  1.000  1.300

 solvent accessible surface
 --------------------------

 ---------- ATOMIC COORDINATES (A.U.) ------------ VDWR(ANG.) --
     1    0.00000000    0.00000000    0.20558762     2.106
     2    0.15044260    2.67821292   -1.14358637     1.720
     3    2.24417913   -1.46939357   -1.14358637     1.720
     4   -2.39462172   -1.20881935   -1.14358637     1.720
     5    0.00000000   -0.00000000    2.97998562     1.720
     6   -0.26197466    4.05676952   -0.01824562     1.300
     7    3.64425280   -1.80150805   -0.01824562     1.300
     8   -3.38227814   -2.25526147   -0.01824562     1.300
 number of segments per atom =         32
 number of   points per atom =         32
 atom (   nspa,  nppa )
 ----------------------
    1 (     11,     0 )       0
    2 (     18,     0 )       0
    3 (     17,     0 )       0
    4 (     17,     0 )       0
    5 (     24,     0 )       0
    6 (     16,     0 )       0
    7 (     18,     0 )       0
    8 (     16,     0 )       0
 number of -cosmo- surface points =      137
 molecular surface =    105.853 angstrom**2
 molecular volume  =     58.410 angstrom**3
 G(cav/disp)       =      1.389 kcal/mol
 ...... end of -cosmo- initialization ......


  Caching 1-el integrals 
  Rotation of axis 
   Time after variat. SCF:    128.5
   Time prior to 1st pass:    128.5


         Total DFT energy =     -643.877691339674
      One electron energy =    -1447.216132082475
           Coulomb energy =      580.805202701389
    Exchange-Corr. energy =      -58.523864276409
 Nuclear repulsion energy =      280.904278322468

             COSMO energy =        0.152823995353

 Numeric. integr. density =       50.000000074113

     Total iterative time =     10.7s


                                   COSMO solvation results
                                   -----------------------

                 gas phase energy =      -643.857463610994
                 sol phase energy =      -643.877691339674
 (electrostatic) solvation energy =         0.020227728680 (   12.69 kcal/mol)
 
                  Occupations of the irreducible representations
                  ----------------------------------------------
 
                     irrep           alpha         beta
                     --------     --------     --------
                     a                11.0         11.0
                     e+               14.0         14.0
                     e-                0.0          0.0
 
  Rotation of axis 


                         DFT ENERGY GRADIENTS

    atom               coordinates                        gradient
                 x          y          z           x          y          z
   1 P       0.000000   0.000000   0.205588    0.000000   0.000000   0.000188
   2 O       0.150443   2.678213  -1.143586   -0.004535  -0.000168  -0.002171
   3 O       2.244179  -1.469394  -1.143586    0.002122   0.004012  -0.002171
   4 O      -2.394622  -1.208819  -1.143586    0.002413  -0.003843  -0.002171
   5 O       0.000000  -0.000000   2.979986    0.000000   0.000000   0.001122
   6 H      -0.261975   4.056770  -0.018246    0.000619   0.000610   0.001734
   7 H       3.644253  -1.801508  -0.018246    0.000219  -0.000841   0.001734
   8 H      -3.382278  -2.255261  -0.018246   -0.000837   0.000231   0.001734
 
  no constraints, skipping   0.000000000000000E+000

  Step       Energy      Delta E   Gmax     Grms     Xrms     Xmax   Walltime
  ---- ---------------- -------- -------- -------- -------- -------- --------
@    5    -643.87769134 -2.6D-04  0.00112  0.00070  0.01580  0.03055    143.5
                                                                    

 Restricting large step in mode    1 eval= 1.4D-03 step=-1.7D+00 new=-3.0D-01
  no constraints, skipping   0.000000000000000E+000
  no constraints, skipping   0.000000000000000E+000
  no constraints, skipping   0.000000000000000E+000
  no constraints, skipping   0.000000000000000E+000
  no constraints, skipping   0.000000000000000E+000
 
                                 NWChem DFT Module
                                 -----------------
 
 
                                       H3PO4
 
 
 
 
 solvent parameters
 solvname_short: chcl3   
 solvname_long:  chloroform                         
 dielec:        4.7113
 dielecinf:     2.0906

          ---------------
          -cosmo- solvent
          ---------------
 Cosmo: York-Karplus, doi: 10.1021/jp992097l
 dielectric constant -eps-     =   4.71
 screen = (eps-1)/(eps    )    =   0.78774
 surface charge correction     = lagrangian
 -lineq- algorithm             =   0
 -bem- low  level              =   2
 -bem- from -octahedral-
 gaussian surface charge width =   0.98000
 degree of switching           =   1.00000
 switching function tolerance  =   0.00010
 atomic radii = 
 --------------
    1 15.000  2.106
    2  8.000  1.720
    3  8.000  1.720
    4  8.000  1.720
    5  8.000  1.720
    6  1.000  1.300
    7  1.000  1.300
    8  1.000  1.300

 solvent accessible surface
 --------------------------

 ---------- ATOMIC COORDINATES (A.U.) ------------ VDWR(ANG.) --
     1    0.00000000    0.00000000    0.21862981     2.106
     2    0.18882819    2.67535411   -1.13164830     1.720
     3    2.22251053   -1.50120707   -1.13164830     1.720
     4   -2.41133872   -1.17414704   -1.13164830     1.720
     5    0.00000000    0.00000000    2.99241578     1.720
     6   -0.28750252    4.05800093   -0.03867447     1.300
     7    3.65808315   -1.78001597   -0.03867447     1.300
     8   -3.37058063   -2.27798495   -0.03867447     1.300
 number of segments per atom =         32
 number of   points per atom =         32
 atom (   nspa,  nppa )
 ----------------------
    1 (     11,     0 )       0
    2 (     18,     0 )       0
    3 (     16,     0 )       0
    4 (     17,     0 )       0
    5 (     24,     0 )       0
    6 (     17,     0 )       0
    7 (     18,     0 )       0
    8 (     16,     0 )       0
 number of -cosmo- surface points =      137
 molecular surface =    105.727 angstrom**2
 molecular volume  =     58.336 angstrom**3
 G(cav/disp)       =      1.389 kcal/mol
 ...... end of -cosmo- initialization ......


  Caching 1-el integrals 
  Rotation of axis 
   Time after variat. SCF:    143.7
   Time prior to 1st pass:    143.7


         Total DFT energy =     -643.878082084605
      One electron energy =    -1447.210536636333
           Coulomb energy =      580.802992375425
    Exchange-Corr. energy =      -58.524078452112
 Nuclear repulsion energy =      280.900190817368

             COSMO energy =        0.153349811047

 Numeric. integr. density =       49.999999910178

     Total iterative time =     10.1s


                                   COSMO solvation results
                                   -----------------------

                 gas phase energy =      -643.857710765452
                 sol phase energy =      -643.878082084605
 (electrostatic) solvation energy =         0.020371319153 (   12.78 kcal/mol)
 
                  Occupations of the irreducible representations
                  ----------------------------------------------
 
                     irrep           alpha         beta
                     --------     --------     --------
                     a                11.0         11.0
                     e+               14.0         14.0
                     e-                0.0          0.0
 
 Line search: 
     step= 1.00 grad=-7.3D-04 hess= 3.4D-04 energy=   -643.878082 mode=accept  
 new step= 1.00                   predicted energy=   -643.878082
  no constraints, skipping   0.000000000000000E+000
  no constraints, skipping   0.000000000000000E+000
  no constraints, skipping   0.000000000000000E+000
  no constraints, skipping   0.000000000000000E+000
  no constraints, skipping   0.000000000000000E+000

          --------
          Step   6
          --------
 
                                 NWChem DFT Module
                                 -----------------
 
 
                                       H3PO4
 
 
 
 
 solvent parameters
 solvname_short: chcl3   
 solvname_long:  chloroform                         
 dielec:        4.7113
 dielecinf:     2.0906

          ---------------
          -cosmo- solvent
          ---------------
 Cosmo: York-Karplus, doi: 10.1021/jp992097l
 dielectric constant -eps-     =   4.71
 screen = (eps-1)/(eps    )    =   0.78774
 surface charge correction     = lagrangian
 -lineq- algorithm             =   0
 -bem- low  level              =   2
 -bem- from -octahedral-
 gaussian surface charge width =   0.98000
 degree of switching           =   1.00000
 switching function tolerance  =   0.00010
 atomic radii = 
 --------------
    1 15.000  2.106
    2  8.000  1.720
    3  8.000  1.720
    4  8.000  1.720
    5  8.000  1.720
    6  1.000  1.300
    7  1.000  1.300
    8  1.000  1.300

 solvent accessible surface
 --------------------------

 ---------- ATOMIC COORDINATES (A.U.) ------------ VDWR(ANG.) --
     1    0.00000000    0.00000000    0.21862981     2.106
     2    0.18882819    2.67535411   -1.13164830     1.720
     3    2.22251053   -1.50120707   -1.13164830     1.720
     4   -2.41133872   -1.17414704   -1.13164830     1.720
     5    0.00000000    0.00000000    2.99241578     1.720
     6   -0.28750252    4.05800093   -0.03867447     1.300
     7    3.65808315   -1.78001597   -0.03867447     1.300
     8   -3.37058063   -2.27798495   -0.03867447     1.300
 number of segments per atom =         32
 number of   points per atom =         32
 atom (   nspa,  nppa )
 ----------------------
    1 (     11,     0 )       0
    2 (     18,     0 )       0
    3 (     16,     0 )       0
    4 (     17,     0 )       0
    5 (     24,     0 )       0
    6 (     17,     0 )       0
    7 (     18,     0 )       0
    8 (     16,     0 )       0
 number of -cosmo- surface points =      137
 molecular surface =    105.727 angstrom**2
 molecular volume  =     58.336 angstrom**3
 G(cav/disp)       =      1.389 kcal/mol
 ...... end of -cosmo- initialization ......



  The DFT is already converged 

         Total DFT energy =   -643.878082084605

  Rotation of axis 


                         DFT ENERGY GRADIENTS

    atom               coordinates                        gradient
                 x          y          z           x          y          z
   1 P       0.000000   0.000000   0.218630    0.000000   0.000000   0.001112
   2 O       0.188828   2.675354  -1.131648   -0.004027   0.000358  -0.001710
   3 O       2.222511  -1.501207  -1.131648    0.002324   0.003309  -0.001710
   4 O      -2.411339  -1.174147  -1.131648    0.001703  -0.003667  -0.001710
   5 O       0.000000   0.000000   2.992416   -0.000000  -0.000000   0.000797
   6 H      -0.287503   4.058001  -0.038674    0.000096   0.000334   0.001074
   7 H       3.658083  -1.780016  -0.038674    0.000242  -0.000250   0.001074
   8 H      -3.370581  -2.277985  -0.038674   -0.000337  -0.000084   0.001074
 
  no constraints, skipping   0.000000000000000E+000

  Step       Energy      Delta E   Gmax     Grms     Xrms     Xmax   Walltime
  ---- ---------------- -------- -------- -------- -------- -------- --------
@    6    -643.87808208 -3.9D-04  0.00088  0.00054  0.01884  0.03796    158.0
                                                                    

 Restricting large step in mode    1 eval= 1.5D-03 step=-1.2D+00 new=-3.0D-01
  no constraints, skipping   0.000000000000000E+000
  no constraints, skipping   0.000000000000000E+000
  no constraints, skipping   0.000000000000000E+000
  no constraints, skipping   0.000000000000000E+000
  no constraints, skipping   0.000000000000000E+000
  no constraints, skipping   0.000000000000000E+000
  no constraints, skipping   0.000000000000000E+000
  no constraints, skipping   0.000000000000000E+000
 
                                 NWChem DFT Module
                                 -----------------
 
 
                                       H3PO4
 
 
 
 
 solvent parameters
 solvname_short: chcl3   
 solvname_long:  chloroform                         
 dielec:        4.7113
 dielecinf:     2.0906

          ---------------
          -cosmo- solvent
          ---------------
 Cosmo: York-Karplus, doi: 10.1021/jp992097l
 dielectric constant -eps-     =   4.71
 screen = (eps-1)/(eps    )    =   0.78774
 surface charge correction     = lagrangian
 -lineq- algorithm             =   0
 -bem- low  level              =   2
 -bem- from -octahedral-
 gaussian surface charge width =   0.98000
 degree of switching           =   1.00000
 switching function tolerance  =   0.00010
 atomic radii = 
 --------------
    1 15.000  2.106
    2  8.000  1.720
    3  8.000  1.720
    4  8.000  1.720
    5  8.000  1.720
    6  1.000  1.300
    7  1.000  1.300
    8  1.000  1.300

 solvent accessible surface
 --------------------------

 ---------- ATOMIC COORDINATES (A.U.) ------------ VDWR(ANG.) --
     1    0.00000000   -0.00000000    0.22823481     2.106
     2    0.22692765    2.67157699   -1.11917407     1.720
     3    2.20018972   -1.53231361   -1.11917407     1.720
     4   -2.42711737   -1.13926338   -1.11917407     1.720
     5    0.00000000   -0.00000000    3.00088020     1.720
     6   -0.31251227    4.05398015   -0.05717184     1.300
     7    3.66710593   -1.75634651   -0.05717184     1.300
     8   -3.35459366   -2.29763364   -0.05717184     1.300
 number of segments per atom =         32
 number of   points per atom =         32
 atom (   nspa,  nppa )
 ----------------------
    1 (     12,     0 )       0
    2 (     18,     0 )       0
    3 (     16,     0 )       0
    4 (     17,     0 )       0
    5 (     24,     0 )       0
    6 (     17,     0 )       0
    7 (     18,     0 )       0
    8 (     16,     0 )       0
 number of -cosmo- surface points =      138
 molecular surface =    105.393 angstrom**2
 molecular volume  =     58.150 angstrom**3
 G(cav/disp)       =      1.387 kcal/mol
 ...... end of -cosmo- initialization ......


  Caching 1-el integrals 
  Rotation of axis 
   Time after variat. SCF:    158.2
   Time prior to 1st pass:    158.2


         Total DFT energy =     -643.878502702506
      One electron energy =    -1447.517510269931
           Coulomb energy =      580.958161629059
    Exchange-Corr. energy =      -58.526576653499
 Nuclear repulsion energy =      281.055505233488

             COSMO energy =        0.151917358377

 Numeric. integr. density =       49.999999899643

     Total iterative time =     10.5s


                                   COSMO solvation results
                                   -----------------------

                 gas phase energy =      -643.858005838638
                 sol phase energy =      -643.878502702506
 (electrostatic) solvation energy =         0.020496863868 (   12.86 kcal/mol)
 
                  Occupations of the irreducible representations
                  ----------------------------------------------
 
                     irrep           alpha         beta
                     --------     --------     --------
                     a                11.0         11.0
                     e+               14.0         14.0
                     e-                0.0          0.0
 
 Line search: 
     step= 1.00 grad=-5.8D-04 hess= 1.6D-04 energy=   -643.878503 mode=downhill
 new step= 1.82                   predicted energy=   -643.878610
  no constraints, skipping   0.000000000000000E+000
  no constraints, skipping   0.000000000000000E+000
  no constraints, skipping   0.000000000000000E+000
  no constraints, skipping   0.000000000000000E+000
  no constraints, skipping   0.000000000000000E+000
  no constraints, skipping   0.000000000000000E+000
  no constraints, skipping   0.000000000000000E+000
  no constraints, skipping   0.000000000000000E+000

          --------
          Step   7
          --------
 
                                 NWChem DFT Module
                                 -----------------
 
 
                                       H3PO4
 
 
 
 
 solvent parameters
 solvname_short: chcl3   
 solvname_long:  chloroform                         
 dielec:        4.7113
 dielecinf:     2.0906

          ---------------
          -cosmo- solvent
          ---------------
 Cosmo: York-Karplus, doi: 10.1021/jp992097l
 dielectric constant -eps-     =   4.71
 screen = (eps-1)/(eps    )    =   0.78774
 surface charge correction     = lagrangian
 -lineq- algorithm             =   0
 -bem- low  level              =   2
 -bem- from -octahedral-
 gaussian surface charge width =   0.98000
 degree of switching           =   1.00000
 switching function tolerance  =   0.00010
 atomic radii = 
 --------------
    1 15.000  2.106
    2  8.000  1.720
    3  8.000  1.720
    4  8.000  1.720
    5  8.000  1.720
    6  1.000  1.300
    7  1.000  1.300
    8  1.000  1.300

 solvent accessible surface
 --------------------------

 ---------- ATOMIC COORDINATES (A.U.) ------------ VDWR(ANG.) --
     1    0.00000000    0.00000000    0.23720977     2.106
     2    0.25765658    2.66811522   -1.10784107     1.720
[...]
                  ----------------------------------------------
 
                     irrep           alpha         beta
                     --------     --------     --------
                     a                11.0         11.0
                     e+               14.0         14.0
                     e-                0.0          0.0
 
 Line search: 
     step= 1.00 grad=-6.2D-08 hess= 5.1D-06 energy=   -643.879563 mode=accept  
 new step= 1.00                   predicted energy=   -643.879563
  no constraints, skipping   0.000000000000000E+000
  no constraints, skipping   0.000000000000000E+000
  no constraints, skipping   0.000000000000000E+000

          --------
          Step 168
          --------
 
                                 NWChem DFT Module
                                 -----------------
 
 
                                       H3PO4
 
 
 
 
 solvent parameters
 solvname_short: chcl3   
 solvname_long:  chloroform                         
 dielec:        4.7113
 dielecinf:     2.0906

          ---------------
          -cosmo- solvent
          ---------------
 Cosmo: York-Karplus, doi: 10.1021/jp992097l
 dielectric constant -eps-     =   4.71
 screen = (eps-1)/(eps    )    =   0.78774
 surface charge correction     = lagrangian
 -lineq- algorithm             =   0
 -bem- low  level              =   2
 -bem- from -octahedral-
 gaussian surface charge width =   0.98000
 degree of switching           =   1.00000
 switching function tolerance  =   0.00010
 atomic radii = 
 --------------
    1 15.000  2.106
    2  8.000  1.720
    3  8.000  1.720
    4  8.000  1.720
    5  8.000  1.720
    6  1.000  1.300
    7  1.000  1.300
    8  1.000  1.300

 solvent accessible surface
 --------------------------

 ---------- ATOMIC COORDINATES (A.U.) ------------ VDWR(ANG.) --
     1    0.00000000   -0.00000000    0.26461557     2.106
     2    0.35179234    2.65898680   -1.07289472     1.720
     3    2.12685395   -1.63415451   -1.07289472     1.720
     4   -2.47864629   -1.02483230   -1.07289472     1.720
     5    0.00000000    0.00000000    3.03760026     1.720
     6   -0.39355521    4.03050536   -0.12781813     1.300
     7    3.68729764   -1.67442387   -0.12781813     1.300
     8   -3.29374243   -2.35608149   -0.12781813     1.300
 number of segments per atom =         32
 number of   points per atom =         32
 atom (   nspa,  nppa )
 ----------------------
    1 (     12,     0 )       0
    2 (     19,     0 )       0
    3 (     16,     0 )       0
    4 (     18,     0 )       0
    5 (     24,     0 )       0
    6 (     17,     0 )       0
    7 (     17,     0 )       0
    8 (     16,     0 )       0
 number of -cosmo- surface points =      139
 molecular surface =    103.277 angstrom**2
 molecular volume  =     56.980 angstrom**3
 G(cav/disp)       =      1.376 kcal/mol
 ...... end of -cosmo- initialization ......



  The DFT is already converged 

         Total DFT energy =   -643.879563132232

  Rotation of axis 


                         DFT ENERGY GRADIENTS

    atom               coordinates                        gradient
                 x          y          z           x          y          z
   1 P       0.000000  -0.000000   0.264616    0.000000   0.000000   0.000000
   2 O       0.351792   2.658987  -1.072895   -0.001691   0.000223   0.000000
   3 O       2.126854  -1.634155  -1.072895    0.001039   0.001353   0.000000
   4 O      -2.478646  -1.024832  -1.072895    0.000652  -0.001576   0.000000
   5 O       0.000000   0.000000   3.037600   -0.000000   0.000000  -0.000001
   6 H      -0.393555   4.030505  -0.127818   -0.002563  -0.000250  -0.000000
   7 H       3.687298  -1.674424  -0.127818    0.001065   0.002344  -0.000000
   8 H      -3.293742  -2.356081  -0.127818    0.001498  -0.002094  -0.000000
 
  no constraints, skipping   0.000000000000000E+000

  Step       Energy      Delta E   Gmax     Grms     Xrms     Xmax   Walltime
  ---- ---------------- -------- -------- -------- -------- -------- --------
@  168    -643.87956313  5.0D-06  0.00000  0.00000  0.00038  0.00077   4272.8
                                     ok       ok                    

 Restricting overall step due to uphill motion.   alpha=  0.90
  no constraints, skipping   0.000000000000000E+000
  no constraints, skipping   0.000000000000000E+000
  no constraints, skipping   0.000000000000000E+000
 
                                 NWChem DFT Module
                                 -----------------
 
 
                                       H3PO4
 
 
 
 
 solvent parameters
 solvname_short: chcl3   
 solvname_long:  chloroform                         
 dielec:        4.7113
 dielecinf:     2.0906

          ---------------
          -cosmo- solvent
          ---------------
 Cosmo: York-Karplus, doi: 10.1021/jp992097l
 dielectric constant -eps-     =   4.71
 screen = (eps-1)/(eps    )    =   0.78774
 surface charge correction     = lagrangian
 -lineq- algorithm             =   0
 -bem- low  level              =   2
 -bem- from -octahedral-
 gaussian surface charge width =   0.98000
 degree of switching           =   1.00000
 switching function tolerance  =   0.00010
 atomic radii = 
 --------------
    1 15.000  2.106
    2  8.000  1.720
    3  8.000  1.720
    4  8.000  1.720
    5  8.000  1.720
    6  1.000  1.300
    7  1.000  1.300
    8  1.000  1.300

 solvent accessible surface
 --------------------------

 ---------- ATOMIC COORDINATES (A.U.) ------------ VDWR(ANG.) --
     1   -0.00000000    0.00000000    0.26461489     2.106
     2    0.35180393    2.65898859   -1.07289117     1.720
     3    2.12684970   -1.63416544   -1.07289117     1.720
     4   -2.47865364   -1.02482315   -1.07289117     1.720
     5    0.00000000   -0.00000000    3.03759992     1.720
     6   -0.39356235    4.03050175   -0.12782134     1.300
     7    3.68729808   -1.67441588   -0.12782134     1.300
     8   -3.29373573   -2.35608587   -0.12782134     1.300
 number of segments per atom =         32
 number of   points per atom =         32
 atom (   nspa,  nppa )
 ----------------------
    1 (     12,     0 )       0
    2 (     19,     0 )       0
    3 (     16,     0 )       0
    4 (     18,     0 )       0
    5 (     24,     0 )       0
    6 (     17,     0 )       0
    7 (     17,     0 )       0
    8 (     16,     0 )       0
 number of -cosmo- surface points =      139
 molecular surface =    103.277 angstrom**2
 molecular volume  =     56.980 angstrom**3
 G(cav/disp)       =      1.376 kcal/mol
 ...... end of -cosmo- initialization ......


  Caching 1-el integrals 
  Rotation of axis 
   Time after variat. SCF:   4273.0
   Time prior to 1st pass:   4273.0


         Total DFT energy =     -643.879563209224
      One electron energy =    -1447.975085378760
           Coulomb energy =      581.183096409861
    Exchange-Corr. energy =      -58.528650136887
 Nuclear repulsion energy =      281.297252821926

             COSMO energy =        0.143823074635

 Numeric. integr. density =       50.000000368467

     Total iterative time =     10.6s


                                   COSMO solvation results
                                   -----------------------

                 gas phase energy =      -643.858656542446
                 sol phase energy =      -643.879563209224
 (electrostatic) solvation energy =         0.020906666778 (   13.12 kcal/mol)
 
                  Occupations of the irreducible representations
                  ----------------------------------------------
 
                     irrep           alpha         beta
                     --------     --------     --------
                     a                11.0         11.0
                     e+               14.0         14.0
                     e-                0.0          0.0
 
 Line search: 
     step= 0.90 grad=-2.5D-11 hess=-9.5D-08 energy=   -643.879563 mode=accept  
 new step= 0.90                   predicted energy=   -643.879563
  no constraints, skipping   0.000000000000000E+000
  no constraints, skipping   0.000000000000000E+000
  no constraints, skipping   0.000000000000000E+000

          --------
          Step 169
          --------
 
                                 NWChem DFT Module
                                 -----------------
 
 
                                       H3PO4
 
 
 
 
 solvent parameters
 solvname_short: chcl3   
 solvname_long:  chloroform                         
 dielec:        4.7113
 dielecinf:     2.0906

          ---------------
          -cosmo- solvent
          ---------------
 Cosmo: York-Karplus, doi: 10.1021/jp992097l
 dielectric constant -eps-     =   4.71
 screen = (eps-1)/(eps    )    =   0.78774
 surface charge correction     = lagrangian
 -lineq- algorithm             =   0
 -bem- low  level              =   2
 -bem- from -octahedral-
 gaussian surface charge width =   0.98000
 degree of switching           =   1.00000
 switching function tolerance  =   0.00010
 atomic radii = 
 --------------
    1 15.000  2.106
    2  8.000  1.720
    3  8.000  1.720
    4  8.000  1.720
    5  8.000  1.720
    6  1.000  1.300
    7  1.000  1.300
    8  1.000  1.300

 solvent accessible surface
 --------------------------

 ---------- ATOMIC COORDINATES (A.U.) ------------ VDWR(ANG.) --
     1   -0.00000000    0.00000000    0.26461489     2.106
     2    0.35180393    2.65898859   -1.07289117     1.720
     3    2.12684970   -1.63416544   -1.07289117     1.720
     4   -2.47865364   -1.02482315   -1.07289117     1.720
     5    0.00000000   -0.00000000    3.03759992     1.720
     6   -0.39356235    4.03050175   -0.12782134     1.300
     7    3.68729808   -1.67441588   -0.12782134     1.300
     8   -3.29373573   -2.35608587   -0.12782134     1.300
 number of segments per atom =         32
 number of   points per atom =         32
 atom (   nspa,  nppa )
 ----------------------
    1 (     12,     0 )       0
    2 (     19,     0 )       0
    3 (     16,     0 )       0
    4 (     18,     0 )       0
    5 (     24,     0 )       0
    6 (     17,     0 )       0
    7 (     17,     0 )       0
    8 (     16,     0 )       0
 number of -cosmo- surface points =      139
 molecular surface =    103.277 angstrom**2
 molecular volume  =     56.980 angstrom**3
 G(cav/disp)       =      1.376 kcal/mol
 ...... end of -cosmo- initialization ......



  The DFT is already converged 

         Total DFT energy =   -643.879563209224

  Rotation of axis 


                         DFT ENERGY GRADIENTS

    atom               coordinates                        gradient
                 x          y          z           x          y          z
   1 P      -0.000000   0.000000   0.264615    0.000000   0.000000   0.000000
   2 O       0.351804   2.658989  -1.072891   -0.001691   0.000224   0.000000
   3 O       2.126850  -1.634165  -1.072891    0.001039   0.001353   0.000000
   4 O      -2.478654  -1.024823  -1.072891    0.000652  -0.001576   0.000000
   5 O       0.000000  -0.000000   3.037600    0.000000   0.000000  -0.000000
   6 H      -0.393562   4.030502  -0.127821   -0.002563  -0.000250  -0.000000
   7 H       3.687298  -1.674416  -0.127821    0.001065   0.002345  -0.000000
   8 H      -3.293736  -2.356086  -0.127821    0.001498  -0.002094  -0.000000
 
  no constraints, skipping   0.000000000000000E+000

  Step       Energy      Delta E   Gmax     Grms     Xrms     Xmax   Walltime
  ---- ---------------- -------- -------- -------- -------- -------- --------
@  169    -643.87956321 -7.7D-08  0.00000  0.00000  0.00001  0.00001   4287.8
                                     ok       ok       ok       ok  


      ----------------------
      Optimization converged
      ----------------------


  Step       Energy      Delta E   Gmax     Grms     Xrms     Xmax   Walltime
  ---- ---------------- -------- -------- -------- -------- -------- --------
@  169    -643.87956321 -7.7D-08  0.00000  0.00000  0.00001  0.00001   4287.8
                                     ok       ok       ok       ok  

 
 
                         Geometry "geometry" -> "geometry"
                         ---------------------------------
 
 Output coordinates in angstroms (scale by  1.889725989 to convert to a.u.)
 
  No.       Tag          Charge          X              Y              Z
 ---- ---------------- ---------- -------------- -------------- --------------
    1 P                   15.0000    -0.00000000     0.00000000     0.14002818
    2 O                    8.0000     0.18616664     1.40707627    -0.56774960
    3 O                    8.0000     1.12548048    -0.86476317    -0.56774960
    4 O                    8.0000    -1.31164711    -0.54231310    -0.56774960
    5 O                    8.0000     0.00000000    -0.00000000     1.60742877
    6 H                    1.0000    -0.20826424     2.13284983    -0.06764015
    7 H                    1.0000     1.95123426    -0.88606279    -0.06764015
    8 H                    1.0000    -1.74297001    -1.24678704    -0.06764015
 
      Atomic Mass 
      ----------- 
 
      P                 30.973760
      O                 15.994910
      H                  1.007825
 

 Effective nuclear repulsion energy (a.u.)     281.2972528219

            Nuclear Dipole moment (a.u.) 
            ----------------------------
        X                 Y               Z
 ---------------- ---------------- ----------------
     0.0000000000    -0.0000000000     2.1371706249
 
      Symmetry information
      --------------------
 
 Group name             C3        
 Group number              5
 Group order               3
 No. of unique centers     4
 
      Symmetry unique atoms
 
     1    2    5    6
 
 
                Final and change from initial internal coordinates
                --------------------------------------------------
 


                                Z-matrix (autoz)
                                -------- 

 Units are Angstrom for bonds and degrees for angles
 
      Type          Name      I     J     K     L     M      Value       Change
      ----------- --------  ----- ----- ----- ----- ----- ---------- ----------
    1 Stretch                  1     2                       1.58602   -0.00194
    2 Stretch                  1     3                       1.58602   -0.00194
    3 Stretch                  1     4                       1.58602   -0.00194
    4 Stretch                  1     5                       1.46740   -0.00411
    5 Stretch                  2     6                       0.96563   -0.00157
    6 Stretch                  3     7                       0.96563   -0.00157
    7 Stretch                  4     8                       0.96563   -0.00157
    8 Bend                     1     2     6               112.81382   -1.94692
    9 Bend                     1     3     7               112.81382   -1.94692
   10 Bend                     1     4     8               112.81382   -1.94692
   11 Bend                     2     1     3               101.61176    1.18066
   12 Bend                     2     1     4               101.61176    1.18066
   13 Bend                     2     1     5               116.50394   -0.95545
   14 Bend                     3     1     4               101.61176    1.18066
   15 Bend                     3     1     5               116.50394   -0.95545
   16 Bend                     4     1     5               116.50394   -0.95545
   17 Torsion                  2     1     3     7          94.59108  -28.32642
   18 Torsion                  2     1     4     8        -160.81293  -26.50291
   19 Torsion                  3     1     2     6        -160.81293  -26.50291
   20 Torsion                  3     1     4     8          94.59108  -28.32642
   21 Torsion                  4     1     2     6          94.59108  -28.32642
   22 Torsion                  4     1     3     7        -160.81293  -26.50291
   23 Torsion                  5     1     2     6         -33.11092  -27.41466
   24 Torsion                  5     1     3     7         -33.11092  -27.41466
   25 Torsion                  5     1     4     8         -33.11092  -27.41466
 
 
 
                                NWChem Input Module
                                -------------------
 
 
 
 
                                     CITATION
                                     --------
                Please cite the following reference when publishing
                           results obtained with NWChem:
 
          E. Apra, E. J. Bylaska, W. A. de Jong, N. Govind, K. Kowalski,
       T. P. Straatsma, M. Valiev, H. J. J. van Dam, Y. Alexeev, J. Anchell,
       V. Anisimov, F. W. Aquino, R. Atta-Fynn, J. Autschbach, N. P. Bauman,
     J. C. Becca, D. E. Bernholdt, K. Bhaskaran-Nair, S. Bogatko, P. Borowski,
         J. Boschen, J. Brabec, A. Bruner, E. Cauet, Y. Chen, G. N. Chuev,
      C. J. Cramer, J. Daily, M. J. O. Deegan, T. H. Dunning Jr., M. Dupuis,
   K. G. Dyall, G. I. Fann, S. A. Fischer, A. Fonari, H. Fruchtl, L. Gagliardi,
      J. Garza, N. Gawande, S. Ghosh, K. Glaesemann, A. W. Gotz, J. Hammond,
       V. Helms, E. D. Hermes, K. Hirao, S. Hirata, M. Jacquelin, L. Jensen,
   B. G. Johnson, H. Jonsson, R. A. Kendall, M. Klemm, R. Kobayashi, V. Konkov,
      S. Krishnamoorthy, M. Krishnan, Z. Lin, R. D. Lins, R. J. Littlefield,
      A. J. Logsdail, K. Lopata, W. Ma, A. V. Marenich, J. Martin del Campo,
   D. Mejia-Rodriguez, J. E. Moore, J. M. Mullin, T. Nakajima, D. R. Nascimento,
    J. A. Nichols, P. J. Nichols, J. Nieplocha, A. Otero-de-la-Roza, B. Palmer,
    A. Panyala, T. Pirojsirikul, B. Peng, R. Peverati, J. Pittner, L. Pollack,
   R. M. Richard, P. Sadayappan, G. C. Schatz, W. A. Shelton, D. W. Silverstein,
   D. M. A. Smith, T. A. Soares, D. Song, M. Swart, H. L. Taylor, G. S. Thomas,
            V. Tipparaju, D. G. Truhlar, K. Tsemekhman, T. Van Voorhis,
      A. Vazquez-Mayagoitia, P. Verma, O. Villa, A. Vishnu, K. D. Vogiatzis,
        D. Wang, J. H. Weare, M. J. Williamson, T. L. Windus, K. Wolinski,
        A. T. Wong, Q. Wu, C. Yang, Q. Yu, M. Zacharias, Z. Zhang, Y. Zhao,
                                and R. J. Harrison
                        "NWChem: Past, present, and future
                         J. Chem. Phys. 152, 184102 (2020)
                               doi:10.1063/5.0004997
 
                                      AUTHORS
                                      -------
     E. Apra, E. J. Bylaska, N. Govind, K. Kowalski, M. Valiev, W. A. de Jong,
      T. P. Straatsma, H. J. J. van Dam, D. Wang, T. L. Windus, N. P. Bauman,
       A. Panyala, J. Hammond, J. Autschbach, K. Bhaskaran-Nair, J. Brabec,
    K. Lopata, S. A. Fischer, S. Krishnamoorthy, M. Jacquelin, W. Ma, M. Klemm,
       O. Villa, Y. Chen, V. Anisimov, F. Aquino, S. Hirata, M. T. Hackler,
           Eric Hermes, L. Jensen, J. E. Moore, J. C. Becca, V. Konjkov,
            D. Mejia-Rodriguez, T. Risthaus, M. Malagoli, A. Marenich,
   A. Otero-de-la-Roza, J. Mullin, P. Nichols, R. Peverati, J. Pittner, Y. Zhao,
        P.-D. Fan, A. Fonari, M. J. Williamson, R. J. Harrison, J. R. Rehr,
      M. Dupuis, D. Silverstein, D. M. A. Smith, J. Nieplocha, V. Tipparaju,
      M. Krishnan, B. E. Van Kuiken, A. Vazquez-Mayagoitia, M. Swart, Q. Wu,
   T. Van Voorhis, A. A. Auer, M. Nooijen, L. D. Crosby, E. Brown, G. Cisneros,
     G. I. Fann, H. Fruchtl, J. Garza, K. Hirao, R. A. Kendall, J. A. Nichols,
       K. Tsemekhman, K. Wolinski, J. Anchell, D. E. Bernholdt, P. Borowski,
       T. Clark, D. Clerc, H. Dachsel, M. J. O. Deegan, K. Dyall, D. Elwood,
      E. Glendening, M. Gutowski, A. C. Hess, J. Jaffe, B. G. Johnson, J. Ju,
        R. Kobayashi, R. Kutteh, Z. Lin, R. Littlefield, X. Long, B. Meng,
      T. Nakajima, S. Niu, L. Pollack, M. Rosing, K. Glaesemann, G. Sandrone,
      M. Stave, H. Taylor, G. Thomas, J. H. van Lenthe, A. T. Wong, Z. Zhang.

 Total times  cpu:     4244.2s     wall:     4287.8s
