
     Program PWSCF v.7.4.1 starts on  4Jun2025 at 11:23:30 
        Git branch: develop
        Last git commit: 95bc91b9c3ff25f565697dd77c0850e0757537c6
        Last git commit date: Sun May 11 00:26:41 2025 +0000
        Last git commit subject: Merge branch 'print-cmake-flags' into 'develop'

     This program is part of the open-source Quantum ESPRESSO suite
     for quantum simulation of materials; please cite
         "P. Giannozzi et al., J. Phys.:Condens. Matter 21 395502 (2009);
         "P. Giannozzi et al., J. Phys.:Condens. Matter 29 465901 (2017);
         "P. Giannozzi et al., J. Chem. Phys. 152 154105 (2020);
          URL http://www.quantum-espresso.org", 
     in publications or presentations arising from this work. More details at
     http://www.quantum-espresso.org/quote

     Parallel version (MPI), running on    16 processors

     MPI processes distributed on     1 nodes
     1783858 MiB available memory on the printing compute node when the environment starts
 
     Waiting for input...
     Reading input from standard input

     Current dimensions of program PWSCF are:
     Max number of different atomic species (ntypx) = 10
     Max number of k-points (npk) =  40000
     Max angular momentum in pseudopotentials (lmaxx) =  4
     Message from routine setup:
     using ibrav=0 with symmetry is DISCOURAGED, use correct ibrav instead
 
     R & G space division:  proc/nbgrp/npool/nimage =      16
     Subspace diagonalization in iterative solution of the eigenvalue problem:
     a serial algorithm will be used

 
     Parallelization info
     --------------------
     sticks:   dense  smooth     PW     G-vecs:    dense   smooth      PW
     Min         426     426    106                26480    26480    3306
     Max         427     427    107                26483    26483    3309
     Sum        6817    6817   1701               423701   423701   52923
 
     Using Slab Decomposition
 


     bravais-lattice index     =            0
     lattice parameter (alat)  =      18.8973  a.u.
     unit-cell volume          =    6748.3345 (a.u.)^3
     number of atoms/cell      =            1
     number of atomic types    =            1
     number of electrons       =        14.00
     number of Kohn-Sham states=           22
     kinetic-energy cutoff     =      60.0000  Ry
     charge density cutoff     =     240.0000  Ry
     scf convergence threshold =      1.0E-09
     mixing beta               =       0.2000
     number of iterations used =            8  plain     mixing
     Exchange-correlation= PBE
                           (   1   4   3   4   0   0   0)
     Non magnetic calculation with spin-orbit


     celldm(1)=  18.897261  celldm(2)=   0.000000  celldm(3)=   0.000000
     celldm(4)=   0.000000  celldm(5)=   0.000000  celldm(6)=   0.000000

     crystal axes: (cart. coord. in units of alat)
               a(1) = (   1.000000   0.000000   0.000000 )  
               a(2) = (   0.000000   1.000000   0.000000 )  
               a(3) = (   0.000000   0.000000   1.000000 )  

     reciprocal axes: (cart. coord. in units 2 pi/alat)
               b(1) = (  1.000000  0.000000  0.000000 )  
               b(2) = (  0.000000  1.000000  0.000000 )  
               b(3) = (  0.000000  0.000000  1.000000 )  


     PseudoPot. # 1 for Pb read from file:
     ./Pb_r.upf
     MD5 check sum: 73abbbd201951038fc1bdacebad68d2f
     Pseudo is Norm-conserving + core correction, Zval = 14.0
     Generated using ONCVPSP code by D. R. Hamann
     Using radial grid of 1782 points, 10 beta functions with: 
                l(1) =   0
                l(2) =   0
                l(3) =   1
                l(4) =   1
                l(5) =   1
                l(6) =   1
                l(7) =   2
                l(8) =   2
                l(9) =   2
               l(10) =   2

     atomic species   valence    mass     pseudopotential
     Pb               14.00   207.20000     Pb( 1.00)

     48 Sym. Ops., with inversion, found



   Cartesian axes

     site n.     atom                  positions (alat units)
         1        Pb     tau(   1) = (   0.5000000   0.5000000   0.5000000  )

     number of k points=     1  Gaussian smearing, width (Ry)=  0.0200
                       cart. coord. in units 2pi/alat
        k(    1) = (   0.0000000   0.0000000   0.0000000), wk =   1.0000000

     Dense  grid:   423701 G-vectors     FFT dimensions: (  96,  96,  96)

     Estimated max dynamical RAM per process >      61.58 MB

     Estimated total dynamical RAM >     985.28 MB

     Initial potential from superposition of free atoms

     starting charge      13.9974, renormalised to      14.0000

     negative rho (up, down):  3.861E-05 0.000E+00
     Starting wfcs are   18 randomized atomic wfcs +    4 random wfcs

     total cpu time spent up to now is        0.4 secs

     per-process dynamical memory:    58.7 Mb

     Self-consistent Calculation

     iteration #  1     ecut=    60.00 Ry     beta= 0.20
     Davidson diagonalization with overlap
     ethr =  1.00E-02,  avg # of iterations =  7.0

     Threshold (ethr) on eigenvalues was too large:
     Diagonalizing with lowered threshold

     Davidson diagonalization with overlap
     ethr =  6.86E-05,  avg # of iterations = 11.0

     negative rho (up, down):  1.166E-05 0.000E+00

     total cpu time spent up to now is        1.1 secs

     total energy              =    -140.34095954 Ry
     estimated scf accuracy    <       0.00961790 Ry

     iteration #  2     ecut=    60.00 Ry     beta= 0.20
     Davidson diagonalization with overlap
     ethr =  6.87E-05,  avg # of iterations =  1.0

     negative rho (up, down):  1.149E-07 0.000E+00

     total cpu time spent up to now is        1.4 secs

     total energy              =    -140.33824820 Ry
     estimated scf accuracy    <       0.00480469 Ry

     iteration #  3     ecut=    60.00 Ry     beta= 0.20
     Davidson diagonalization with overlap
     ethr =  3.43E-05,  avg # of iterations =  2.0

     negative rho (up, down):  2.270E-08 0.000E+00

     total cpu time spent up to now is        1.8 secs

     total energy              =    -140.33904385 Ry
     estimated scf accuracy    <       0.00019011 Ry

     iteration #  4     ecut=    60.00 Ry     beta= 0.20
     Davidson diagonalization with overlap
     ethr =  1.36E-06,  avg # of iterations = 10.0

     total cpu time spent up to now is        2.2 secs

     total energy              =    -140.33906211 Ry
     estimated scf accuracy    <       0.00003853 Ry

     iteration #  5     ecut=    60.00 Ry     beta= 0.20
     Davidson diagonalization with overlap
     ethr =  2.75E-07,  avg # of iterations =  2.0

     total cpu time spent up to now is        2.6 secs

     total energy              =    -140.33906570 Ry
     estimated scf accuracy    <       0.00000110 Ry

     iteration #  6     ecut=    60.00 Ry     beta= 0.20
     Davidson diagonalization with overlap
     ethr =  7.83E-09,  avg # of iterations =  4.0

     total cpu time spent up to now is        2.9 secs

     total energy              =    -140.33906609 Ry
     estimated scf accuracy    <       0.00000090 Ry

     iteration #  7     ecut=    60.00 Ry     beta= 0.20
     Davidson diagonalization with overlap
     ethr =  6.46E-09,  avg # of iterations =  2.0

     total cpu time spent up to now is        3.3 secs

     total energy              =    -140.33906506 Ry
     estimated scf accuracy    <       0.00000320 Ry

     iteration #  8     ecut=    60.00 Ry     beta= 0.20
     Davidson diagonalization with overlap
     ethr =  6.46E-09,  avg # of iterations =  2.0

     total cpu time spent up to now is        3.7 secs

     total energy              =    -140.33906594 Ry
     estimated scf accuracy    <       0.00000003 Ry

     iteration #  9     ecut=    60.00 Ry     beta= 0.20
     Davidson diagonalization with overlap
     ethr =  2.30E-10,  avg # of iterations =  4.0

     total cpu time spent up to now is        4.1 secs

     total energy              =    -140.33906599 Ry
     estimated scf accuracy    <       0.00000011 Ry

     iteration # 10     ecut=    60.00 Ry     beta= 0.20
     Davidson diagonalization with overlap
     ethr =  2.30E-10,  avg # of iterations =  2.0

     total cpu time spent up to now is        4.4 secs

     total energy              =    -140.33906580 Ry
     estimated scf accuracy    <       0.00000014 Ry

     iteration # 11     ecut=    60.00 Ry     beta= 0.20
     Davidson diagonalization with overlap
     ethr =  2.30E-10,  avg # of iterations =  2.0

     total cpu time spent up to now is        4.8 secs

     total energy              =    -140.33906580 Ry
     estimated scf accuracy    <       0.00000003 Ry

     iteration # 12     ecut=    60.00 Ry     beta= 0.20
     Davidson diagonalization with overlap
     ethr =  1.88E-10,  avg # of iterations =  1.0

     total cpu time spent up to now is        5.2 secs

     total energy              =    -140.33906579 Ry
     estimated scf accuracy    <       0.00000002 Ry

     iteration # 13     ecut=    60.00 Ry     beta= 0.20
     Davidson diagonalization with overlap
     ethr =  1.66E-10,  avg # of iterations =  1.0

     total cpu time spent up to now is        5.5 secs

     total energy              =    -140.33906573 Ry
     estimated scf accuracy    <       0.00000002 Ry

     iteration # 14     ecut=    60.00 Ry     beta= 0.20
     Davidson diagonalization with overlap
     ethr =  1.40E-10,  avg # of iterations =  1.0

     total cpu time spent up to now is        5.8 secs

     total energy              =    -140.33906563 Ry
     estimated scf accuracy    <       0.00000002 Ry

     iteration # 15     ecut=    60.00 Ry     beta= 0.20
     Davidson diagonalization with overlap
     ethr =  1.17E-10,  avg # of iterations =  2.0

     total cpu time spent up to now is        6.2 secs

     total energy              =    -140.33906565 Ry
     estimated scf accuracy    <          2.8E-09 Ry

     iteration # 16     ecut=    60.00 Ry     beta= 0.20
     Davidson diagonalization with overlap
     ethr =  1.99E-11,  avg # of iterations =  2.0

     total cpu time spent up to now is        6.5 secs

     End of self-consistent calculation

          k = 0.0000 0.0000 0.0000 ( 52923 PWs)   bands (ev):

   -21.1386 -21.1386 -21.1386 -21.1386 -18.5646 -18.5646 -18.5646 -18.5646
   -18.5646 -18.5646 -10.7490 -10.7490  -3.5076  -3.5076  -2.1314  -2.1314
    -2.1314  -2.1314  -0.2624  -0.2624   1.1178   1.1178

     the Fermi energy is    -2.8370 ev

!    total energy              =    -140.33906565 Ry
     estimated scf accuracy    <          2.5E-10 Ry
     smearing contrib. (-TS)   =      -0.00005314 Ry
     internal energy E=F+TS    =    -140.33901251 Ry

     The total energy is F=E-TS. E is the sum of the following terms:
     one-electron contribution =    -148.60193361 Ry
     hartree contribution      =      77.27737356 Ry
     xc contribution           =     -39.58636237 Ry
     ewald contribution        =     -29.42809009 Ry

     convergence has been achieved in  16 iterations

     Writing all to output data dir ./pwscf.save/ :
     XML data file, charge density, pseudopotentials, collected wavefunctions
 
     init_run     :      0.23s CPU      0.28s WALL (       1 calls)
     electrons    :      5.91s CPU      6.14s WALL (       1 calls)

     Called by init_run:
     wfcinit      :      0.06s CPU      0.08s WALL (       1 calls)
     potinit      :      0.04s CPU      0.05s WALL (       1 calls)
     hinit0       :      0.02s CPU      0.03s WALL (       1 calls)

     Called by electrons:
     c_bands      :      3.46s CPU      3.53s WALL (      17 calls)
     sum_band     :      0.81s CPU      0.83s WALL (      17 calls)
     v_of_rho     :      0.49s CPU      0.50s WALL (      17 calls)
     mix_rho      :      1.06s CPU      1.13s WALL (      17 calls)

     Called by c_bands:
     init_us_2    :      0.07s CPU      0.08s WALL (      35 calls)
     cegterg      :      2.75s CPU      2.79s WALL (      17 calls)

     Called by *egterg:
     cdiaghg      :      0.03s CPU      0.03s WALL (      72 calls)
     h_psi        :      2.25s CPU      2.28s WALL (      74 calls)
     g_psi        :      0.01s CPU      0.01s WALL (      56 calls)

     Called by h_psi:
     h_psi:calbec :      0.10s CPU      0.10s WALL (      74 calls)
     vloc_psi     :      1.98s CPU      2.00s WALL (      74 calls)
                                        0.00s GPU  (      74 calls)
     add_vuspsi   :      0.12s CPU      0.12s WALL (      74 calls)

     General routines
     calbec       :      0.10s CPU      0.10s WALL (      74 calls)
     fft          :      0.40s CPU      0.41s WALL (     270 calls)
     ffts         :      0.07s CPU      0.07s WALL (      68 calls)
     fftw         :      1.81s CPU      1.83s WALL (    4508 calls)
 
     Parallel routines
 
     PWSCF        :      6.22s CPU      6.65s WALL

 
   This run was terminated on:  11:23:37   4Jun2025            

=------------------------------------------------------------------------------=
   JOB DONE.
=------------------------------------------------------------------------------=
