
     Program PWSCF v.7.6-dev starts on 15Jul2026 at  7:42:20 
        Git branch: develop
        Last git commit: 82450953109050842193ce6b00a42d97d6eef26e
        Last git commit date: Tue Jun 23 08:01:32 2026 +0000
        Last git commit subject: Merge branch 'phonon-glitches' into 'develop'

     This program is part of the open-source Quantum ESPRESSO suite
     for quantum simulation of materials; please cite
         "P. Giannozzi et al., J. Phys.:Condens. Matter 21 395502 (2009);
         "P. Giannozzi et al., J. Phys.:Condens. Matter 29 465901 (2017);
         "P. Giannozzi et al., J. Chem. Phys. 152 154105 (2020);
          URL http://www.quantum-espresso.org", 
     in publications or presentations arising from this work. More details at
     http://www.quantum-espresso.org/quote

     Parallel version (MPI), running on    64 processors

     MPI processes distributed on     1 nodes
     1920659 MiB available memory on the printing compute node when the environment starts
 
     Reading input from espresso.pwi
Warning: card &IONS ignored
Warning: card &CELL ignored
Warning: card &FCP ignored
Warning: card &RISM ignored

     Current dimensions of program PWSCF are:
     Max number of different atomic species (ntypx) = 10
     Max number of k-points (npk) =  40000
     Max angular momentum in pseudopotentials (lmaxx) =  4
     Message from routine iosys:
     wrong startingpot: use default (2)

     IMPORTANT: XC functional enforced from input :
     Exchange-correlation= XC-000I-000I-116L-133L-000I-000I
                           (   0   0 116 133   0   0   0)
     Any further DFT definition will be discarded
     Please, verify this is what you really want


     Atomic positions and unit cell read from directory:
     ./tmp/El_Hg_NSCF.save/
 
 
     R & G space division:  proc/nbgrp/npool/nimage =      64
     Subspace diagonalization in iterative solution of the eigenvalue problem:
     one sub-group per band group will be used
     scalapack distributed-memory algorithm (size of sub-group:  8*  8 procs)

 
     Parallelization info
     --------------------
     sticks:   dense  smooth     PW     G-vecs:    dense   smooth      PW
     Min         223     223     59                38727    38727    5251
     Max         224     224     60                38742    38742    5260
     Sum       14325   14325   3793              2479123  2479123  336217
 
     Using Slab Decomposition
 


     bravais-lattice index     =            0
     lattice parameter (alat)  =      20.8301  a.u.
     unit-cell volume          =   13958.2399 (a.u.)^3
     number of atoms/cell      =           49
     number of atomic types    =            2
     number of electrons       =       932.00
     number of Kohn-Sham states=         1118
     kinetic-energy cutoff     =     120.0000  Ry
     charge density cutoff     =     480.0000  Ry
     Exchange-correlation= XC-000I-000I-116L-133L-000I-000I
                           (   0   0 116 133   0   0   0)
     Non magnetic calculation with spin-orbit


     celldm(1)=  20.830137  celldm(2)=   0.000000  celldm(3)=   0.000000
     celldm(4)=   0.000000  celldm(5)=   0.000000  celldm(6)=   0.000000

     crystal axes: (cart. coord. in units of alat)
               a(1) = (   1.000000   0.000000   0.000000 )  
               a(2) = (  -0.500000   0.864051   0.000000 )  
               a(3) = (   0.000000   0.000000   1.787372 )  

     reciprocal axes: (cart. coord. in units 2 pi/alat)
               b(1) = (  1.000000  0.578669  0.000000 )  
               b(2) = (  0.000000  1.157339  0.000000 )  
               b(3) = (  0.000000  0.000000  0.559481 )  


     PseudoPot. # 1 for Au read from file:
     ./Au_fr_pbesol.upf
     MD5 check sum: 689136a016ed296fd61a38904181f805
     Pseudo is Norm-conserving + core correction, Zval = 19.0
     Generated using ONCVPSP code by D. R. Hamann
     Using radial grid of 1340 points, 12 beta functions with: 
                l(1) =   0
                l(2) =   0
                l(3) =   1
                l(4) =   1
                l(5) =   1
                l(6) =   1
                l(7) =   2
                l(8) =   2
                l(9) =   2
               l(10) =   2
               l(11) =   3
               l(12) =   3

     PseudoPot. # 2 for Hg read from file:
     ./Hg_fr_pbesol.upf
     MD5 check sum: 597152069c43970d1a42b7b687dad55f
     Pseudo is Norm-conserving + core correction, Zval = 20.0
     Generated using ONCVPSP code by D. R. Hamann
     Using radial grid of 1246 points, 12 beta functions with: 
                l(1) =   0
                l(2) =   0
                l(3) =   1
                l(4) =   1
                l(5) =   1
                l(6) =   1
                l(7) =   2
                l(8) =   2
                l(9) =   2
               l(10) =   2
               l(11) =   3
               l(12) =   3

     atomic species   valence    mass     pseudopotential
     Au               19.00   196.96657     Au( 1.00)
     Hg               20.00   200.59200     Hg( 1.00)

     No symmetry found



   Cartesian axes

     site n.     atom                  positions (alat units)
         1        Au     tau(   1) = (   0.0031907  -0.0015059   0.8890890  )
         2        Au     tau(   2) = (   0.1250146   0.0720371   0.6653459  )
         3        Au     tau(   3) = (  -0.0034347   0.1459561   0.4429117  )
         4        Au     tau(   4) = (   0.2527915  -0.0009803   0.8903796  )
         5        Au     tau(   5) = (   0.3749074   0.0720858   0.6667365  )
         6        Au     tau(   6) = (   0.2465099   0.1455870   0.4420019  )
         7        Au     tau(   7) = (   0.5031872  -0.0004176   0.8912068  )
         8        Au     tau(   8) = (   0.6248424   0.0721750   0.6672348  )
         9        Au     tau(   9) = (   0.4964717   0.1454700   0.4425530  )
        10        Au     tau(  10) = (   0.7536110  -0.0008835   0.8912200  )
        11        Au     tau(  11) = (   0.8749030   0.0720438   0.6659118  )
        12        Au     tau(  12) = (   0.7465299   0.1456428   0.4434444  )
        13        Au     tau(  13) = (  -0.1221828   0.2138314   0.8911202  )
        14        Au     tau(  14) = (  -0.0001724   0.2879350   0.6684944  )
        15        Au     tau(  15) = (  -0.1284012   0.3618087   0.4455009  )
        16        Au     tau(  16) = (   0.1284433   0.2138467   0.8904713  )
        17        Au     tau(  17) = (   0.2500196   0.2880301   0.6670575  )
        18        Au     tau(  18) = (   0.1216003   0.3617021   0.4458230  )
        19        Au     tau(  19) = (   0.3783116   0.2145123   0.8901328  )
        20        Au     tau(  20) = (   0.4999277   0.2880204   0.6657224  )
        21        Au     tau(  21) = (   0.3714679   0.3616994   0.4428190  )
        22        Au     tau(  22) = (   0.6280533   0.2145274   0.8908284  )
        23        Au     tau(  23) = (   0.7497303   0.2880201   0.6671556  )
        24        Au     tau(  24) = (   0.6216507   0.3617973   0.4425317  )
        25        Au     tau(  25) = (  -0.2478476   0.4299101   0.8911744  )
        26        Au     tau(  26) = (  -0.1249861   0.5040898   0.6695724  )
        27        Au     tau(  27) = (  -0.2533334   0.5776634   0.4450425  )
        28        Au     tau(  28) = (   0.0032151   0.4282765   0.8914285  )
        29        Au     tau(  29) = (   0.1248076   0.5041088   0.6697611  )
        30        Au     tau(  30) = (  -0.0034694   0.5776695   0.4448842  )
        31        Au     tau(  31) = (   0.2541639   0.4299410   0.8915149  )
        32        Au     tau(  32) = (   0.3749863   0.5039742   0.6671113  )
        33        Au     tau(  33) = (   0.2465360   0.5775865   0.4459293  )
        34        Au     tau(  34) = (   0.5031946   0.4303386   0.8901555  )
        35        Au     tau(  35) = (   0.6248436   0.5040189   0.6667224  )
        36        Au     tau(  36) = (   0.4965727   0.5777248   0.4420022  )
        37        Au     tau(  37) = (  -0.3725088   0.6465478   0.8904042  )
        38        Au     tau(  38) = (  -0.2501519   0.7200928   0.6678171  )
        39        Au     tau(  39) = (  -0.3782484   0.7935596   0.4421442  )
        40        Au     tau(  40) = (  -0.1238546   0.6476307   0.8910421  )
        41        Au     tau(  41) = (  -0.0000725   0.7199301   0.6696031  )
        42        Au     tau(  42) = (  -0.1283914   0.7935739   0.4450484  )
        43        Au     tau(  43) = (   0.1302043   0.6475847   0.8914540  )
        44        Au     tau(  44) = (   0.2499753   0.7201889   0.6685816  )
        45        Au     tau(  45) = (   0.1214310   0.7935564   0.4456067  )
        46        Au     tau(  46) = (   0.3789067   0.6466133   0.8905744  )
        47        Au     tau(  47) = (   0.4999696   0.7199873   0.6653977  )
        48        Au     tau(  48) = (   0.3712891   0.7935061   0.4430302  )
        49        Hg     tau(  49) = (   0.0025671   0.5751195   1.1037810  )

     number of k points=    25  Gaussian smearing, width (Ry)=  0.0100
                       cart. coord. in units 2pi/alat
        k(    1) = (   0.1000000   0.1736008   0.0000000), wk =   0.0400000
        k(    2) = (   0.1000000   0.4050686   0.0000000), wk =   0.0400000
        k(    3) = (   0.1000000  -0.5208025   0.0000000), wk =   0.0400000
        k(    4) = (   0.1000000  -0.2893347   0.0000000), wk =   0.0400000
        k(    5) = (   0.1000000  -0.0578669   0.0000000), wk =   0.0400000
        k(    6) = (   0.3000000   0.2893347   0.0000000), wk =   0.0400000
        k(    7) = (   0.3000000   0.5208025   0.0000000), wk =   0.0400000
        k(    8) = (   0.3000000  -0.4050686   0.0000000), wk =   0.0400000
        k(    9) = (   0.3000000  -0.1736008   0.0000000), wk =   0.0400000
        k(   10) = (   0.3000000   0.0578669   0.0000000), wk =   0.0400000
        k(   11) = (  -0.5000000  -0.1736008   0.0000000), wk =   0.0400000
        k(   12) = (  -0.5000000   0.0578669   0.0000000), wk =   0.0400000
        k(   13) = (  -0.5000000  -0.8680042   0.0000000), wk =   0.0400000
        k(   14) = (  -0.5000000  -0.6365364   0.0000000), wk =   0.0400000
        k(   15) = (  -0.5000000  -0.4050686   0.0000000), wk =   0.0400000
        k(   16) = (  -0.3000000  -0.0578669   0.0000000), wk =   0.0400000
        k(   17) = (  -0.3000000   0.1736008   0.0000000), wk =   0.0400000
        k(   18) = (  -0.3000000  -0.7522703   0.0000000), wk =   0.0400000
        k(   19) = (  -0.3000000  -0.5208025   0.0000000), wk =   0.0400000
        k(   20) = (  -0.3000000  -0.2893347   0.0000000), wk =   0.0400000
        k(   21) = (  -0.1000000   0.0578669   0.0000000), wk =   0.0400000
        k(   22) = (  -0.1000000   0.2893347   0.0000000), wk =   0.0400000
        k(   23) = (  -0.1000000  -0.6365364   0.0000000), wk =   0.0400000
        k(   24) = (  -0.1000000  -0.4050686   0.0000000), wk =   0.0400000
        k(   25) = (  -0.1000000  -0.1736008   0.0000000), wk =   0.0400000

     Dense  grid:  2479123 G-vectors     FFT dimensions: ( 150, 150, 270)

     Estimated max dynamical RAM per process >       5.14 GB

     Estimated total dynamical RAM >     328.79 GB

     WARNING: libxc functional with ID  116 depends
      on external parameters: check the user_guide of
      QE if you need to modify them or to check their
      default values.

     WARNING: libxc functional with ID  133 depends
      on external parameters: check the user_guide of
      QE if you need to modify them or to check their
      default values.

     The potential is recalculated from file :
     ./tmp/El_Hg_NSCF.save/charge-density

     Starting wfcs are  980 randomized atomic wfcs +  138 random wfcs

     Band Structure Calculation
     Davidson diagonalization with overlap

     ethr =  1.07E-13,  avg # of iterations = 42.5

     total cpu time spent up to now is    28743.9 secs

     End of band structure calculation

          k = 0.1000 0.1736 0.0000 (309877 PWs)   bands (ev):

  -108.9095-108.9095-100.4053-100.4053-100.3987-100.3987-100.3985-100.3985
  -100.3698-100.3698-100.3639-100.3639-100.3627-100.3627-100.3611-100.3611
  -100.3584-100.3584-100.3570-100.3570-100.3548-100.3548-100.3537-100.3537
  -100.3515-100.3515-100.3509-100.3509-100.3494-100.3494-100.3480-100.3480
  -100.3421-100.3421-100.3130-100.3130-100.3077-100.3077-100.3057-100.3057
  -100.0994-100.0994-100.0985-100.0985-100.0968-100.0968-100.0941-100.0941
  -100.0929-100.0929-100.0920-100.0920-100.0907-100.0907-100.0905-100.0905
  -100.0903-100.0903-100.0880-100.0880-100.0865-100.0865-100.0852-100.0852
  -100.0844-100.0844-100.0839-100.0839-100.0834-100.0834-100.0830-100.0830
  -100.0811-100.0811-100.0808-100.0808-100.0804-100.0804-100.0764-100.0764
  -100.0717-100.0717-100.0704-100.0704-100.0663-100.0663-100.0648-100.0648
  -100.0640-100.0640-100.0619-100.0619-100.0597-100.0597-100.0585-100.0585
  -100.0523-100.0523 -70.9116 -70.9116 -64.1050 -64.1050 -64.1047 -64.1047
   -64.0887 -64.0887 -64.0713 -64.0713 -64.0692 -64.0692 -64.0674 -64.0674
   -64.0659 -64.0659 -64.0625 -64.0625 -64.0591 -64.0591 -64.0565 -64.0565
   -64.0451 -64.0451 -64.0439 -64.0439 -64.0406 -64.0406 -64.0369 -64.0369
   -64.0310 -64.0310 -64.0161 -64.0161 -64.0062 -64.0062 -64.0035 -64.0035
   -63.9881 -63.9881 -63.7965 -63.7964 -63.7941 -63.7940 -63.7929 -63.7928
   -63.7924 -63.7924 -63.7915 -63.7915 -63.7904 -63.7903 -63.7886 -63.7885
   -63.7884 -63.7884 -63.7858 -63.7856 -63.7853 -63.7853 -63.7832 -63.7832
   -63.7807 -63.7807 -63.7779 -63.7778 -63.7761 -63.7761 -63.7727 -63.7726
   -63.7692 -63.7690 -63.7667 -63.7666 -63.7664 -63.7663 -63.7646 -63.7645
   -63.7616 -63.7615 -63.7577 -63.7575 -63.7563 -63.7560 -63.7529 -63.7528
   -63.7492 -63.7492 -63.7459 -63.7458 -63.7456 -63.7455 -63.7411 -63.7410
   -63.7354 -63.7351 -63.7200 -63.7199 -52.5773 -52.5773 -52.5471 -52.5471
   -47.6271 -47.6268 -47.6223 -47.6217 -47.6123 -47.6121 -47.5979 -47.5977
   -47.5956 -47.5951 -47.5872 -47.5869 -47.5817 -47.5815 -47.5748 -47.5738
   -47.5697 -47.5688 -47.5295 -47.5286 -47.5208 -47.5195 -47.5146 -47.5135
   -47.5057 -47.5040 -47.4968 -47.4959 -47.4924 -47.4906 -47.4828 -47.4799
   -47.4760 -47.4736 -47.4679 -47.4668 -47.4629 -47.4611 -47.4566 -47.4555
   -47.4517 -47.4500 -47.4493 -47.4482 -47.4452 -47.4431 -47.4404 -47.4385
   -47.4363 -47.4333 -47.4318 -47.4282 -47.4215 -47.4208 -47.4181 -47.4177
   -47.4145 -47.4141 -47.4136 -47.4129 -47.4092 -47.4086 -47.4058 -47.4050
   -47.4005 -47.3987 -47.3946 -47.3934 -47.3806 -47.3802 -47.3757 -47.3752
   -47.3615 -47.3605 -47.3367 -47.3362 -47.3339 -47.3327 -47.3323 -47.3315
   -47.3305 -47.3288 -47.3285 -47.3277 -47.3274 -47.3267 -47.3257 -47.3250
   -47.3232 -47.3228 -47.3157 -47.3148 -47.3135 -47.3133 -47.3113 -47.3079
   -47.3066 -47.3062 -47.3052 -47.3029 -47.2964 -47.2940 -47.2930 -47.2925
   -47.2890 -47.2866 -47.2819 -47.2810 -47.2426 -47.2393 -47.2341 -47.2337
   -47.2329 -47.2295 -47.2248 -47.2246 -47.2177 -47.2152 -47.2005 -47.2000
   -47.1970 -47.1967 -47.1963 -47.1915 -47.1748 -47.1728 -47.1707 -47.1698
   -47.1622 -47.1619 -47.1285 -47.1277 -47.1269 -47.1263 -47.1255 -47.1247
   -47.1199 -47.1191 -47.1178 -47.1171 -47.1160 -47.1150 -47.1130 -47.1125
   -47.1122 -47.1119 -47.1110 -47.1108 -47.1088 -47.1065 -47.1063 -47.1059
   -47.1043 -47.1040 -47.1038 -47.1028 -47.1005 -47.1002 -47.0946 -47.0942
   -47.0940 -47.0937 -47.0929 -47.0925 -47.0915 -47.0903 -47.0887 -47.0876
   -47.0858 -47.0855 -47.0849 -47.0846 -47.0823 -47.0822 -47.0809 -47.0806
   -47.0802 -47.0797 -47.0779 -47.0770 -47.0766 -47.0759 -47.0721 -47.0713
   -47.0687 -47.0684 -47.0655 -47.0652 -47.0620 -47.0615 -47.0576 -47.0574
    -4.5868  -4.5867  -3.3009  -3.2988  -3.2267  -3.2262  -3.2157  -3.2154
    -2.8645  -2.8607  -2.8226  -2.8217  -2.8115  -2.8112  -2.5763  -2.5622
    -2.5451  -2.5390  -2.4149  -2.3970  -2.3569  -2.3568  -2.3494  -2.3469
    -2.3352  -2.3241  -2.1553  -2.1426  -2.1326  -2.1279  -2.0797  -2.0744
    -2.0417  -2.0285  -2.0197  -1.9973  -1.9842  -1.9706  -1.8896  -1.8613
    -1.8317  -1.8298  -1.8243  -1.8208  -1.8150  -1.8112  -1.8032  -1.8008
    -1.7946  -1.7906  -1.7838  -1.7810  -1.7421  -1.7394  -1.7271  -1.7241
    -1.6270  -1.6236  -1.5967  -1.5954  -1.5798  -1.5787  -1.5684  -1.5649
    -1.5629  -1.5595  -1.5575  -1.5551  -1.5486  -1.5470  -1.4599  -1.4565
    -1.4440  -1.4398  -1.4295  -1.4248  -1.3719  -1.3687  -1.3651  -1.3608
    -1.3592  -1.3570  -1.3333  -1.3284  -1.3220  -1.3065  -1.2754  -1.2749
    -1.2595  -1.2313  -1.2296  -1.2163  -1.1577  -1.1453  -1.1369  -1.1279
    -1.1141  -1.1103  -1.0736  -1.0701  -1.0650  -1.0630  -1.0434  -1.0395
    -1.0374  -1.0329  -1.0289  -1.0232  -0.9637  -0.9330  -0.9135  -0.9027
    -0.8501  -0.8435  -0.8413  -0.8318  -0.7912  -0.7699  -0.7555  -0.7479
    -0.7398  -0.7314  -0.7163  -0.7099  -0.6968  -0.6958  -0.6906  -0.6791
    -0.6746  -0.6703  -0.6581  -0.6303  -0.6101  -0.5732  -0.5592  -0.5519
    -0.5333  -0.5298  -0.5154  -0.5047  -0.5030  -0.4989  -0.4954  -0.4864
    -0.4835  -0.4787  -0.4754  -0.4707  -0.4683  -0.4660  -0.4635  -0.4596
    -0.4559  -0.4541  -0.4524  -0.4512  -0.4488  -0.4463  -0.4436  -0.4420
    -0.4386  -0.4344  -0.4312  -0.4253  -0.4245  -0.4206  -0.4069  -0.4058
    -0.3946  -0.3652  -0.3434  -0.3377  -0.3033  -0.2954  -0.2463  -0.2452
    -0.2218  -0.2145  -0.2115  -0.2057  -0.1998  -0.1970  -0.1954  -0.1927
    -0.1918  -0.1887  -0.1854  -0.1841  -0.1811  -0.1770  -0.1700  -0.1604
    -0.1487  -0.1103  -0.1048  -0.0979  -0.0851  -0.0777  -0.0749  -0.0726
    -0.0618  -0.0602  -0.0542  -0.0501  -0.0253   0.0068   0.0148   0.0344
     0.1039   0.1122   0.1559   0.1613   0.1672   0.1682   0.1765   0.1809
     0.1834   0.1880   0.1930   0.2024   0.2620   0.2655   0.2732   0.2800
     0.2837   0.2875   0.2895   0.2939   0.3125   0.3176   0.3214   0.3229
     0.3295   0.3407   0.3490   0.3531   0.3611   0.3646   0.3677   0.3736
     0.4988   0.5613   0.6151   0.6230   0.6325   0.6415   0.6450   0.6642
     0.6791   0.6911   0.6980   0.7186   0.7305   0.7398   0.7498   0.7634
     0.7649   0.7860   0.9123   0.9144   0.9179   0.9214   0.9272   0.9413
     0.9460   0.9465   0.9701   0.9794   0.9852   0.9868   0.9886   0.9957
     1.0046   1.0375   1.0659   1.0724   1.0749   1.0781   1.0833   1.1272
     1.1374   1.1444   1.1547   1.1689   1.1742   1.1832   1.1848   1.1883
     1.1936   1.2345   1.2409   1.2483   1.2586   1.2613   1.2757   1.2931
     1.2940   1.2974   1.3029   1.3070   1.3090   1.3112   1.3204   1.3221
     1.3244   1.3285   1.3498   1.3581   1.3943   1.4426   1.4938   1.4974
     1.5148   1.5337   1.5504   1.5547   1.5635   1.5792   1.5830   1.5873
     1.6054   1.6292   1.6555   1.6654   1.6694   1.6806   1.7125   1.7185
     1.7287   1.7344   1.7405   1.7437   1.7647   1.7774   1.7854   1.7914
     1.7955   1.7981   1.8024   1.8067   1.8132   1.8213   1.8677   1.8719
     1.8794   1.8944   1.8967   1.9031   1.9080   1.9209   1.9237   1.9305
     1.9342   1.9354   1.9392   1.9399   1.9910   2.0235   2.0470   2.0625
     2.0690   2.0761   2.0862   2.0961   2.0986   2.1045   2.1074   2.1166
     2.1183   2.1243   2.1315   2.1352   2.1442   2.1459   2.1513   2.1566
     2.1617   2.1666   2.1694   2.1731   2.1766   2.1886   2.1902   2.1972
     2.2206   2.2237   2.2416   2.2578   2.2745   2.2873   2.3297   2.3318
     2.3344   2.3382   2.3439   2.3476   2.3549   2.3676   2.3760   2.3868
     2.4021   2.4152   2.4607   2.4684   2.4727   2.4837   2.4844   2.4887
     2.5007   2.5047   2.5320   2.5388   2.5614   2.5633   2.5710   2.5726
     2.5822   2.5946   2.6018   2.6063   2.6194   2.6266   2.6292   2.6320
     2.6353   2.6448   2.6592   2.6763   2.6804   2.6834   2.6865   2.7026
     2.7234   2.7359   2.7364   2.7431   2.7546   2.7632   2.8256   2.8444
     2.8617   2.8852   2.8897   2.9063   2.9280   2.9350   2.9406   2.9542
     2.9566   2.9619   2.9962   3.0115   3.0292   3.0329   3.0377   3.0397
     3.0441   3.0473   3.0587   3.0651   3.0846   3.0871   3.0912   3.0928
     3.0960   3.1010   3.1062   3.1075   3.1108   3.1119   3.1180   3.1198
     3.1251   3.1306   3.1961   3.2178   3.2597   3.2613   3.2729   3.2797
     3.2950   3.2967   3.3343   3.3442   3.3613   3.3636   3.3874   3.3887
     3.4152   3.4394   3.4514   3.4580   3.4622   3.4669   3.4700   3.4764
     3.4991   3.5189   3.5224   3.5246   3.5329   3.5392   3.5456   3.5478
     3.6472   3.6519   3.6571   3.6618   3.8091   3.8298   3.8655   3.8770
     3.8803   3.8869   3.9686   3.9792   3.9917   4.0318   4.0467   4.0572
     4.0621   4.1129   4.7416   4.7495   4.7791   4.7890   4.9409   4.9509
     4.9677   4.9753   4.9799   4.9865   5.0051   5.0059   5.0471   5.0478
     5.2462   5.2502   5.3308   5.3346   5.3515   5.3611   5.3770   5.3863
     5.4525   5.5018   5.5360   5.5412   5.6170   5.6334   5.7889   5.7949
     5.8189   5.8222   6.0460   6.0509   6.0780   6.0832   6.3103   6.3145
     6.3412   6.3455   6.7433   6.7525   6.8262   6.8358   6.8419   6.8446
     7.0667   7.1176   7.1432   7.1530   7.1976   7.2078   7.2294   7.2391
     7.2553   7.2622   7.5507   7.5896   7.6434   7.6932   7.7791   7.7810
     7.7989   7.7999   7.8659   7.8702   8.1780   8.2165   8.3781   8.4244
     8.6204   8.7212   8.8711   8.8782   9.0134   9.0191   9.0827   9.0893
     9.3587   9.4132   9.4490   9.4610   9.4950   9.5056   9.5628   9.5698
     9.6405   9.7038   9.7817   9.7844   9.9211  10.0052  10.0449  10.0869
    10.2115  10.2167  10.2682  10.2763  10.3864  10.3966  10.4567  10.4799
    10.4859  10.4964  10.5140  10.5402  10.6094  10.6115  10.7164  10.7339
    10.7567  10.7605  10.8943  10.9034  11.0024  11.0153  11.0970  11.1079
    11.1490  11.1534  11.1975  11.2054  11.2406  11.2481  11.2657  11.2734
    11.2796  11.2849  11.3609  11.3683  11.4442  11.4648  11.5009  11.5022
    11.5668  11.5785  11.6238  11.6317  11.7121  11.7393  11.8050  11.8183
    11.8648  11.8694  11.8979  11.9117  11.9809  11.9883  12.0704  12.1178
    12.1489  12.1644  12.1903  12.2332  12.3015  12.3081  12.3191  12.3291
    12.3640  12.3834  12.4322  12.4487  12.5041  12.5294  12.5367  12.5633
    12.5754  12.5839  12.6202  12.6300  12.6474  12.6816  12.7677  12.7819
    12.7875  12.7956  12.8036  12.8117  12.8150  12.8370  12.8487  12.8773
    12.9292  12.9550  12.9659  13.0133  13.1267  13.1411  13.1781  13.1785
    13.2156  13.2367  13.2868  13.3120  13.4285  13.4381  13.4621  13.4731
    13.5745  13.6304  13.6811  13.6883  13.7287  13.7805

          k = 0.1000 0.4051 0.0000 (309834 PWs)   bands (ev):

  -108.9095-108.9095-100.4053-100.4053-100.3987-100.3987-100.3985-100.3985
  -100.3696-100.3696-100.3647-100.3647-100.3625-100.3625-100.3607-100.3607
  -100.3582-100.3582-100.3571-100.3571-100.3546-100.3546-100.3538-100.3538
  -100.3516-100.3516-100.3511-100.3511-100.3490-100.3490-100.3481-100.3481
  -100.3420-100.3420-100.3130-100.3130-100.3077-100.3077-100.3057-100.3057
  -100.0991-100.0991-100.0981-100.0981-100.0972-100.0972-100.0942-100.0942
  -100.0940-100.0940-100.0922-100.0922-100.0908-100.0908-100.0905-100.0905
  -100.0888-100.0888-100.0879-100.0879-100.0860-100.0860-100.0856-100.0856
  -100.0846-100.0846-100.0844-100.0844-100.0835-100.0835-100.0829-100.0829
  -100.0810-100.0810-100.0808-100.0808-100.0805-100.0805-100.0763-100.0763
  -100.0715-100.0715-100.0706-100.0706-100.0665-100.0665-100.0644-100.0644
  -100.0640-100.0640-100.0621-100.0621-100.0599-100.0599-100.0584-100.0584
  -100.0523-100.0523 -70.9116 -70.9116 -64.1050 -64.1050 -64.1048 -64.1048
   -64.0885 -64.0885 -64.0716 -64.0716 -64.0697 -64.0697 -64.0676 -64.0676
   -64.0650 -64.0650 -64.0610 -64.0610 -64.0590 -64.0590 -64.0548 -64.0548
   -64.0501 -64.0501 -64.0469 -64.0469 -64.0411 -64.0411 -64.0342 -64.0342
   -64.0258 -64.0257 -64.0190 -64.0190 -64.0062 -64.0062 -64.0035 -64.0035
   -63.9881 -63.9881 -63.7973 -63.7973 -63.7954 -63.7953 -63.7931 -63.7930
   -63.7919 -63.7919 -63.7918 -63.7918 -63.7898 -63.7897 -63.7882 -63.7882
   -63.7862 -63.7861 -63.7859 -63.7858 -63.7835 -63.7835 -63.7819 -63.7817
   -63.7802 -63.7801 -63.7777 -63.7777 -63.7762 -63.7760 -63.7756 -63.7755
   -63.7735 -63.7733 -63.7678 -63.7677 -63.7655 -63.7654 -63.7642 -63.7642
   -63.7600 -63.7599 -63.7593 -63.7593 -63.7550 -63.7549 -63.7517 -63.7515
   -63.7509 -63.7507 -63.7470 -63.7467 -63.7437 -63.7435 -63.7429 -63.7427
   -63.7307 -63.7305 -63.7225 -63.7224 -52.5773 -52.5773 -52.5471 -52.5471
   -47.6228 -47.6222 -47.6194 -47.6186 -47.6056 -47.6052 -47.5995 -47.5986
   -47.5969 -47.5962 -47.5935 -47.5927 -47.5851 -47.5846 -47.5634 -47.5630
   -47.5591 -47.5584 -47.5522 -47.5516 -47.5404 -47.5400 -47.5161 -47.5146
   -47.5128 -47.5121 -47.5033 -47.5019 -47.4876 -47.4859 -47.4797 -47.4782
   -47.4721 -47.4711 -47.4632 -47.4623 -47.4578 -47.4567 -47.4511 -47.4491
   -47.4477 -47.4468 -47.4422 -47.4398 -47.4389 -47.4383 -47.4369 -47.4357
   -47.4334 -47.4329 -47.4298 -47.4273 -47.4242 -47.4234 -47.4205 -47.4195
   -47.4188 -47.4183 -47.4165 -47.4155 -47.4121 -47.4119 -47.4100 -47.4087
   -47.3962 -47.3942 -47.3835 -47.3820 -47.3805 -47.3770 -47.3746 -47.3731
   -47.3635 -47.3613 -47.3423 -47.3419 -47.3379 -47.3375 -47.3358 -47.3333
   -47.3310 -47.3290 -47.3283 -47.3271 -47.3264 -47.3257 -47.3242 -47.3241
   -47.3226 -47.3210 -47.3139 -47.3130 -47.3110 -47.3103 -47.3085 -47.3068
   -47.3061 -47.3053 -47.3034 -47.3020 -47.2931 -47.2927 -47.2838 -47.2818
   -47.2811 -47.2788 -47.2723 -47.2711 -47.2637 -47.2631 -47.2626 -47.2613
   -47.2500 -47.2486 -47.2465 -47.2427 -47.2258 -47.2242 -47.2157 -47.2149
   -47.1865 -47.1856 -47.1853 -47.1813 -47.1532 -47.1524 -47.1479 -47.1463
   -47.1305 -47.1302 -47.1300 -47.1294 -47.1274 -47.1269 -47.1244 -47.1240
   -47.1186 -47.1182 -47.1168 -47.1161 -47.1135 -47.1132 -47.1115 -47.1108
   -47.1105 -47.1099 -47.1089 -47.1082 -47.1075 -47.1072 -47.1042 -47.1035
   -47.1030 -47.1024 -47.1016 -47.1009 -47.0994 -47.0988 -47.0977 -47.0974
   -47.0965 -47.0959 -47.0956 -47.0950 -47.0941 -47.0938 -47.0911 -47.0904
   -47.0886 -47.0873 -47.0863 -47.0861 -47.0855 -47.0846 -47.0830 -47.0824
   -47.0819 -47.0812 -47.0807 -47.0803 -47.0783 -47.0769 -47.0744 -47.0735
   -47.0725 -47.0719 -47.0716 -47.0706 -47.0643 -47.0637 -47.0593 -47.0588
    -4.3674  -4.3672  -3.7566  -3.7556  -3.3887  -3.3868  -3.0582  -3.0539
    -2.8951  -2.8916  -2.6621  -2.6571  -2.5247  -2.4984  -2.4211  -2.4175
    -2.3527  -2.3391  -2.3239  -2.3171  -2.3091  -2.2990  -2.2622  -2.2549
    -2.2108  -2.2085  -2.1455  -2.1406  -2.1200  -2.1030  -2.0953  -2.0783
    -2.0696  -2.0372  -2.0273  -2.0152  -1.9693  -1.9634  -1.9147  -1.9080
    -1.8887  -1.8832  -1.8112  -1.8016  -1.7865  -1.7858  -1.7777  -1.7741
    -1.7710  -1.7644  -1.7497  -1.7371  -1.7306  -1.7242  -1.7169  -1.7020
    -1.6823  -1.6790  -1.6458  -1.6352  -1.6330  -1.6295  -1.6129  -1.6038
    -1.5889  -1.5846  -1.5779  -1.5731  -1.5408  -1.5333  -1.5183  -1.5109
    -1.5037  -1.5000  -1.4968  -1.4938  -1.4865  -1.4813  -1.4709  -1.4661
    -1.4633  -1.4568  -1.3707  -1.3681  -1.3614  -1.3534  -1.3499  -1.3404
    -1.3394  -1.3325  -1.2994  -1.2886  -1.2729  -1.2657  -1.2613  -1.2572
    -1.2377  -1.2268  -1.1935  -1.1918  -1.1821  -1.1543  -1.1348  -1.1213
    -1.1090  -1.1027  -1.0900  -1.0879  -1.0675  -1.0471  -1.0300  -1.0098
    -0.9986  -0.9891  -0.9310  -0.9165  -0.8810  -0.8733  -0.8603  -0.8383
    -0.7815  -0.7630  -0.7533  -0.7524  -0.7346  -0.7248  -0.7030  -0.6947
    -0.6578  -0.6518  -0.6260  -0.5984  -0.5842  -0.5696  -0.5615  -0.5579
    -0.5527  -0.5462  -0.5439  -0.5393  -0.5278  -0.5194  -0.5139  -0.5098
    -0.5009  -0.4989  -0.4943  -0.4907  -0.4824  -0.4810  -0.4775  -0.4717
    -0.4666  -0.4638  -0.4599  -0.4562  -0.4527  -0.4477  -0.4348  -0.4325
    -0.4226  -0.4155  -0.4117  -0.4065  -0.4024  -0.3847  -0.3587  -0.3498
    -0.3278  -0.3196  -0.3101  -0.2934  -0.2863  -0.2825  -0.2690  -0.2654
    -0.2552  -0.2453  -0.2409  -0.2300  -0.2223  -0.2202  -0.2091  -0.1993
    -0.1949  -0.1878  -0.1808  -0.1715  -0.1620  -0.1564  -0.1481  -0.1449
    -0.1287  -0.1274  -0.1236  -0.1197  -0.1111  -0.1026  -0.0902  -0.0860
    -0.0799  -0.0662  -0.0618  -0.0545  -0.0461  -0.0411  -0.0353  -0.0238
    -0.0113   0.0060   0.0463   0.0663   0.0764   0.0831   0.0901   0.0930
     0.1007   0.1161   0.1321   0.1457   0.1536   0.1635   0.1985   0.2040
     0.2457   0.2549   0.2934   0.3038   0.3281   0.3358   0.3536   0.3589
     0.4093   0.4193   0.4653   0.4994   0.5366   0.5405   0.5518   0.5734
     0.6266   0.6536   0.6613   0.6668   0.6790   0.6996   0.7366   0.7406
     0.7890   0.8009   0.8276   0.8295   0.8443   0.8556   0.8748   0.8899
     0.8941   0.8979   0.9433   0.9439   0.9512   0.9602   0.9676   0.9701
     0.9751   0.9790   0.9872   0.9941   1.0171   1.0348   1.0502   1.0694
     1.0960   1.0999   1.1142   1.1202   1.1526   1.1568   1.1806   1.2066
     1.2195   1.2306   1.2330   1.2369   1.2481   1.2507   1.2614   1.2663
     1.2701   1.2766   1.2815   1.2881   1.2948   1.3261   1.3368   1.3439
     1.3474   1.3520   1.3583   1.3705   1.3840   1.3968   1.3993   1.4224
     1.4672   1.4774   1.4833   1.4870   1.4911   1.4984   1.5032   1.5085
     1.5151   1.5475   1.5569   1.5689   1.5866   1.5972   1.6071   1.6473
     1.6545   1.6699   1.6980   1.7037   1.7185   1.7423   1.7537   1.7648
     1.7911   1.7964   1.8051   1.8181   1.8263   1.8390   1.8434   1.8523
     1.8544   1.8601   1.8785   1.8827   1.8886   1.8996   1.9068   1.9114
     1.9249   1.9340   1.9395   1.9458   1.9492   1.9524   1.9557   1.9594
     1.9642   1.9658   1.9711   1.9797   1.9972   2.0278   2.0332   2.0419
     2.0538   2.0578   2.0751   2.1007   2.1142   2.1181   2.1299   2.1366
     2.1492   2.1691   2.1843   2.1958   2.2029   2.2067   2.2151   2.2212
     2.2325   2.2370   2.2419   2.2490   2.2511   2.2569   2.2631   2.2697
     2.2748   2.2826   2.2851   2.2918   2.3316   2.3457   2.3517   2.3592
     2.3785   2.3933   2.4033   2.4132   2.4364   2.4467   2.4602   2.4764
     2.4888   2.4986   2.5152   2.5233   2.5297   2.5396   2.5452   2.5528
     2.5567   2.5620   2.5658   2.5678   2.5704   2.5734   2.5783   2.5860
     2.5872   2.5963   2.6110   2.6275   2.6613   2.6649   2.6771   2.6843
     2.6939   2.7252   2.7403   2.7428   2.7481   2.7530   2.7559   2.7785
     2.8215   2.8517   2.8673   2.8761   2.8826   2.8915   2.8959   2.8995
     2.9099   2.9119   2.9240   2.9264   2.9444   2.9520   2.9673   2.9707
     2.9754   2.9759   2.9884   2.9921   2.9955   3.0019   3.0093   3.0209
     3.0243   3.0298   3.0501   3.0632   3.0689   3.0797   3.0833   3.0959
     3.1027   3.1063   3.1104   3.1174   3.1311   3.1368   3.1494   3.1627
     3.1801   3.1865   3.1965   3.2052   3.2169   3.2276   3.2343   3.2407
     3.2578   3.2648   3.2786   3.2916   3.2951   3.3068   3.3113   3.3259
     3.3280   3.3325   3.3572   3.3769   3.3887   3.4054   3.4213   3.4271
     3.4356   3.4474   3.4569   3.4702   3.4727   3.4836   3.4981   3.5055
     3.5311   3.5562   3.5671   3.5746   3.5900   3.5943   3.6383   3.6446
     3.7016   3.7143   3.7255   3.7486   3.7797   3.7867   3.8455   3.8537
     4.0809   4.0918   4.1165   4.1301   4.1579   4.1637   4.4610   4.4758
     4.4815   4.4917   4.5334   4.5531   4.6929   4.7026   4.7592   4.7763
     4.9593   4.9609   5.0233   5.0485   5.0872   5.0947   5.2833   5.2900
     5.4051   5.4160   5.6871   5.6968   5.7267   5.7432   5.8065   5.8201
     5.8291   5.8794   5.9734   5.9822   6.0385   6.0428   6.2719   6.2781
     6.3325   6.3519   6.6883   6.7251   6.8358   6.8457   6.8526   6.8669
     6.9152   6.9225   7.1153   7.1254   7.3301   7.3596   7.3689   7.3995
     7.5177   7.5193   7.6811   7.6987   7.7106   7.7123   7.8380   7.8402
     8.0867   8.1660   8.3803   8.3994   8.6452   8.7053   8.7773   8.8442
     8.9863   9.0073   9.1212   9.1319   9.1938   9.2285   9.3719   9.3749
     9.4482   9.4668   9.5420   9.6110   9.6937   9.7043   9.7420   9.7527
     9.7920   9.8190   9.9037   9.9211  10.0304  10.0846  10.1059  10.1234
    10.1599  10.1688  10.2153  10.2220  10.2475  10.2569  10.3550  10.3654
    10.4263  10.4494  10.4957  10.5085  10.5679  10.5905  10.6105  10.6225
    10.7020  10.7182  10.7623  10.7684  10.8147  10.8564  10.8773  10.8870
    10.9128  10.9256  10.9745  10.9852  11.0278  11.0595  11.1012  11.1025
    11.2277  11.2421  11.2806  11.2895  11.3793  11.4151  11.4734  11.4901
    11.5511  11.5804  11.6136  11.6335  11.6698  11.6974  11.7270  11.7383
    11.7606  11.7774  11.8414  11.8651  11.9085  11.9206  12.0195  12.0638
    12.1099  12.1193  12.1853  12.2038  12.2184  12.2448  12.2738  12.2788
    12.4090  12.4544  12.5261  12.5615  12.5772  12.6118  12.6423  12.6572
    12.6896  12.7280  12.7570  12.7807  12.8873  12.9133  12.9268  12.9374
    12.9698  12.9940  13.0178  13.0342  13.0685  13.0920  13.1139  13.1371
    13.1748  13.1976  13.2058  13.2450  13.2767  13.2997  13.3090  13.3238
    13.3445  13.3703  13.3795  13.3948  13.4532  13.4838  13.5272  13.5418
    13.5525  13.5719  13.5818  13.5994  13.6181  13.6790

          k = 0.1000-0.5208 0.0000 (309900 PWs)   bands (ev):

  -108.9095-108.9095-100.4053-100.4053-100.3987-100.3987-100.3985-100.3985
  -100.3695-100.3695-100.3650-100.3650-100.3623-100.3623-100.3606-100.3606
  -100.3581-100.3581-100.3573-100.3573-100.3544-100.3544-100.3539-100.3539
  -100.3516-100.3516-100.3512-100.3512-100.3491-100.3491-100.3481-100.3481
  -100.3420-100.3420-100.3130-100.3130-100.3077-100.3077-100.3057-100.3057
  -100.0991-100.0991-100.0979-100.0979-100.0972-100.0972-100.0948-100.0948
  -100.0941-100.0941-100.0921-100.0921-100.0908-100.0908-100.0906-100.0906
  -100.0879-100.0879-100.0875-100.0875-100.0870-100.0870-100.0857-100.0857
  -100.0847-100.0847-100.0843-100.0843-100.0835-100.0835-100.0828-100.0828
  -100.0810-100.0810-100.0808-100.0808-100.0805-100.0805-100.0763-100.0763
  -100.0714-100.0714-100.0708-100.0708-100.0664-100.0664-100.0643-100.0643
  -100.0641-100.0641-100.0621-100.0621-100.0599-100.0599-100.0584-100.0584
  -100.0523-100.0523 -70.9116 -70.9116 -64.1050 -64.1050 -64.1048 -64.1048
   -64.0884 -64.0884 -64.0716 -64.0716 -64.0701 -64.0701 -64.0674 -64.0674
   -64.0649 -64.0649 -64.0594 -64.0594 -64.0587 -64.0587 -64.0547 -64.0547
   -64.0530 -64.0530 -64.0467 -64.0467 -64.0414 -64.0414 -64.0332 -64.0331
   -64.0240 -64.0240 -64.0206 -64.0206 -64.0062 -64.0062 -64.0035 -64.0035
   -63.9881 -63.9881 -63.7974 -63.7974 -63.7959 -63.7958 -63.7931 -63.7931
   -63.7919 -63.7919 -63.7918 -63.7917 -63.7896 -63.7895 -63.7880 -63.7880
   -63.7860 -63.7860 -63.7847 -63.7846 -63.7826 -63.7825 -63.7817 -63.7816
   -63.7802 -63.7802 -63.7789 -63.7789 -63.7778 -63.7777 -63.7748 -63.7748
   -63.7737 -63.7735 -63.7680 -63.7679 -63.7654 -63.7654 -63.7642 -63.7642
   -63.7596 -63.7596 -63.7594 -63.7593 -63.7557 -63.7556 -63.7528 -63.7526
   -63.7492 -63.7491 -63.7471 -63.7469 -63.7450 -63.7448 -63.7415 -63.7413
   -63.7295 -63.7293 -63.7236 -63.7235 -52.5773 -52.5773 -52.5471 -52.5471
   -47.6232 -47.6219 -47.6188 -47.6166 -47.6045 -47.6022 -47.5984 -47.5967
   -47.5946 -47.5940 -47.5912 -47.5910 -47.5872 -47.5866 -47.5731 -47.5728
   -47.5599 -47.5591 -47.5462 -47.5457 -47.5356 -47.5346 -47.5299 -47.5293
   -47.5138 -47.5135 -47.5032 -47.5025 -47.4872 -47.4856 -47.4805 -47.4780
   -47.4714 -47.4706 -47.4612 -47.4604 -47.4576 -47.4569 -47.4493 -47.4481
   -47.4458 -47.4452 -47.4420 -47.4392 -47.4359 -47.4358 -47.4334 -47.4327
   -47.4316 -47.4307 -47.4282 -47.4276 -47.4257 -47.4246 -47.4228 -47.4218
   -47.4208 -47.4202 -47.4164 -47.4158 -47.4128 -47.4122 -47.4107 -47.4095
   -47.3965 -47.3946 -47.3836 -47.3818 -47.3764 -47.3750 -47.3687 -47.3667
   -47.3631 -47.3597 -47.3522 -47.3512 -47.3390 -47.3378 -47.3361 -47.3338
   -47.3300 -47.3287 -47.3281 -47.3277 -47.3261 -47.3246 -47.3244 -47.3231
   -47.3226 -47.3219 -47.3144 -47.3132 -47.3096 -47.3085 -47.3068 -47.3050
   -47.3015 -47.3012 -47.2989 -47.2977 -47.2942 -47.2896 -47.2865 -47.2847
   -47.2813 -47.2780 -47.2742 -47.2720 -47.2703 -47.2643 -47.2635 -47.2619
   -47.2518 -47.2517 -47.2503 -47.2498 -47.2390 -47.2372 -47.2143 -47.2137
   -47.1841 -47.1829 -47.1824 -47.1790 -47.1498 -47.1490 -47.1374 -47.1364
   -47.1314 -47.1310 -47.1299 -47.1289 -47.1242 -47.1241 -47.1203 -47.1197
   -47.1176 -47.1170 -47.1139 -47.1135 -47.1119 -47.1114 -47.1105 -47.1104
   -47.1100 -47.1098 -47.1076 -47.1073 -47.1065 -47.1061 -47.1051 -47.1044
   -47.1018 -47.1015 -47.1012 -47.1007 -47.0993 -47.0987 -47.0985 -47.0980
   -47.0975 -47.0969 -47.0967 -47.0961 -47.0957 -47.0953 -47.0926 -47.0921
   -47.0913 -47.0904 -47.0882 -47.0874 -47.0872 -47.0869 -47.0836 -47.0834
   -47.0826 -47.0823 -47.0814 -47.0812 -47.0794 -47.0788 -47.0754 -47.0743
   -47.0737 -47.0734 -47.0721 -47.0712 -47.0642 -47.0636 -47.0595 -47.0591
    -4.1985  -4.1981  -3.9896  -3.9890  -3.4195  -3.4177  -2.9431  -2.9337
    -2.8749  -2.8707  -2.6887  -2.6761  -2.5068  -2.4933  -2.3806  -2.3620
    -2.3033  -2.3011  -2.2976  -2.2967  -2.2718  -2.2479  -2.1910  -2.1778
    -2.1452  -2.1372  -2.1206  -2.1069  -2.0997  -2.0831  -2.0610  -2.0349
    -2.0041  -1.9944  -1.9807  -1.9761  -1.9621  -1.9558  -1.9458  -1.9417
    -1.9386  -1.9351  -1.9294  -1.9241  -1.8677  -1.8590  -1.8299  -1.8250
    -1.8160  -1.8070  -1.7925  -1.7846  -1.7449  -1.7398  -1.7288  -1.7192
    -1.7089  -1.6847  -1.6797  -1.6695  -1.6613  -1.6516  -1.6449  -1.6351
    -1.5804  -1.5773  -1.5635  -1.5563  -1.5253  -1.4962  -1.4742  -1.4664
    -1.4598  -1.4506  -1.4433  -1.4376  -1.4293  -1.4245  -1.4210  -1.4178
    -1.4112  -1.4067  -1.4016  -1.3957  -1.3929  -1.3883  -1.3823  -1.3809
    -1.3661  -1.3655  -1.3578  -1.3500  -1.3385  -1.3295  -1.3217  -1.3167
    -1.2701  -1.2508  -1.2431  -1.2392  -1.2346  -1.2269  -1.1780  -1.1716
    -1.1675  -1.1642  -1.1428  -1.1223  -1.1016  -1.0972  -1.0829  -1.0811
    -0.9932  -0.9776  -0.9383  -0.9075  -0.8860  -0.8772  -0.8701  -0.8518
    -0.8131  -0.8010  -0.7789  -0.7748  -0.7432  -0.7367  -0.7096  -0.7072
    -0.6482  -0.6423  -0.6288  -0.6071  -0.5854  -0.5770  -0.5619  -0.5588
    -0.5441  -0.5370  -0.5269  -0.5212  -0.5165  -0.5122  -0.5042  -0.5013
    -0.4994  -0.4967  -0.4939  -0.4905  -0.4854  -0.4801  -0.4776  -0.4687
    -0.4666  -0.4625  -0.4583  -0.4521  -0.4460  -0.4399  -0.4303  -0.4249
    -0.4180  -0.4148  -0.4061  -0.4030  -0.3980  -0.3896  -0.3776  -0.3682
    -0.3397  -0.3360  -0.3245  -0.3142  -0.2965  -0.2821  -0.2742  -0.2652
    -0.2577  -0.2504  -0.2424  -0.2379  -0.2263  -0.2187  -0.2156  -0.2106
    -0.2015  -0.1936  -0.1854  -0.1758  -0.1671  -0.1599  -0.1556  -0.1444
    -0.1393  -0.1367  -0.1268  -0.1239  -0.1178  -0.1100  -0.0969  -0.0942
    -0.0846  -0.0666  -0.0641  -0.0584  -0.0437  -0.0416  -0.0342  -0.0323
    -0.0200  -0.0093   0.0132   0.0257   0.0361   0.0430   0.0693   0.0760
     0.1003   0.1108   0.1214   0.1341   0.1428   0.1479   0.1891   0.2055
     0.2148   0.2206   0.2946   0.3055   0.3261   0.3328   0.3592   0.3653
     0.4253   0.4352   0.4756   0.5208   0.6475   0.6609   0.6645   0.6879
     0.6907   0.6949   0.6991   0.7019   0.7187   0.7243   0.7547   0.7846
     0.7906   0.8016   0.8061   0.8104   0.8156   0.8301   0.8435   0.8503
     0.8677   0.8744   0.8870   0.9272   0.9782   0.9825   0.9845   0.9948
     0.9980   1.0020   1.0174   1.0372   1.0446   1.0718   1.0890   1.0931
     1.0964   1.1050   1.1093   1.1389   1.1645   1.1729   1.1771   1.1882
     1.1994   1.2100   1.2141   1.2337   1.2474   1.2523   1.2564   1.2660
     1.2709   1.2851   1.2912   1.3003   1.3352   1.3405   1.3440   1.3642
     1.3959   1.4020   1.4277   1.4325   1.4631   1.4667   1.4707   1.4733
     1.4787   1.4872   1.5011   1.5178   1.5274   1.5343   1.5397   1.5476
     1.5490   1.5532   1.5569   1.5815   1.6240   1.6303   1.6349   1.6481
     1.6536   1.6667   1.6882   1.7002   1.7085   1.7252   1.7271   1.7524
     1.7752   1.7937   1.8047   1.8085   1.8144   1.8268   1.8507   1.8590
     1.8700   1.8878   1.8913   1.8967   1.9111   1.9174   1.9236   1.9291
     1.9371   1.9502   1.9548   1.9685   1.9747   1.9799   1.9867   1.9899
     1.9929   2.0130   2.0200   2.0372   2.0632   2.0815   2.0941   2.1107
     2.1351   2.1419   2.1470   2.1510   2.1565   2.1668   2.1742   2.1967
     2.2001   2.2112   2.2202   2.2217   2.2260   2.2317   2.2335   2.2357
     2.2397   2.2459   2.2516   2.2551   2.2599   2.2712   2.2797   2.2893
     2.3018   2.3146   2.3237   2.3382   2.3488   2.3806   2.4018   2.4189
     2.4252   2.4313   2.4405   2.4446   2.4591   2.4786   2.4935   2.5001
     2.5071   2.5110   2.5189   2.5268   2.5346   2.5423   2.5466   2.5561
     2.5600   2.5620   2.5669   2.5740   2.5751   2.5791   2.6102   2.6161
     2.6550   2.6710   2.6733   2.6805   2.6845   2.6882   2.6927   2.6965
     2.7039   2.7139   2.7259   2.7351   2.7512   2.7606   2.7651   2.7742
     2.8015   2.8151   2.8253   2.8300   2.8352   2.8468   2.8501   2.8546
     2.8715   2.8755   2.9051   2.9079   2.9112   2.9179   2.9300   2.9326
     2.9372   2.9403   2.9514   2.9532   2.9594   2.9648   2.9668   2.9703
     2.9749   2.9807   2.9834   2.9915   3.0368   3.0393   3.0695   3.0956
     3.1118   3.1228   3.1334   3.1376   3.1400   3.1431   3.1686   3.1735
     3.1830   3.1865   3.1929   3.1987   3.2159   3.2235   3.2327   3.2359
     3.2462   3.2540   3.2608   3.2642   3.2680   3.2755   3.2783   3.2862
     3.3083   3.3240   3.3460   3.3680   3.3724   3.3790   3.3940   3.4236
     3.4764   3.4972   3.5403   3.5491   3.5587   3.5750   3.5961   3.6095
     3.6119   3.6199   3.6240   3.6325   3.6736   3.6833   3.6902   3.6926
     3.6958   3.7010   3.7349   3.7437   3.7585   3.7699   3.8309   3.8454
     3.8759   3.8887   4.0086   4.0123   4.0507   4.0607   4.0663   4.0687
     4.1380   4.1492   4.2486   4.2534   4.4065   4.4296   4.4784   4.4954
     4.7505   4.7635   5.0410   5.0633   5.1532   5.1579   5.2310   5.2364
     5.6561   5.6744   5.8218   5.8275   5.8865   5.8904   5.8971   5.9048
     5.9833   5.9854   6.0782   6.1184   6.1452   6.1473   6.1775   6.1820
     6.2337   6.2387   6.3335   6.3494   6.5025   6.5195   6.5362   6.5625
     6.9173   6.9262   7.0580   7.0661   7.3065   7.3730   7.5918   7.5992
     7.6708   7.6769   7.8995   7.9036   7.9939   8.0570   8.1430   8.1719
     8.3328   8.3356   8.4866   8.5078   8.5233   8.5316   8.7312   8.7825
     8.8831   8.9069   9.0223   9.0821   9.2299   9.2715   9.4779   9.5038
     9.5326   9.5376   9.5680   9.5731   9.6912   9.7706   9.8173   9.8313
     9.8576   9.8670   9.9338   9.9346  10.0284  10.0439  10.0994  10.1080
    10.1578  10.1707  10.2094  10.2213  10.2430  10.2626  10.2701  10.2789
    10.3194  10.3392  10.4676  10.4795  10.4859  10.5012  10.6402  10.6534
    10.6732  10.6816  10.7440  10.7774  10.8134  10.8352  10.9263  10.9547
    11.0147  11.0314  11.0725  11.0969  11.1416  11.1512  11.1962  11.2266
    11.2451  11.2624  11.3350  11.3659  11.3897  11.4025  11.4365  11.4459
    11.4604  11.4688  11.5219  11.5261  11.5544  11.5839  11.6621  11.6818
    11.7926  11.8140  11.8580  11.8723  11.9095  11.9192  12.0053  12.0064
    12.0663  12.0742  12.1211  12.1293  12.1955  12.2291  12.2863  12.3210
    12.4018  12.4155  12.5591  12.5844  12.6844  12.7071  12.7403  12.7526
    12.7696  12.7863  12.8494  12.8709  12.8836  12.9147  12.9638  12.9708
    12.9965  13.0097  13.0489  13.0748  13.0871  13.0931  13.1076  13.1119
    13.1651  13.1779  13.2671  13.2950  13.3100  13.3337  13.3495  13.3677
    13.3743  13.3861  13.4026  13.4079  13.4157  13.4244  13.4352  13.4445
    13.4626  13.4795  13.4820  13.4974  13.5254  13.5656

          k = 0.1000-0.2893 0.0000 (309852 PWs)   bands (ev):

  -108.9095-108.9095-100.4053-100.4053-100.3987-100.3987-100.3985-100.3985
  -100.3697-100.3697-100.3647-100.3647-100.3621-100.3621-100.3611-100.3611
  -100.3582-100.3582-100.3573-100.3573-100.3545-100.3545-100.3538-100.3538
  -100.3515-100.3515-100.3510-100.3510-100.3495-100.3495-100.3479-100.3479
  -100.3421-100.3421-100.3130-100.3130-100.3077-100.3077-100.3057-100.3057
  -100.0993-100.0993-100.0982-100.0982-100.0969-100.0969-100.0942-100.0942
  -100.0941-100.0941-100.0918-100.0918-100.0907-100.0907-100.0906-100.0906
  -100.0888-100.0888-100.0880-100.0880-100.0865-100.0865-100.0858-100.0858
  -100.0847-100.0847-100.0839-100.0839-100.0834-100.0834-100.0828-100.0828
  -100.0810-100.0810-100.0808-100.0808-100.0804-100.0804-100.0764-100.0764
  -100.0716-100.0716-100.0706-100.0706-100.0662-100.0662-100.0647-100.0647
  -100.0641-100.0641-100.0619-100.0619-100.0598-100.0598-100.0585-100.0585
  -100.0523-100.0523 -70.9116 -70.9116 -64.1050 -64.1050 -64.1047 -64.1047
   -64.0886 -64.0886 -64.0714 -64.0714 -64.0700 -64.0700 -64.0670 -64.0670
   -64.0653 -64.0653 -64.0611 -64.0611 -64.0590 -64.0590 -64.0566 -64.0566
   -64.0498 -64.0498 -64.0431 -64.0431 -64.0412 -64.0412 -64.0341 -64.0341
   -64.0299 -64.0299 -64.0171 -64.0171 -64.0062 -64.0062 -64.0035 -64.0035
   -63.9881 -63.9881 -63.7967 -63.7966 -63.7953 -63.7953 -63.7929 -63.7928
   -63.7927 -63.7926 -63.7913 -63.7912 -63.7895 -63.7894 -63.7880 -63.7880
   -63.7869 -63.7868 -63.7856 -63.7856 -63.7855 -63.7854 -63.7829 -63.7829
   -63.7807 -63.7807 -63.7780 -63.7780 -63.7754 -63.7752 -63.7748 -63.7748
   -63.7708 -63.7706 -63.7667 -63.7665 -63.7658 -63.7657 -63.7648 -63.7648
   -63.7602 -63.7601 -63.7587 -63.7586 -63.7554 -63.7553 -63.7545 -63.7543
   -63.7494 -63.7493 -63.7474 -63.7473 -63.7422 -63.7420 -63.7419 -63.7419
   -63.7342 -63.7339 -63.7209 -63.7208 -52.5773 -52.5773 -52.5471 -52.5471
   -47.6262 -47.6256 -47.6207 -47.6194 -47.6087 -47.6080 -47.5989 -47.5985
   -47.5963 -47.5958 -47.5911 -47.5905 -47.5823 -47.5821 -47.5748 -47.5740
   -47.5580 -47.5574 -47.5420 -47.5416 -47.5270 -47.5263 -47.5152 -47.5143
   -47.5101 -47.5084 -47.5042 -47.5012 -47.4932 -47.4915 -47.4807 -47.4786
   -47.4721 -47.4707 -47.4669 -47.4647 -47.4593 -47.4566 -47.4553 -47.4540
   -47.4494 -47.4470 -47.4440 -47.4437 -47.4422 -47.4410 -47.4389 -47.4357
   -47.4340 -47.4328 -47.4297 -47.4283 -47.4232 -47.4228 -47.4195 -47.4188
   -47.4165 -47.4156 -47.4153 -47.4147 -47.4098 -47.4087 -47.4069 -47.4062
   -47.3993 -47.3972 -47.3894 -47.3870 -47.3815 -47.3800 -47.3762 -47.3747
   -47.3623 -47.3606 -47.3373 -47.3357 -47.3352 -47.3344 -47.3343 -47.3322
   -47.3315 -47.3308 -47.3289 -47.3285 -47.3263 -47.3255 -47.3248 -47.3241
   -47.3229 -47.3210 -47.3165 -47.3160 -47.3141 -47.3123 -47.3114 -47.3098
   -47.3087 -47.3038 -47.3023 -47.2996 -47.2935 -47.2914 -47.2896 -47.2890
   -47.2847 -47.2828 -47.2793 -47.2765 -47.2552 -47.2536 -47.2504 -47.2487
   -47.2394 -47.2381 -47.2365 -47.2340 -47.2180 -47.2160 -47.2125 -47.2110
   -47.1921 -47.1909 -47.1896 -47.1853 -47.1620 -47.1605 -47.1582 -47.1575
   -47.1467 -47.1458 -47.1305 -47.1298 -47.1280 -47.1271 -47.1241 -47.1234
   -47.1176 -47.1174 -47.1166 -47.1165 -47.1158 -47.1153 -47.1144 -47.1141
   -47.1112 -47.1102 -47.1088 -47.1082 -47.1069 -47.1064 -47.1049 -47.1048
   -47.1043 -47.1039 -47.1017 -47.1016 -47.1012 -47.1007 -47.0960 -47.0955
   -47.0945 -47.0939 -47.0933 -47.0928 -47.0917 -47.0912 -47.0898 -47.0892
   -47.0872 -47.0871 -47.0865 -47.0858 -47.0838 -47.0831 -47.0822 -47.0819
   -47.0810 -47.0806 -47.0789 -47.0784 -47.0764 -47.0759 -47.0729 -47.0726
   -47.0699 -47.0695 -47.0684 -47.0675 -47.0652 -47.0639 -47.0581 -47.0578
    -4.4984  -4.4983  -3.5024  -3.5007  -3.3345  -3.3324  -3.1784  -3.1758
    -2.8641  -2.8591  -2.7741  -2.7702  -2.6255  -2.6172  -2.4792  -2.4704
    -2.4377  -2.4205  -2.3849  -2.3686  -2.3338  -2.3320  -2.3196  -2.3139
    -2.2393  -2.2369  -2.2086  -2.1650  -2.1144  -2.1093  -2.0973  -2.0771
    -2.0465  -2.0432  -2.0175  -2.0056  -1.9850  -1.9811  -1.9022  -1.8983
    -1.8632  -1.8471  -1.8215  -1.8151  -1.7989  -1.7967  -1.7893  -1.7847
    -1.7740  -1.7699  -1.7632  -1.7502  -1.7243  -1.7151  -1.6941  -1.6853
    -1.6183  -1.6048  -1.5952  -1.5887  -1.5854  -1.5837  -1.5764  -1.5715
    -1.5629  -1.5585  -1.5500  -1.5476  -1.5455  -1.5411  -1.5369  -1.5323
    -1.4922  -1.4864  -1.4739  -1.4700  -1.4628  -1.4496  -1.4361  -1.4319
    -1.4208  -1.4080  -1.3816  -1.3699  -1.3680  -1.3614  -1.3296  -1.3176
    -1.2611  -1.2547  -1.2353  -1.2247  -1.2241  -1.2222  -1.2088  -1.2048
    -1.1911  -1.1857  -1.1610  -1.1536  -1.1074  -1.0945  -1.0812  -1.0758
    -1.0597  -1.0545  -1.0362  -1.0309  -0.9999  -0.9730  -0.9376  -0.9207
    -0.9048  -0.8943  -0.8855  -0.8812  -0.8754  -0.8482  -0.8269  -0.8208
    -0.7956  -0.7865  -0.7486  -0.7398  -0.7262  -0.7081  -0.6965  -0.6773
    -0.6543  -0.6470  -0.6275  -0.6191  -0.6092  -0.5787  -0.5608  -0.5604
    -0.5458  -0.5355  -0.5293  -0.5216  -0.5187  -0.5132  -0.4981  -0.4967
    -0.4929  -0.4884  -0.4845  -0.4817  -0.4779  -0.4744  -0.4728  -0.4695
    -0.4641  -0.4628  -0.4575  -0.4544  -0.4518  -0.4493  -0.4477  -0.4445
    -0.4390  -0.4363  -0.4281  -0.4138  -0.4080  -0.4066  -0.3936  -0.3751
    -0.3527  -0.3404  -0.3260  -0.3172  -0.2856  -0.2707  -0.2614  -0.2501
    -0.2305  -0.2288  -0.2178  -0.2147  -0.2119  -0.2074  -0.2045  -0.1984
    -0.1941  -0.1891  -0.1825  -0.1778  -0.1656  -0.1593  -0.1540  -0.1424
    -0.1403  -0.1110  -0.1020  -0.0915  -0.0856  -0.0812  -0.0715  -0.0638
    -0.0604  -0.0561  -0.0528  -0.0472  -0.0402  -0.0301  -0.0207  -0.0027
     0.0008   0.0325   0.0832   0.1060   0.1221   0.1271   0.1351   0.1426
     0.1450   0.1510   0.1594   0.1691   0.1728   0.1823   0.2401   0.2469
     0.2568   0.2606   0.2642   0.2671   0.3336   0.3406   0.3465   0.3568
     0.3737   0.3850   0.3919   0.4023   0.4200   0.4276   0.4572   0.4762
     0.5356   0.5828   0.6311   0.6499   0.6836   0.6917   0.7288   0.7337
     0.7513   0.7646   0.7923   0.8041   0.8198   0.8298   0.8544   0.8670
     0.8912   0.8976   0.9103   0.9162   0.9248   0.9268   0.9312   0.9419
     0.9572   0.9618   0.9763   0.9987   1.0080   1.0182   1.0427   1.0588
     1.0663   1.0731   1.0807   1.0890   1.1057   1.1135   1.1243   1.1418
     1.1473   1.1549   1.1753   1.1974   1.2008   1.2044   1.2085   1.2191
     1.2293   1.2625   1.2781   1.2843   1.2887   1.3032   1.3120   1.3162
     1.3198   1.3233   1.3272   1.3335   1.3494   1.3715   1.4080   1.4232
     1.4276   1.4394   1.4481   1.4610   1.4627   1.4715   1.4891   1.4983
     1.5162   1.5252   1.5499   1.5538   1.5593   1.5615   1.5687   1.5751
     1.5881   1.6384   1.6519   1.6555   1.6665   1.6796   1.6924   1.7128
     1.7188   1.7325   1.7656   1.7712   1.7818   1.7936   1.8099   1.8123
     1.8270   1.8351   1.8475   1.8687   1.8833   1.8919   1.8965   1.9041
     1.9128   1.9223   1.9293   1.9316   1.9338   1.9402   1.9472   1.9479
     1.9497   1.9536   1.9612   1.9818   1.9862   1.9986   2.0059   2.0107
     2.0349   2.0382   2.0520   2.0617   2.0661   2.0771   2.1108   2.1307
     2.1422   2.1452   2.1604   2.1720   2.1782   2.1860   2.1910   2.1940
     2.2030   2.2058   2.2126   2.2187   2.2221   2.2290   2.2367   2.2427
     2.2499   2.2576   2.2699   2.2776   2.3074   2.3111   2.3151   2.3197
     2.3225   2.3249   2.3349   2.3526   2.3823   2.4118   2.4594   2.4654
     2.4784   2.4838   2.4878   2.4919   2.4996   2.5064   2.5136   2.5217
     2.5343   2.5369   2.5593   2.5688   2.5802   2.5868   2.5993   2.6057
     2.6072   2.6139   2.6175   2.6228   2.6342   2.6368   2.6413   2.6454
     2.6517   2.6637   2.6711   2.6759   2.6912   2.7047   2.7384   2.7587
     2.7713   2.7890   2.8007   2.8060   2.8180   2.8284   2.8490   2.8576
     2.8854   2.8953   2.9199   2.9461   2.9517   2.9819   2.9873   2.9937
     2.9985   3.0069   3.0164   3.0219   3.0292   3.0326   3.0383   3.0418
     3.0494   3.0515   3.0569   3.0686   3.0721   3.0763   3.0806   3.0823
     3.0975   3.1005   3.1044   3.1118   3.1176   3.1279   3.1597   3.1700
     3.1873   3.1988   3.2077   3.2237   3.2324   3.2426   3.2521   3.2592
     3.2906   3.3018   3.3047   3.3064   3.3136   3.3212   3.3471   3.3567
     3.3734   3.3775   3.3815   3.3913   3.4077   3.4280   3.4336   3.4399
     3.4600   3.4652   3.4693   3.4799   3.4838   3.4885   3.5071   3.5218
     3.5290   3.5415   3.5944   3.6140   3.6495   3.6651   3.6955   3.7055
     3.7575   3.7642   3.8257   3.8398   3.9009   3.9125   3.9526   3.9611
     4.0608   4.1087   4.5161   4.5284   4.5447   4.5536   4.6146   4.6241
     4.7439   4.7575   4.9121   4.9212   4.9679   4.9764   4.9954   5.0041
     5.0285   5.0415   5.2231   5.2302   5.2558   5.2596   5.3257   5.3344
     5.4307   5.4349   5.4742   5.4939   5.5347   5.5386   5.6428   5.7013
     5.7821   5.7941   5.8792   5.8833   6.0147   6.0193   6.2970   6.3015
     6.7122   6.7168   6.7240   6.7459   6.8363   6.8406   7.0650   7.1194
     7.1501   7.1614   7.1932   7.1970   7.2322   7.2348   7.3065   7.3184
     7.3240   7.3363   7.3442   7.3532   7.5035   7.5425   7.7270   7.7305
     7.8369   7.8419   8.1510   8.2397   8.3929   8.4195   8.5758   8.6839
     8.7782   8.8269   9.0033   9.0414   9.2637   9.3055   9.4629   9.4828
     9.5117   9.5237   9.5699   9.5773   9.6196   9.7006   9.7287   9.7455
     9.7689   9.7901   9.8170   9.8293   9.8438   9.8599   9.9903  10.0537
    10.0794  10.0992  10.1177  10.1581  10.2885  10.3367  10.3839  10.3900
    10.4873  10.5148  10.5629  10.5700  10.6556  10.6693  10.7023  10.7104
    10.7269  10.7311  10.8057  10.8087  10.8596  10.8642  10.9100  10.9303
    10.9758  10.9888  10.9994  11.0441  11.0705  11.0959  11.1416  11.1510
    11.2222  11.2392  11.3710  11.3912  11.4208  11.4327  11.4742  11.4873
    11.5397  11.5784  11.6388  11.6590  11.6874  11.6945  11.7304  11.7336
    11.8000  11.8109  11.8559  11.8757  11.9272  11.9999  12.0358  12.0704
    12.0940  12.1176  12.1327  12.1551  12.2138  12.2309  12.3465  12.3576
    12.3844  12.4055  12.4582  12.4657  12.5653  12.5767  12.6282  12.6451
    12.6738  12.6859  12.7093  12.7206  12.7741  12.8121  12.8328  12.8800
    12.9119  12.9167  12.9513  12.9597  12.9692  12.9872  13.0454  13.0562
    13.1018  13.1356  13.1402  13.1535  13.1822  13.2007  13.2271  13.2554
    13.3203  13.3660  13.3998  13.4244  13.4375  13.4436  13.5168  13.5750
    13.5818  13.5962  13.6490  13.7159  13.7434  13.7611

          k = 0.1000-0.0579 0.0000 (309903 PWs)   bands (ev):

  -108.9095-108.9095-100.4053-100.4053-100.3987-100.3987-100.3985-100.3985
  -100.3698-100.3698-100.3640-100.3640-100.3623-100.3623-100.3614-100.3614
  -100.3584-100.3584-100.3571-100.3571-100.3548-100.3548-100.3537-100.3537
  -100.3514-100.3514-100.3508-100.3508-100.3497-100.3497-100.3478-100.3478
  -100.3421-100.3421-100.3130-100.3130-100.3077-100.3077-100.3057-100.3057
  -100.0995-100.0995-100.0986-100.0986-100.0966-100.0966-100.0943-100.0943
  -100.0930-100.0930-100.0915-100.0915-100.0907-100.0907-100.0907-100.0907
  -100.0903-100.0903-100.0880-100.0880-100.0868-100.0868-100.0852-100.0852
  -100.0846-100.0846-100.0837-100.0837-100.0834-100.0834-100.0830-100.0830
  -100.0811-100.0811-100.0808-100.0808-100.0803-100.0803-100.0764-100.0764
  -100.0718-100.0718-100.0704-100.0704-100.0661-100.0661-100.0650-100.0650
  -100.0640-100.0640-100.0618-100.0618-100.0597-100.0596-100.0586-100.0586
  -100.0523-100.0523 -70.9116 -70.9116 -64.1050 -64.1050 -64.1047 -64.1047
   -64.0887 -64.0887 -64.0712 -64.0712 -64.0694 -64.0694 -64.0669 -64.0669
   -64.0662 -64.0662 -64.0616 -64.0616 -64.0610 -64.0610 -64.0562 -64.0562
   -64.0445 -64.0445 -64.0435 -64.0435 -64.0381 -64.0381 -64.0366 -64.0366
   -64.0347 -64.0347 -64.0155 -64.0155 -64.0062 -64.0062 -64.0036 -64.0036
   -63.9881 -63.9881 -63.7958 -63.7958 -63.7941 -63.7940 -63.7937 -63.7937
   -63.7923 -63.7923 -63.7905 -63.7904 -63.7897 -63.7897 -63.7888 -63.7888
   -63.7883 -63.7883 -63.7883 -63.7882 -63.7851 -63.7851 -63.7831 -63.7831
   -63.7810 -63.7810 -63.7781 -63.7781 -63.7756 -63.7756 -63.7721 -63.7720
   -63.7691 -63.7689 -63.7666 -63.7666 -63.7653 -63.7653 -63.7629 -63.7629
   -63.7623 -63.7623 -63.7596 -63.7594 -63.7545 -63.7544 -63.7543 -63.7542
   -63.7507 -63.7507 -63.7460 -63.7459 -63.7421 -63.7421 -63.7405 -63.7405
   -63.7384 -63.7383 -63.7194 -63.7194 -52.5773 -52.5773 -52.5471 -52.5471
   -47.6290 -47.6290 -47.6233 -47.6232 -47.6132 -47.6131 -47.5946 -47.5943
   -47.5933 -47.5931 -47.5858 -47.5854 -47.5847 -47.5845 -47.5764 -47.5756
   -47.5735 -47.5730 -47.5164 -47.5155 -47.5146 -47.5145 -47.5100 -47.5082
   -47.5049 -47.5043 -47.5025 -47.4984 -47.4936 -47.4919 -47.4870 -47.4852
   -47.4770 -47.4769 -47.4687 -47.4671 -47.4662 -47.4654 -47.4576 -47.4569
   -47.4535 -47.4526 -47.4483 -47.4481 -47.4455 -47.4444 -47.4422 -47.4419
   -47.4351 -47.4336 -47.4294 -47.4287 -47.4208 -47.4206 -47.4181 -47.4178
   -47.4137 -47.4129 -47.4118 -47.4116 -47.4080 -47.4070 -47.4043 -47.4033
   -47.4017 -47.4008 -47.3986 -47.3980 -47.3800 -47.3798 -47.3757 -47.3756
   -47.3609 -47.3601 -47.3368 -47.3362 -47.3348 -47.3342 -47.3322 -47.3318
   -47.3299 -47.3289 -47.3278 -47.3271 -47.3259 -47.3258 -47.3253 -47.3250
   -47.3227 -47.3225 -47.3169 -47.3160 -47.3130 -47.3127 -47.3086 -47.3080
   -47.3053 -47.3049 -47.3032 -47.3029 -47.2993 -47.2980 -47.2967 -47.2958
   -47.2948 -47.2938 -47.2785 -47.2783 -47.2352 -47.2346 -47.2296 -47.2289
   -47.2188 -47.2178 -47.2116 -47.2112 -47.2112 -47.2106 -47.2074 -47.2059
   -47.1990 -47.1988 -47.1875 -47.1869 -47.1865 -47.1855 -47.1843 -47.1842
   -47.1748 -47.1738 -47.1286 -47.1280 -47.1262 -47.1258 -47.1236 -47.1229
   -47.1217 -47.1216 -47.1168 -47.1167 -47.1164 -47.1163 -47.1138 -47.1136
   -47.1121 -47.1120 -47.1109 -47.1105 -47.1087 -47.1086 -47.1071 -47.1069
   -47.1062 -47.1060 -47.1030 -47.1029 -47.1002 -47.1001 -47.0945 -47.0944
   -47.0927 -47.0925 -47.0915 -47.0914 -47.0902 -47.0901 -47.0883 -47.0879
   -47.0860 -47.0859 -47.0840 -47.0839 -47.0820 -47.0819 -47.0796 -47.0795
   -47.0793 -47.0790 -47.0777 -47.0775 -47.0757 -47.0755 -47.0710 -47.0709
   -47.0674 -47.0673 -47.0662 -47.0660 -47.0600 -47.0598 -47.0563 -47.0561
    -4.6316  -4.6316  -3.3207  -3.3205  -3.1311  -3.1286  -2.9832  -2.9811
    -2.9695  -2.9676  -2.8949  -2.8929  -2.7544  -2.7478  -2.7358  -2.7334
    -2.6723  -2.6708  -2.4245  -2.4192  -2.3913  -2.3878  -2.3658  -2.3657
    -2.3531  -2.3445  -2.1667  -2.1623  -2.1535  -2.1528  -2.0947  -2.0917
    -2.0288  -2.0270  -1.9885  -1.9470  -1.9269  -1.9104  -1.8762  -1.8713
    -1.8626  -1.8606  -1.8507  -1.8468  -1.8423  -1.8405  -1.8346  -1.8304
    -1.8231  -1.8188  -1.8107  -1.8010  -1.7170  -1.7167  -1.6520  -1.6503
    -1.6225  -1.6171  -1.6118  -1.6107  -1.6079  -1.6045  -1.5979  -1.5967
    -1.5917  -1.5898  -1.5672  -1.5644  -1.5539  -1.5516  -1.3815  -1.3795
    -1.3756  -1.3747  -1.3667  -1.3660  -1.3648  -1.3631  -1.3166  -1.3145
    -1.3115  -1.3073  -1.3022  -1.2964  -1.2856  -1.2704  -1.2586  -1.2477
    -1.2313  -1.2271  -1.1747  -1.1659  -1.1363  -1.1287  -1.0685  -1.0659
    -1.0507  -1.0505  -1.0420  -1.0402  -1.0338  -1.0294  -1.0131  -0.9929
    -0.9797  -0.9778  -0.9722  -0.9696  -0.9528  -0.9472  -0.9277  -0.9255
    -0.8852  -0.8823  -0.8244  -0.8224  -0.8089  -0.7989  -0.7552  -0.7549
    -0.7285  -0.7230  -0.6793  -0.6712  -0.6667  -0.6616  -0.6512  -0.6486
    -0.6348  -0.6311  -0.6164  -0.6035  -0.5769  -0.5753  -0.5483  -0.5471
    -0.5276  -0.5263  -0.5028  -0.5005  -0.4959  -0.4933  -0.4867  -0.4829
    -0.4784  -0.4756  -0.4710  -0.4666  -0.4630  -0.4617  -0.4569  -0.4562
    -0.4541  -0.4538  -0.4502  -0.4472  -0.4454  -0.4411  -0.4394  -0.4361
    -0.4351  -0.4325  -0.4312  -0.4267  -0.4261  -0.4200  -0.4080  -0.4070
    -0.4058  -0.4024  -0.3493  -0.3471  -0.3204  -0.3154  -0.2530  -0.2528
    -0.2344  -0.2278  -0.2223  -0.2192  -0.2149  -0.2068  -0.2059  -0.2016
    -0.1929  -0.1917  -0.1889  -0.1881  -0.1809  -0.1772  -0.1708  -0.1587
    -0.1541  -0.1501  -0.1256  -0.1067  -0.0982  -0.0901  -0.0829  -0.0822
    -0.0670  -0.0650  -0.0606  -0.0566   0.0409   0.0741   0.1002   0.1200
     0.1211   0.1312   0.1498   0.1628   0.2117   0.2174   0.2230   0.2274
     0.2395   0.2441   0.2577   0.2602   0.2615   0.2622   0.2679   0.2688
     0.2715   0.2724   0.2772   0.2797   0.2865   0.2879   0.3058   0.3069
     0.3219   0.3236   0.3499   0.3528   0.3775   0.3824   0.4039   0.4091
     0.4672   0.4707   0.4881   0.4919   0.5107   0.5564   0.6055   0.6120
     0.6360   0.6368   0.6484   0.6522   0.6620   0.6649   0.6828   0.6842
     0.8090   0.8353   0.8426   0.8479   0.8977   0.8994   0.9097   0.9112
     0.9163   0.9235   0.9253   0.9331   0.9369   0.9465   1.0289   1.0429
     1.0531   1.0550   1.0709   1.0811   1.1050   1.1176   1.1194   1.1235
     1.1292   1.1349   1.1407   1.1449   1.1476   1.1514   1.1558   1.1605
     1.1643   1.1694   1.1707   1.1743   1.1836   1.1848   1.1851   1.1993
     1.1999   1.2089   1.2134   1.2435   1.3003   1.3032   1.3257   1.3309
     1.3401   1.3420   1.3455   1.3472   1.4129   1.4428   1.5229   1.5252
     1.5425   1.5481   1.5539   1.5621   1.5699   1.5732   1.5796   1.5839
     1.5978   1.6170   1.6828   1.6871   1.7020   1.7042   1.7199   1.7223
     1.7285   1.7323   1.7383   1.7501   1.7575   1.7601   1.7689   1.7781
     1.7807   1.7880   1.8000   1.8030   1.8099   1.8151   1.8235   1.8332
     1.8455   1.8460   1.8594   1.8604   1.8683   1.8697   1.9360   1.9435
     1.9474   1.9534   1.9568   1.9732   1.9946   2.0056   2.0343   2.0426
     2.0488   2.0560   2.0755   2.0797   2.0867   2.0955   2.0992   2.1025
     2.1128   2.1162   2.1224   2.1234   2.1288   2.1349   2.1404   2.1411
     2.1467   2.1474   2.1527   2.1560   2.1576   2.1611   2.1815   2.1987
     2.2017   2.2205   2.2453   2.2557   2.2724   2.2888   2.2979   2.3132
     2.3367   2.3464   2.3501   2.3561   2.3605   2.3636   2.3696   2.3714
     2.3840   2.3907   2.4283   2.4328   2.4644   2.4705   2.4732   2.4831
     2.4911   2.4924   2.5059   2.5130   2.5209   2.5243   2.5317   2.5368
     2.5448   2.5464   2.5639   2.5716   2.5868   2.5989   2.6184   2.6247
     2.6279   2.6287   2.6324   2.6347   2.6448   2.6602   2.6914   2.6997
     2.7426   2.7482   2.7530   2.7572   2.7825   2.7898   2.8170   2.8220
     2.8383   2.8512   2.8595   2.8742   2.8765   2.8818   2.8851   2.8979
     2.9182   2.9293   2.9386   2.9444   2.9518   2.9534   3.0293   3.0416
     3.0441   3.0495   3.0507   3.0558   3.0898   3.0901   3.1036   3.1049
     3.1109   3.1130   3.1293   3.1420   3.1467   3.1478   3.1506   3.1521
     3.1586   3.1710   3.2197   3.2263   3.2825   3.2845   3.2877   3.2915
     3.3045   3.3100   3.3206   3.3265   3.3473   3.3481   3.3937   3.4226
     3.4575   3.4620   3.4663   3.4696   3.4757   3.4760   3.4835   3.4837
     3.5074   3.5181   3.5208   3.5285   3.5300   3.5501   3.7085   3.7140
     3.7175   3.7223   3.7732   3.7748   3.9209   3.9259   3.9390   3.9450
     3.9514   3.9523   3.9651   4.0023   4.0917   4.0957   4.1054   4.1158
     4.1407   4.1456   4.7948   4.8009   4.8963   4.8983   4.9207   4.9210
     4.9810   4.9848   5.0445   5.0446   5.0981   5.1001   5.1695   5.1722
     5.2829   5.2868   5.2978   5.3018   5.3662   5.3774   5.3891   5.4002
     5.5255   5.5607   5.8542   5.8543   5.8649   5.8657   6.0535   6.0548
     6.0672   6.0738   6.0902   6.0939   6.3100   6.3147   6.3228   6.3244
     6.3342   6.3415   6.3513   6.3552   6.6391   6.6395   6.6730   6.6733
     6.8007   6.8120   6.8253   6.8370   6.9995   7.0126   7.2118   7.2138
     7.2525   7.2615   7.5771   7.6573   7.7213   7.7273   7.8770   7.8857
     7.9457   7.9704   8.1540   8.1801   8.2838   8.3352   8.3445   8.3687
     8.4402   8.5234   8.5511   8.5584   8.7098   8.7118   8.9410   8.9543
     8.9703   8.9824   9.3767   9.3866   9.4584   9.4647   9.5230   9.5445
     9.6284   9.6911   9.7606   9.7794   9.8519   9.8700   9.9549   9.9730
    10.1360  10.1594  10.2146  10.2220  10.3664  10.3909  10.6919  10.6985
    10.7371  10.7382  10.7627  10.7654  10.8119  10.8174  10.8253  10.8317
    10.8431  10.8456  10.8996  10.9018  10.9901  10.9935  11.0691  11.0709
    11.0991  11.1024  11.1745  11.1900  11.2091  11.2218  11.2860  11.3052
    11.4020  11.4185  11.4837  11.4918  11.5002  11.5073  11.6335  11.6393
    11.7059  11.7298  11.7575  11.7672  11.8269  11.8333  11.8738  11.8831
    11.9398  11.9453  11.9889  12.0226  12.0244  12.0362  12.0567  12.0707
    12.0827  12.0903  12.1199  12.1542  12.1628  12.1972  12.2693  12.2855
    12.3193  12.3458  12.3657  12.3699  12.3753  12.3872  12.4114  12.4159
    12.4358  12.4373  12.4940  12.4971  12.5450  12.5474  12.5835  12.5868
    12.6365  12.6413  12.6810  12.7543  12.7932  12.7985  12.8303  12.8588
    12.9032  12.9093  12.9371  12.9574  13.0736  13.1241  13.2285  13.2367
    13.2962  13.3026  13.3156  13.3190  13.4309  13.4527  13.4926  13.5180
    13.5547  13.5953  13.7000  13.7027  13.7936  13.8383

          k = 0.3000 0.2893 0.0000 (309830 PWs)   bands (ev):

  -108.9095-108.9095-100.4053-100.4053-100.3987-100.3987-100.3985-100.3985
  -100.3696-100.3696-100.3646-100.3646-100.3625-100.3625-100.3607-100.3607
  -100.3582-100.3582-100.3571-100.3571-100.3547-100.3547-100.3537-100.3537
  -100.3516-100.3516-100.3511-100.3511-100.3490-100.3490-100.3481-100.3481
  -100.3420-100.3420-100.3130-100.3130-100.3077-100.3077-100.3057-100.3057
  -100.0991-100.0991-100.0981-100.0981-100.0972-100.0972-100.0942-100.0942
  -100.0940-100.0940-100.0922-100.0922-100.0908-100.0908-100.0904-100.0904
  -100.0889-100.0889-100.0879-100.0879-100.0860-100.0860-100.0857-100.0857
  -100.0845-100.0845-100.0843-100.0843-100.0835-100.0835-100.0829-100.0829
  -100.0810-100.0810-100.0808-100.0808-100.0805-100.0805-100.0763-100.0763
  -100.0715-100.0715-100.0706-100.0706-100.0665-100.0665-100.0645-100.0645
  -100.0639-100.0639-100.0621-100.0621-100.0599-100.0599-100.0584-100.0584
  -100.0523-100.0523 -70.9116 -70.9116 -64.1050 -64.1050 -64.1048 -64.1048
   -64.0885 -64.0885 -64.0716 -64.0716 -64.0696 -64.0696 -64.0678 -64.0677
   -64.0652 -64.0652 -64.0607 -64.0607 -64.0589 -64.0589 -64.0548 -64.0548
   -64.0498 -64.0498 -64.0470 -64.0470 -64.0413 -64.0413 -64.0343 -64.0343
   -64.0257 -64.0257 -64.0190 -64.0190 -64.0062 -64.0062 -64.0035 -64.0035
   -63.9881 -63.9881 -63.7973 -63.7973 -63.7953 -63.7953 -63.7930 -63.7929
   -63.7919 -63.7919 -63.7919 -63.7918 -63.7901 -63.7900 -63.7883 -63.7883
   -63.7860 -63.7859 -63.7858 -63.7858 -63.7834 -63.7834 -63.7819 -63.7817
   -63.7801 -63.7801 -63.7777 -63.7777 -63.7759 -63.7757 -63.7757 -63.7757
   -63.7736 -63.7735 -63.7678 -63.7677 -63.7654 -63.7653 -63.7642 -63.7642
   -63.7601 -63.7600 -63.7592 -63.7592 -63.7550 -63.7550 -63.7517 -63.7515
   -63.7509 -63.7507 -63.7471 -63.7469 -63.7437 -63.7435 -63.7430 -63.7428
   -63.7307 -63.7305 -63.7225 -63.7224 -52.5773 -52.5773 -52.5471 -52.5471
   -47.6232 -47.6228 -47.6190 -47.6184 -47.6057 -47.6054 -47.6003 -47.5995
   -47.5962 -47.5956 -47.5931 -47.5924 -47.5860 -47.5855 -47.5621 -47.5618
   -47.5582 -47.5574 -47.5524 -47.5518 -47.5408 -47.5404 -47.5156 -47.5143
   -47.5123 -47.5114 -47.5034 -47.5018 -47.4882 -47.4865 -47.4798 -47.4783
   -47.4722 -47.4712 -47.4636 -47.4627 -47.4580 -47.4568 -47.4513 -47.4493
   -47.4479 -47.4469 -47.4422 -47.4398 -47.4389 -47.4384 -47.4370 -47.4357
   -47.4335 -47.4330 -47.4300 -47.4274 -47.4243 -47.4235 -47.4206 -47.4197
   -47.4189 -47.4186 -47.4162 -47.4152 -47.4117 -47.4116 -47.4100 -47.4087
   -47.3965 -47.3945 -47.3834 -47.3820 -47.3802 -47.3766 -47.3745 -47.3730
   -47.3634 -47.3611 -47.3421 -47.3418 -47.3379 -47.3375 -47.3359 -47.3336
   -47.3310 -47.3292 -47.3284 -47.3269 -47.3266 -47.3257 -47.3247 -47.3243
   -47.3228 -47.3214 -47.3148 -47.3138 -47.3107 -47.3098 -47.3086 -47.3067
   -47.3062 -47.3054 -47.3035 -47.3013 -47.2930 -47.2925 -47.2827 -47.2814
   -47.2801 -47.2786 -47.2718 -47.2706 -47.2635 -47.2628 -47.2623 -47.2609
   -47.2507 -47.2493 -47.2462 -47.2420 -47.2248 -47.2232 -47.2162 -47.2155
   -47.1876 -47.1864 -47.1861 -47.1820 -47.1541 -47.1532 -47.1477 -47.1462
   -47.1306 -47.1302 -47.1299 -47.1292 -47.1271 -47.1268 -47.1244 -47.1240
   -47.1187 -47.1183 -47.1168 -47.1160 -47.1134 -47.1131 -47.1116 -47.1110
   -47.1107 -47.1100 -47.1090 -47.1080 -47.1073 -47.1070 -47.1044 -47.1036
   -47.1030 -47.1023 -47.1015 -47.1008 -47.0995 -47.0989 -47.0978 -47.0974
   -47.0966 -47.0960 -47.0956 -47.0950 -47.0939 -47.0936 -47.0910 -47.0904
   -47.0885 -47.0873 -47.0864 -47.0862 -47.0855 -47.0846 -47.0828 -47.0823
   -47.0819 -47.0811 -47.0806 -47.0803 -47.0783 -47.0769 -47.0743 -47.0734
   -47.0723 -47.0719 -47.0714 -47.0705 -47.0642 -47.0636 -47.0592 -47.0587
    -4.3682  -4.3680  -3.7611  -3.7602  -3.3829  -3.3810  -3.0590  -3.0548
    -2.8915  -2.8879  -2.6631  -2.6582  -2.5277  -2.5018  -2.4248  -2.4206
    -2.3573  -2.3467  -2.3306  -2.3236  -2.3107  -2.2990  -2.2587  -2.2516
    -2.2058  -2.2036  -2.1455  -2.1406  -2.1173  -2.1046  -2.0981  -2.0829
    -2.0728  -2.0362  -2.0265  -2.0160  -1.9676  -1.9617  -1.9173  -1.9099
    -1.8945  -1.8878  -1.8097  -1.8007  -1.7864  -1.7829  -1.7796  -1.7756
    -1.7719  -1.7668  -1.7489  -1.7328  -1.7292  -1.7189  -1.7117  -1.7001
    -1.6775  -1.6741  -1.6492  -1.6391  -1.6342  -1.6326  -1.6156  -1.6047
    -1.5897  -1.5846  -1.5780  -1.5741  -1.5410  -1.5336  -1.5189  -1.5112
    -1.5041  -1.5000  -1.4969  -1.4941  -1.4853  -1.4791  -1.4671  -1.4615
    -1.4573  -1.4533  -1.3688  -1.3659  -1.3602  -1.3533  -1.3489  -1.3408
    -1.3395  -1.3319  -1.2998  -1.2893  -1.2734  -1.2668  -1.2624  -1.2585
    -1.2363  -1.2252  -1.1928  -1.1912  -1.1828  -1.1544  -1.1340  -1.1174
    -1.1063  -1.1004  -1.0875  -1.0852  -1.0664  -1.0470  -1.0287  -1.0093
    -0.9978  -0.9885  -0.9301  -0.9155  -0.8789  -0.8707  -0.8583  -0.8373
    -0.7797  -0.7612  -0.7512  -0.7501  -0.7323  -0.7229  -0.7013  -0.6931
    -0.6509  -0.6450  -0.6250  -0.5975  -0.5845  -0.5732  -0.5663  -0.5584
    -0.5575  -0.5460  -0.5441  -0.5378  -0.5285  -0.5204  -0.5132  -0.5108
    -0.5005  -0.4987  -0.4959  -0.4903  -0.4824  -0.4802  -0.4743  -0.4689
    -0.4663  -0.4620  -0.4568  -0.4551  -0.4521  -0.4474  -0.4382  -0.4338
    -0.4262  -0.4177  -0.4136  -0.4090  -0.4032  -0.3841  -0.3589  -0.3496
    -0.3263  -0.3179  -0.3090  -0.2922  -0.2853  -0.2806  -0.2659  -0.2624
    -0.2540  -0.2442  -0.2392  -0.2296  -0.2224  -0.2195  -0.2105  -0.2011
    -0.1957  -0.1898  -0.1818  -0.1724  -0.1628  -0.1567  -0.1475  -0.1453
    -0.1278  -0.1273  -0.1218  -0.1192  -0.1106  -0.1017  -0.0873  -0.0851
    -0.0773  -0.0665  -0.0624  -0.0550  -0.0479  -0.0449  -0.0349  -0.0271
    -0.0113   0.0054   0.0475   0.0674   0.0793   0.0860   0.0919   0.0942
     0.1024   0.1179   0.1313   0.1447   0.1506   0.1616   0.1991   0.2039
     0.2437   0.2521   0.2936   0.3037   0.3266   0.3339   0.3573   0.3630
     0.4040   0.4135   0.4646   0.4990   0.5402   0.5425   0.5534   0.5734
     0.6260   0.6491   0.6595   0.6662   0.6740   0.6990   0.7365   0.7409
     0.7873   0.7997   0.8267   0.8286   0.8429   0.8546   0.8736   0.8894
     0.8935   0.8971   0.9462   0.9475   0.9501   0.9583   0.9659   0.9684
     0.9735   0.9768   0.9849   0.9919   1.0139   1.0344   1.0500   1.0721
     1.0957   1.1091   1.1139   1.1216   1.1511   1.1544   1.1812   1.2061
     1.2191   1.2309   1.2345   1.2388   1.2491   1.2532   1.2611   1.2663
     1.2696   1.2773   1.2806   1.2877   1.2935   1.3270   1.3369   1.3468
     1.3489   1.3549   1.3603   1.3713   1.3875   1.3982   1.4038   1.4240
     1.4654   1.4728   1.4793   1.4841   1.4914   1.4974   1.5059   1.5115
     1.5162   1.5445   1.5560   1.5646   1.5925   1.6008   1.6178   1.6458
     1.6525   1.6668   1.6900   1.7011   1.7169   1.7393   1.7562   1.7669
     1.7894   1.7944   1.8028   1.8155   1.8238   1.8371   1.8409   1.8497
     1.8529   1.8587   1.8747   1.8798   1.8845   1.8938   1.8989   1.9104
     1.9222   1.9326   1.9372   1.9445   1.9473   1.9507   1.9539   1.9565
     1.9622   1.9637   1.9684   1.9775   1.9964   2.0273   2.0346   2.0431
     2.0543   2.0594   2.0761   2.1014   2.1151   2.1185   2.1299   2.1357
     2.1493   2.1685   2.1842   2.1936   2.2011   2.2044   2.2125   2.2194
     2.2303   2.2337   2.2393   2.2484   2.2508   2.2562   2.2611   2.2644
     2.2697   2.2827   2.2892   2.2937   2.3330   2.3503   2.3541   2.3601
     2.3793   2.3931   2.4024   2.4135   2.4362   2.4463   2.4573   2.4728
     2.4875   2.4981   2.5135   2.5211   2.5278   2.5366   2.5426   2.5504
     2.5558   2.5619   2.5645   2.5653   2.5699   2.5736   2.5780   2.5877
     2.5906   2.6000   2.6105   2.6269   2.6605   2.6648   2.6771   2.6811
     2.6940   2.7244   2.7397   2.7424   2.7477   2.7529   2.7556   2.7791
     2.8226   2.8528   2.8678   2.8766   2.8835   2.8922   2.8966   2.9006
     2.9097   2.9138   2.9235   2.9264   2.9429   2.9531   2.9665   2.9712
     2.9773   2.9779   2.9885   2.9921   2.9950   3.0013   3.0091   3.0208
     3.0239   3.0294   3.0492   3.0624   3.0683   3.0803   3.0831   3.0968
     3.1039   3.1073   3.1114   3.1188   3.1316   3.1375   3.1500   3.1623
     3.1796   3.1868   3.1948   3.2032   3.2160   3.2250   3.2348   3.2416
     3.2569   3.2651   3.2785   3.2903   3.2940   3.3075   3.3104   3.3212
     3.3263   3.3306   3.3545   3.3745   3.3893   3.4069   3.4223   3.4281
     3.4369   3.4453   3.4518   3.4638   3.4756   3.4869   3.5043   3.5121
     3.5333   3.5584   3.5740   3.5822   3.5877   3.5915   3.6382   3.6443
     3.7029   3.7173   3.7282   3.7496   3.7843   3.7919   3.8443   3.8525
     4.0782   4.0893   4.1138   4.1290   4.1512   4.1583   4.4489   4.4638
     4.4792   4.4900   4.5331   4.5526   4.6812   4.6894   4.7548   4.7711
     4.9497   4.9502   5.0249   5.0502   5.1030   5.1099   5.3049   5.3117
     5.4045   5.4154   5.6920   5.7005   5.7395   5.7628   5.8115   5.8164
     5.8260   5.8812   5.9909   5.9982   6.0521   6.0566   6.2991   6.3065
     6.3348   6.3530   6.6812   6.7176   6.8304   6.8480   6.8600   6.8687
     6.9066   6.9156   7.1406   7.1513   7.3175   7.3247   7.3542   7.4078
     7.5307   7.5316   7.6737   7.6902   7.7192   7.7222   7.8375   7.8397
     8.0894   8.1695   8.3543   8.3705   8.6442   8.7170   8.7859   8.8424
     8.9852   9.0063   9.1165   9.1266   9.1901   9.2247   9.3523   9.3560
     9.4481   9.4658   9.5430   9.6122   9.7079   9.7259   9.7641   9.7752
     9.8057   9.8243   9.9001   9.9172  10.0278  10.0822  10.1028  10.1142
    10.1373  10.1485  10.1952  10.2048  10.2438  10.2539  10.3530  10.3640
    10.4224  10.4437  10.4959  10.5078  10.5689  10.5898  10.6075  10.6250
    10.7081  10.7286  10.7620  10.7679  10.8222  10.8617  10.8818  10.8925
    10.9137  10.9245  10.9719  10.9811  11.0163  11.0418  11.0915  11.0948
    11.2251  11.2400  11.2793  11.2862  11.3789  11.4150  11.4703  11.4867
    11.5495  11.5797  11.6112  11.6298  11.6698  11.6985  11.7408  11.7527
    11.7715  11.7885  11.8464  11.8691  11.9086  11.9193  12.0223  12.0679
    12.0942  12.1049  12.1827  12.2026  12.2178  12.2409  12.2719  12.2763
    12.4058  12.4505  12.5293  12.5651  12.5767  12.6183  12.6431  12.6580
    12.6888  12.7278  12.7545  12.7812  12.8864  12.9136  12.9251  12.9375
    12.9677  12.9826  13.0025  13.0230  13.0683  13.0919  13.1116  13.1338
    13.1715  13.1958  13.2106  13.2489  13.2724  13.2967  13.3086  13.3274
    13.3509  13.3704  13.3786  13.3940  13.4526  13.4833  13.5292  13.5441
    13.5545  13.5674  13.5823  13.5979  13.6143  13.6812

          k = 0.3000 0.5208 0.0000 (309849 PWs)   bands (ev):

  -108.9095-108.9095-100.4053-100.4053-100.3987-100.3987-100.3985-100.3985
  -100.3695-100.3695-100.3652-100.3652-100.3623-100.3623-100.3605-100.3605
  -100.3581-100.3581-100.3574-100.3574-100.3544-100.3544-100.3538-100.3538
  -100.3517-100.3517-100.3512-100.3512-100.3492-100.3492-100.3480-100.3480
  -100.3420-100.3420-100.3130-100.3130-100.3077-100.3077-100.3057-100.3057
  -100.0991-100.0991-100.0977-100.0977-100.0973-100.0973-100.0950-100.0950
  -100.0941-100.0941-100.0925-100.0925-100.0907-100.0907-100.0892-100.0892
  -100.0887-100.0887-100.0879-100.0879-100.0862-100.0862-100.0858-100.0858
  -100.0850-100.0850-100.0844-100.0844-100.0835-100.0835-100.0827-100.0827
  -100.0810-100.0810-100.0807-100.0807-100.0805-100.0805-100.0763-100.0763
  -100.0713-100.0713-100.0709-100.0709-100.0664-100.0664-100.0644-100.0644
  -100.0640-100.0640-100.0622-100.0622-100.0599-100.0599-100.0584-100.0584
  -100.0523-100.0523 -70.9116 -70.9116 -64.1051 -64.1051 -64.1048 -64.1048
   -64.0884 -64.0884 -64.0716 -64.0716 -64.0702 -64.0702 -64.0679 -64.0679
   -64.0631 -64.0631 -64.0603 -64.0603 -64.0592 -64.0592 -64.0555 -64.0555
   -64.0503 -64.0503 -64.0479 -64.0479 -64.0435 -64.0435 -64.0311 -64.0311
   -64.0229 -64.0229 -64.0222 -64.0222 -64.0062 -64.0062 -64.0035 -64.0035
   -63.9881 -63.9881 -63.7975 -63.7975 -63.7961 -63.7961 -63.7933 -63.7933
   -63.7919 -63.7919 -63.7919 -63.7919 -63.7882 -63.7882 -63.7879 -63.7879
   -63.7861 -63.7861 -63.7845 -63.7844 -63.7835 -63.7835 -63.7822 -63.7820
   -63.7801 -63.7801 -63.7769 -63.7768 -63.7768 -63.7767 -63.7755 -63.7754
   -63.7752 -63.7751 -63.7691 -63.7691 -63.7656 -63.7656 -63.7644 -63.7643
   -63.7596 -63.7596 -63.7585 -63.7584 -63.7534 -63.7533 -63.7529 -63.7528
   -63.7512 -63.7512 -63.7476 -63.7475 -63.7464 -63.7464 -63.7390 -63.7388
   -63.7291 -63.7291 -63.7242 -63.7242 -52.5773 -52.5773 -52.5471 -52.5471
   -47.6241 -47.6222 -47.6191 -47.6157 -47.6066 -47.6037 -47.5997 -47.5982
   -47.5881 -47.5875 -47.5859 -47.5854 -47.5781 -47.5777 -47.5757 -47.5749
   -47.5700 -47.5684 -47.5677 -47.5672 -47.5262 -47.5253 -47.5146 -47.5141
   -47.5103 -47.5093 -47.5069 -47.5048 -47.5020 -47.4968 -47.4825 -47.4744
   -47.4719 -47.4706 -47.4676 -47.4622 -47.4592 -47.4538 -47.4488 -47.4458
   -47.4444 -47.4408 -47.4391 -47.4381 -47.4368 -47.4363 -47.4344 -47.4333
   -47.4290 -47.4284 -47.4263 -47.4261 -47.4254 -47.4239 -47.4217 -47.4211
   -47.4201 -47.4195 -47.4193 -47.4187 -47.4177 -47.4171 -47.4137 -47.4121
   -47.3851 -47.3831 -47.3796 -47.3790 -47.3753 -47.3734 -47.3713 -47.3678
   -47.3676 -47.3610 -47.3586 -47.3558 -47.3402 -47.3383 -47.3376 -47.3342
   -47.3309 -47.3296 -47.3287 -47.3271 -47.3267 -47.3263 -47.3256 -47.3234
   -47.3225 -47.3169 -47.3091 -47.3063 -47.3052 -47.3028 -47.3020 -47.2999
   -47.2989 -47.2977 -47.2972 -47.2960 -47.2955 -47.2931 -47.2899 -47.2884
   -47.2867 -47.2852 -47.2844 -47.2815 -47.2783 -47.2772 -47.2679 -47.2539
   -47.2522 -47.2432 -47.2356 -47.2338 -47.2337 -47.2267 -47.2203 -47.2187
   -47.2169 -47.2152 -47.1726 -47.1669 -47.1344 -47.1324 -47.1322 -47.1310
   -47.1305 -47.1305 -47.1256 -47.1227 -47.1225 -47.1212 -47.1204 -47.1199
   -47.1191 -47.1180 -47.1169 -47.1160 -47.1128 -47.1123 -47.1115 -47.1107
   -47.1106 -47.1101 -47.1085 -47.1078 -47.1063 -47.1057 -47.1050 -47.1044
   -47.1031 -47.1026 -47.1015 -47.1009 -47.1004 -47.1001 -47.0991 -47.0987
   -47.0986 -47.0985 -47.0977 -47.0974 -47.0970 -47.0959 -47.0949 -47.0944
   -47.0916 -47.0898 -47.0882 -47.0863 -47.0861 -47.0858 -47.0850 -47.0846
   -47.0836 -47.0829 -47.0814 -47.0806 -47.0793 -47.0789 -47.0766 -47.0758
   -47.0745 -47.0744 -47.0715 -47.0708 -47.0643 -47.0631 -47.0601 -47.0593
    -4.0741  -4.0736  -3.8878  -3.8871  -3.8517  -3.8516  -2.8159  -2.8082
    -2.6203  -2.6027  -2.5115  -2.5106  -2.4196  -2.3970  -2.3869  -2.3798
    -2.3694  -2.3679  -2.2955  -2.2680  -2.1976  -2.1906  -2.1804  -2.1772
    -2.1753  -2.1742  -2.1698  -2.1684  -2.1633  -2.1613  -2.1462  -2.1357
    -2.1289  -2.1094  -2.0860  -2.0714  -2.0670  -2.0597  -2.0248  -2.0173
    -1.9184  -1.9149  -1.8813  -1.8735  -1.8498  -1.8488  -1.8441  -1.8416
    -1.8313  -1.8200  -1.7883  -1.7761  -1.7592  -1.7547  -1.6809  -1.6719
    -1.6657  -1.6642  -1.6616  -1.6592  -1.6314  -1.6198  -1.5983  -1.5911
    -1.5801  -1.5677  -1.5583  -1.5558  -1.5414  -1.5393  -1.5363  -1.5255
    -1.5031  -1.4984  -1.4838  -1.4782  -1.4519  -1.4421  -1.4048  -1.4008
    -1.4000  -1.3933  -1.3918  -1.3897  -1.3836  -1.3804  -1.3489  -1.3460
    -1.3267  -1.3225  -1.3169  -1.3141  -1.3071  -1.3034  -1.3014  -1.2982
    -1.2955  -1.2927  -1.2891  -1.2890  -1.2833  -1.2731  -1.1461  -1.1417
[...]
   -63.9881 -63.9881 -63.7973 -63.7973 -63.7954 -63.7953 -63.7931 -63.7930
   -63.7919 -63.7919 -63.7918 -63.7918 -63.7898 -63.7897 -63.7882 -63.7882
   -63.7862 -63.7861 -63.7859 -63.7858 -63.7835 -63.7835 -63.7819 -63.7817
   -63.7802 -63.7801 -63.7777 -63.7777 -63.7762 -63.7760 -63.7756 -63.7755
   -63.7735 -63.7733 -63.7678 -63.7677 -63.7655 -63.7654 -63.7642 -63.7642
   -63.7600 -63.7599 -63.7593 -63.7593 -63.7550 -63.7549 -63.7517 -63.7515
   -63.7509 -63.7507 -63.7470 -63.7467 -63.7437 -63.7435 -63.7429 -63.7427
   -63.7307 -63.7305 -63.7225 -63.7224 -52.5773 -52.5773 -52.5471 -52.5471
   -47.6228 -47.6222 -47.6194 -47.6186 -47.6056 -47.6052 -47.5995 -47.5986
   -47.5969 -47.5962 -47.5935 -47.5927 -47.5851 -47.5846 -47.5634 -47.5630
   -47.5591 -47.5584 -47.5522 -47.5516 -47.5404 -47.5400 -47.5161 -47.5146
   -47.5128 -47.5121 -47.5033 -47.5019 -47.4876 -47.4859 -47.4797 -47.4782
   -47.4721 -47.4711 -47.4632 -47.4623 -47.4578 -47.4567 -47.4511 -47.4491
   -47.4477 -47.4468 -47.4422 -47.4398 -47.4389 -47.4383 -47.4369 -47.4357
   -47.4334 -47.4329 -47.4298 -47.4273 -47.4242 -47.4234 -47.4205 -47.4195
   -47.4188 -47.4183 -47.4165 -47.4155 -47.4121 -47.4119 -47.4100 -47.4087
   -47.3962 -47.3942 -47.3835 -47.3820 -47.3805 -47.3770 -47.3746 -47.3731
   -47.3635 -47.3613 -47.3423 -47.3419 -47.3379 -47.3375 -47.3358 -47.3333
   -47.3310 -47.3290 -47.3283 -47.3271 -47.3264 -47.3257 -47.3242 -47.3241
   -47.3226 -47.3210 -47.3139 -47.3130 -47.3110 -47.3103 -47.3085 -47.3068
   -47.3061 -47.3053 -47.3034 -47.3020 -47.2931 -47.2927 -47.2838 -47.2818
   -47.2811 -47.2788 -47.2723 -47.2711 -47.2637 -47.2631 -47.2626 -47.2613
   -47.2500 -47.2486 -47.2465 -47.2427 -47.2258 -47.2242 -47.2157 -47.2149
   -47.1865 -47.1856 -47.1853 -47.1813 -47.1532 -47.1524 -47.1479 -47.1463
   -47.1305 -47.1302 -47.1300 -47.1294 -47.1274 -47.1269 -47.1244 -47.1240
   -47.1186 -47.1182 -47.1168 -47.1161 -47.1135 -47.1132 -47.1115 -47.1108
   -47.1105 -47.1099 -47.1089 -47.1082 -47.1075 -47.1072 -47.1042 -47.1035
   -47.1030 -47.1024 -47.1016 -47.1009 -47.0994 -47.0988 -47.0977 -47.0974
   -47.0965 -47.0959 -47.0956 -47.0950 -47.0941 -47.0938 -47.0911 -47.0904
   -47.0886 -47.0873 -47.0863 -47.0861 -47.0855 -47.0846 -47.0830 -47.0824
   -47.0819 -47.0812 -47.0807 -47.0803 -47.0783 -47.0769 -47.0744 -47.0735
   -47.0725 -47.0719 -47.0716 -47.0706 -47.0643 -47.0637 -47.0593 -47.0588
    -4.3674  -4.3672  -3.7566  -3.7556  -3.3887  -3.3868  -3.0582  -3.0539
    -2.8951  -2.8916  -2.6621  -2.6571  -2.5247  -2.4984  -2.4211  -2.4175
    -2.3527  -2.3391  -2.3239  -2.3171  -2.3091  -2.2990  -2.2622  -2.2549
    -2.2108  -2.2085  -2.1455  -2.1406  -2.1200  -2.1030  -2.0953  -2.0783
    -2.0696  -2.0372  -2.0273  -2.0152  -1.9693  -1.9634  -1.9147  -1.9080
    -1.8887  -1.8832  -1.8112  -1.8016  -1.7865  -1.7858  -1.7777  -1.7741
    -1.7710  -1.7644  -1.7497  -1.7371  -1.7306  -1.7242  -1.7169  -1.7020
    -1.6823  -1.6790  -1.6458  -1.6352  -1.6330  -1.6295  -1.6129  -1.6038
    -1.5889  -1.5846  -1.5779  -1.5731  -1.5408  -1.5333  -1.5183  -1.5109
    -1.5037  -1.5000  -1.4968  -1.4938  -1.4865  -1.4813  -1.4709  -1.4661
    -1.4633  -1.4568  -1.3707  -1.3681  -1.3614  -1.3534  -1.3499  -1.3404
    -1.3394  -1.3325  -1.2994  -1.2886  -1.2729  -1.2657  -1.2613  -1.2572
    -1.2377  -1.2268  -1.1935  -1.1918  -1.1821  -1.1543  -1.1348  -1.1213
    -1.1090  -1.1027  -1.0900  -1.0879  -1.0675  -1.0471  -1.0300  -1.0098
    -0.9986  -0.9891  -0.9310  -0.9165  -0.8810  -0.8733  -0.8603  -0.8383
    -0.7815  -0.7630  -0.7533  -0.7524  -0.7346  -0.7248  -0.7030  -0.6947
    -0.6578  -0.6518  -0.6260  -0.5984  -0.5842  -0.5696  -0.5615  -0.5579
    -0.5527  -0.5462  -0.5439  -0.5393  -0.5278  -0.5194  -0.5139  -0.5098
    -0.5009  -0.4989  -0.4943  -0.4907  -0.4824  -0.4810  -0.4775  -0.4717
    -0.4666  -0.4638  -0.4599  -0.4562  -0.4527  -0.4477  -0.4348  -0.4325
    -0.4226  -0.4155  -0.4117  -0.4065  -0.4024  -0.3847  -0.3587  -0.3498
    -0.3278  -0.3196  -0.3101  -0.2934  -0.2863  -0.2825  -0.2690  -0.2654
    -0.2552  -0.2453  -0.2409  -0.2300  -0.2223  -0.2202  -0.2091  -0.1993
    -0.1949  -0.1878  -0.1808  -0.1715  -0.1620  -0.1564  -0.1481  -0.1449
    -0.1287  -0.1274  -0.1236  -0.1197  -0.1111  -0.1026  -0.0902  -0.0860
    -0.0799  -0.0662  -0.0618  -0.0545  -0.0461  -0.0411  -0.0353  -0.0238
    -0.0113   0.0060   0.0463   0.0663   0.0764   0.0831   0.0901   0.0930
     0.1007   0.1161   0.1321   0.1457   0.1536   0.1635   0.1985   0.2040
     0.2457   0.2549   0.2934   0.3038   0.3281   0.3358   0.3536   0.3589
     0.4093   0.4193   0.4653   0.4994   0.5366   0.5405   0.5518   0.5734
     0.6266   0.6536   0.6613   0.6668   0.6790   0.6996   0.7366   0.7406
     0.7890   0.8009   0.8276   0.8295   0.8443   0.8556   0.8748   0.8899
     0.8941   0.8979   0.9433   0.9439   0.9512   0.9602   0.9676   0.9701
     0.9751   0.9790   0.9872   0.9941   1.0171   1.0348   1.0502   1.0694
     1.0960   1.0999   1.1142   1.1202   1.1526   1.1568   1.1806   1.2066
     1.2195   1.2306   1.2330   1.2369   1.2481   1.2507   1.2614   1.2663
     1.2701   1.2766   1.2815   1.2881   1.2948   1.3261   1.3368   1.3439
     1.3474   1.3520   1.3583   1.3705   1.3840   1.3968   1.3993   1.4224
     1.4672   1.4774   1.4833   1.4870   1.4911   1.4984   1.5032   1.5085
     1.5151   1.5475   1.5569   1.5689   1.5866   1.5972   1.6071   1.6473
     1.6545   1.6699   1.6980   1.7037   1.7185   1.7423   1.7537   1.7648
     1.7911   1.7964   1.8051   1.8181   1.8263   1.8390   1.8434   1.8523
     1.8544   1.8601   1.8785   1.8827   1.8886   1.8996   1.9068   1.9114
     1.9249   1.9340   1.9395   1.9458   1.9492   1.9524   1.9557   1.9594
     1.9642   1.9658   1.9711   1.9797   1.9972   2.0278   2.0332   2.0419
     2.0538   2.0578   2.0751   2.1007   2.1142   2.1181   2.1299   2.1366
     2.1492   2.1691   2.1843   2.1958   2.2029   2.2067   2.2151   2.2212
     2.2325   2.2370   2.2419   2.2490   2.2511   2.2569   2.2631   2.2697
     2.2748   2.2826   2.2851   2.2918   2.3316   2.3457   2.3517   2.3592
     2.3785   2.3933   2.4033   2.4132   2.4364   2.4467   2.4602   2.4764
     2.4888   2.4986   2.5152   2.5233   2.5297   2.5396   2.5452   2.5528
     2.5567   2.5620   2.5658   2.5678   2.5704   2.5734   2.5783   2.5860
     2.5872   2.5963   2.6110   2.6275   2.6613   2.6649   2.6771   2.6843
     2.6939   2.7252   2.7403   2.7428   2.7481   2.7530   2.7559   2.7785
     2.8215   2.8517   2.8673   2.8761   2.8826   2.8915   2.8959   2.8995
     2.9099   2.9119   2.9240   2.9264   2.9444   2.9520   2.9673   2.9707
     2.9754   2.9759   2.9884   2.9921   2.9955   3.0019   3.0093   3.0209
     3.0243   3.0298   3.0501   3.0632   3.0689   3.0797   3.0833   3.0959
     3.1027   3.1063   3.1104   3.1174   3.1311   3.1368   3.1494   3.1627
     3.1801   3.1865   3.1965   3.2052   3.2169   3.2276   3.2343   3.2407
     3.2578   3.2648   3.2786   3.2916   3.2951   3.3068   3.3113   3.3259
     3.3280   3.3325   3.3572   3.3769   3.3887   3.4054   3.4213   3.4271
     3.4356   3.4474   3.4569   3.4702   3.4727   3.4836   3.4981   3.5055
     3.5311   3.5562   3.5671   3.5746   3.5900   3.5943   3.6383   3.6446
     3.7016   3.7143   3.7255   3.7486   3.7797   3.7867   3.8455   3.8537
     4.0809   4.0918   4.1165   4.1301   4.1579   4.1637   4.4610   4.4758
     4.4815   4.4917   4.5334   4.5531   4.6929   4.7026   4.7592   4.7763
     4.9593   4.9609   5.0233   5.0485   5.0872   5.0947   5.2833   5.2900
     5.4051   5.4160   5.6871   5.6968   5.7267   5.7432   5.8065   5.8201
     5.8291   5.8794   5.9734   5.9822   6.0385   6.0428   6.2719   6.2781
     6.3325   6.3519   6.6883   6.7251   6.8358   6.8457   6.8526   6.8669
     6.9152   6.9225   7.1153   7.1254   7.3301   7.3596   7.3689   7.3995
     7.5177   7.5193   7.6811   7.6987   7.7106   7.7123   7.8380   7.8402
     8.0867   8.1660   8.3803   8.3994   8.6452   8.7053   8.7773   8.8442
     8.9863   9.0073   9.1212   9.1319   9.1938   9.2285   9.3719   9.3749
     9.4482   9.4668   9.5420   9.6110   9.6937   9.7043   9.7420   9.7527
     9.7920   9.8190   9.9037   9.9211  10.0304  10.0846  10.1059  10.1234
    10.1599  10.1688  10.2153  10.2220  10.2475  10.2569  10.3550  10.3654
    10.4263  10.4494  10.4957  10.5085  10.5679  10.5905  10.6105  10.6225
    10.7020  10.7182  10.7623  10.7684  10.8147  10.8564  10.8773  10.8870
    10.9128  10.9256  10.9745  10.9852  11.0278  11.0595  11.1012  11.1025
    11.2277  11.2421  11.2806  11.2895  11.3793  11.4151  11.4734  11.4901
    11.5511  11.5804  11.6136  11.6335  11.6698  11.6974  11.7270  11.7383
    11.7606  11.7774  11.8414  11.8651  11.9085  11.9206  12.0195  12.0638
    12.1099  12.1193  12.1853  12.2038  12.2184  12.2448  12.2738  12.2788
    12.4090  12.4544  12.5261  12.5615  12.5772  12.6118  12.6423  12.6572
    12.6896  12.7280  12.7570  12.7807  12.8873  12.9133  12.9268  12.9374
    12.9698  12.9940  13.0178  13.0342  13.0685  13.0920  13.1139  13.1371
    13.1748  13.1976  13.2058  13.2450  13.2767  13.2997  13.3090  13.3238
    13.3445  13.3703  13.3795  13.3948  13.4532  13.4838  13.5272  13.5418
    13.5525  13.5719  13.5818  13.5994  13.6181  13.6790

          k =-0.1000-0.1736 0.0000 (309877 PWs)   bands (ev):

  -108.9095-108.9095-100.4053-100.4053-100.3987-100.3987-100.3985-100.3985
  -100.3698-100.3698-100.3639-100.3639-100.3627-100.3627-100.3611-100.3611
  -100.3584-100.3584-100.3570-100.3570-100.3548-100.3548-100.3537-100.3537
  -100.3515-100.3515-100.3509-100.3509-100.3494-100.3494-100.3480-100.3480
  -100.3421-100.3421-100.3130-100.3130-100.3077-100.3077-100.3057-100.3057
  -100.0994-100.0994-100.0985-100.0985-100.0968-100.0968-100.0941-100.0941
  -100.0929-100.0929-100.0920-100.0920-100.0907-100.0907-100.0905-100.0905
  -100.0903-100.0903-100.0880-100.0880-100.0865-100.0865-100.0852-100.0852
  -100.0844-100.0844-100.0839-100.0839-100.0834-100.0834-100.0830-100.0830
  -100.0811-100.0811-100.0808-100.0808-100.0804-100.0804-100.0764-100.0764
  -100.0717-100.0717-100.0704-100.0704-100.0663-100.0663-100.0648-100.0648
  -100.0640-100.0640-100.0619-100.0619-100.0597-100.0597-100.0585-100.0585
  -100.0523-100.0523 -70.9116 -70.9116 -64.1050 -64.1050 -64.1047 -64.1047
   -64.0887 -64.0887 -64.0713 -64.0713 -64.0692 -64.0692 -64.0674 -64.0674
   -64.0659 -64.0659 -64.0625 -64.0625 -64.0591 -64.0591 -64.0565 -64.0565
   -64.0451 -64.0451 -64.0439 -64.0439 -64.0406 -64.0406 -64.0369 -64.0369
   -64.0310 -64.0310 -64.0161 -64.0161 -64.0062 -64.0062 -64.0035 -64.0035
   -63.9881 -63.9881 -63.7965 -63.7964 -63.7941 -63.7940 -63.7929 -63.7928
   -63.7924 -63.7924 -63.7915 -63.7915 -63.7904 -63.7903 -63.7886 -63.7885
   -63.7884 -63.7884 -63.7858 -63.7856 -63.7853 -63.7853 -63.7832 -63.7832
   -63.7807 -63.7807 -63.7779 -63.7778 -63.7761 -63.7761 -63.7727 -63.7726
   -63.7692 -63.7690 -63.7667 -63.7666 -63.7664 -63.7663 -63.7646 -63.7645
   -63.7616 -63.7615 -63.7577 -63.7575 -63.7563 -63.7560 -63.7529 -63.7528
   -63.7492 -63.7492 -63.7459 -63.7458 -63.7456 -63.7455 -63.7411 -63.7410
   -63.7354 -63.7351 -63.7200 -63.7199 -52.5773 -52.5773 -52.5471 -52.5471
   -47.6271 -47.6268 -47.6223 -47.6217 -47.6123 -47.6121 -47.5979 -47.5977
   -47.5956 -47.5951 -47.5872 -47.5869 -47.5817 -47.5815 -47.5748 -47.5738
   -47.5697 -47.5688 -47.5295 -47.5286 -47.5208 -47.5195 -47.5146 -47.5135
   -47.5057 -47.5040 -47.4968 -47.4959 -47.4924 -47.4906 -47.4828 -47.4799
   -47.4760 -47.4736 -47.4679 -47.4668 -47.4629 -47.4611 -47.4566 -47.4555
   -47.4517 -47.4500 -47.4493 -47.4482 -47.4452 -47.4431 -47.4404 -47.4385
   -47.4363 -47.4333 -47.4318 -47.4282 -47.4215 -47.4208 -47.4181 -47.4177
   -47.4145 -47.4141 -47.4136 -47.4129 -47.4092 -47.4086 -47.4058 -47.4050
   -47.4005 -47.3987 -47.3946 -47.3934 -47.3806 -47.3802 -47.3757 -47.3752
   -47.3615 -47.3605 -47.3367 -47.3362 -47.3339 -47.3327 -47.3323 -47.3315
   -47.3305 -47.3288 -47.3285 -47.3277 -47.3274 -47.3267 -47.3257 -47.3250
   -47.3232 -47.3228 -47.3157 -47.3148 -47.3135 -47.3133 -47.3113 -47.3079
   -47.3066 -47.3062 -47.3052 -47.3029 -47.2964 -47.2940 -47.2930 -47.2925
   -47.2890 -47.2866 -47.2819 -47.2810 -47.2426 -47.2393 -47.2341 -47.2337
   -47.2329 -47.2295 -47.2248 -47.2246 -47.2177 -47.2152 -47.2005 -47.2000
   -47.1970 -47.1967 -47.1963 -47.1915 -47.1748 -47.1728 -47.1707 -47.1698
   -47.1622 -47.1619 -47.1285 -47.1277 -47.1269 -47.1263 -47.1255 -47.1247
   -47.1199 -47.1191 -47.1178 -47.1171 -47.1160 -47.1150 -47.1130 -47.1125
   -47.1122 -47.1119 -47.1110 -47.1108 -47.1088 -47.1065 -47.1063 -47.1059
   -47.1043 -47.1040 -47.1038 -47.1028 -47.1005 -47.1002 -47.0946 -47.0942
   -47.0940 -47.0937 -47.0929 -47.0925 -47.0915 -47.0903 -47.0887 -47.0876
   -47.0858 -47.0855 -47.0849 -47.0846 -47.0823 -47.0822 -47.0809 -47.0806
   -47.0802 -47.0797 -47.0779 -47.0770 -47.0766 -47.0759 -47.0721 -47.0713
   -47.0687 -47.0684 -47.0655 -47.0652 -47.0620 -47.0615 -47.0576 -47.0574
    -4.5868  -4.5867  -3.3009  -3.2988  -3.2267  -3.2262  -3.2157  -3.2154
    -2.8645  -2.8607  -2.8226  -2.8217  -2.8115  -2.8112  -2.5763  -2.5622
    -2.5451  -2.5390  -2.4149  -2.3970  -2.3569  -2.3568  -2.3494  -2.3469
    -2.3352  -2.3241  -2.1553  -2.1426  -2.1326  -2.1279  -2.0797  -2.0744
    -2.0417  -2.0285  -2.0197  -1.9973  -1.9842  -1.9706  -1.8896  -1.8613
    -1.8317  -1.8298  -1.8243  -1.8208  -1.8150  -1.8112  -1.8032  -1.8008
    -1.7946  -1.7906  -1.7838  -1.7810  -1.7421  -1.7394  -1.7271  -1.7241
    -1.6270  -1.6236  -1.5967  -1.5954  -1.5798  -1.5787  -1.5684  -1.5649
    -1.5629  -1.5595  -1.5575  -1.5551  -1.5486  -1.5470  -1.4599  -1.4565
    -1.4440  -1.4398  -1.4295  -1.4248  -1.3719  -1.3687  -1.3651  -1.3608
    -1.3592  -1.3570  -1.3333  -1.3284  -1.3220  -1.3065  -1.2754  -1.2749
    -1.2595  -1.2313  -1.2296  -1.2163  -1.1577  -1.1453  -1.1369  -1.1279
    -1.1141  -1.1103  -1.0736  -1.0701  -1.0650  -1.0630  -1.0434  -1.0395
    -1.0374  -1.0329  -1.0289  -1.0232  -0.9637  -0.9330  -0.9135  -0.9027
    -0.8501  -0.8435  -0.8413  -0.8318  -0.7912  -0.7699  -0.7555  -0.7479
    -0.7398  -0.7314  -0.7163  -0.7099  -0.6968  -0.6958  -0.6906  -0.6791
    -0.6746  -0.6703  -0.6581  -0.6303  -0.6101  -0.5732  -0.5592  -0.5519
    -0.5333  -0.5298  -0.5154  -0.5047  -0.5030  -0.4989  -0.4954  -0.4864
    -0.4835  -0.4787  -0.4754  -0.4707  -0.4683  -0.4660  -0.4635  -0.4596
    -0.4559  -0.4541  -0.4524  -0.4512  -0.4488  -0.4463  -0.4436  -0.4420
    -0.4386  -0.4344  -0.4312  -0.4253  -0.4245  -0.4206  -0.4069  -0.4058
    -0.3946  -0.3652  -0.3434  -0.3377  -0.3033  -0.2954  -0.2463  -0.2452
    -0.2218  -0.2145  -0.2115  -0.2057  -0.1998  -0.1970  -0.1954  -0.1927
    -0.1918  -0.1887  -0.1854  -0.1841  -0.1811  -0.1770  -0.1700  -0.1604
    -0.1487  -0.1103  -0.1048  -0.0979  -0.0851  -0.0777  -0.0749  -0.0726
    -0.0618  -0.0602  -0.0542  -0.0501  -0.0253   0.0068   0.0148   0.0344
     0.1039   0.1122   0.1559   0.1613   0.1672   0.1682   0.1765   0.1809
     0.1834   0.1880   0.1930   0.2024   0.2620   0.2655   0.2732   0.2800
     0.2837   0.2875   0.2895   0.2939   0.3125   0.3176   0.3214   0.3229
     0.3295   0.3407   0.3490   0.3531   0.3611   0.3646   0.3677   0.3736
     0.4988   0.5613   0.6151   0.6230   0.6325   0.6415   0.6450   0.6642
     0.6791   0.6911   0.6980   0.7186   0.7305   0.7398   0.7498   0.7634
     0.7649   0.7860   0.9123   0.9144   0.9179   0.9214   0.9272   0.9413
     0.9460   0.9465   0.9701   0.9794   0.9852   0.9868   0.9886   0.9957
     1.0046   1.0375   1.0659   1.0724   1.0749   1.0781   1.0833   1.1272
     1.1374   1.1444   1.1547   1.1689   1.1742   1.1832   1.1848   1.1883
     1.1936   1.2345   1.2409   1.2483   1.2586   1.2613   1.2757   1.2931
     1.2940   1.2974   1.3029   1.3070   1.3090   1.3112   1.3204   1.3221
     1.3244   1.3285   1.3498   1.3581   1.3943   1.4426   1.4938   1.4974
     1.5148   1.5337   1.5504   1.5547   1.5635   1.5792   1.5830   1.5873
     1.6054   1.6292   1.6555   1.6654   1.6694   1.6806   1.7125   1.7185
     1.7287   1.7344   1.7405   1.7437   1.7647   1.7774   1.7854   1.7914
     1.7955   1.7981   1.8024   1.8067   1.8132   1.8213   1.8677   1.8719
     1.8794   1.8944   1.8967   1.9031   1.9080   1.9209   1.9237   1.9305
     1.9342   1.9354   1.9392   1.9399   1.9910   2.0235   2.0470   2.0625
     2.0690   2.0761   2.0862   2.0961   2.0986   2.1045   2.1074   2.1166
     2.1183   2.1243   2.1315   2.1352   2.1442   2.1459   2.1513   2.1566
     2.1617   2.1666   2.1694   2.1731   2.1766   2.1886   2.1902   2.1972
     2.2206   2.2237   2.2416   2.2578   2.2745   2.2873   2.3297   2.3318
     2.3344   2.3382   2.3439   2.3476   2.3549   2.3676   2.3760   2.3868
     2.4021   2.4152   2.4607   2.4684   2.4727   2.4837   2.4844   2.4887
     2.5007   2.5047   2.5320   2.5388   2.5614   2.5633   2.5710   2.5726
     2.5822   2.5946   2.6018   2.6063   2.6194   2.6266   2.6292   2.6320
     2.6353   2.6448   2.6592   2.6763   2.6804   2.6834   2.6865   2.7026
     2.7234   2.7359   2.7364   2.7431   2.7546   2.7632   2.8256   2.8444
     2.8617   2.8852   2.8897   2.9063   2.9280   2.9350   2.9406   2.9542
     2.9566   2.9619   2.9962   3.0115   3.0292   3.0329   3.0377   3.0397
     3.0441   3.0473   3.0587   3.0651   3.0846   3.0871   3.0912   3.0928
     3.0960   3.1010   3.1062   3.1075   3.1108   3.1119   3.1180   3.1198
     3.1251   3.1306   3.1961   3.2178   3.2597   3.2613   3.2729   3.2797
     3.2950   3.2967   3.3343   3.3442   3.3613   3.3636   3.3874   3.3887
     3.4152   3.4394   3.4514   3.4580   3.4622   3.4669   3.4700   3.4764
     3.4991   3.5189   3.5224   3.5246   3.5329   3.5392   3.5456   3.5478
     3.6472   3.6519   3.6571   3.6618   3.8091   3.8298   3.8655   3.8770
     3.8803   3.8869   3.9686   3.9792   3.9917   4.0318   4.0467   4.0572
     4.0621   4.1129   4.7416   4.7495   4.7791   4.7890   4.9409   4.9509
     4.9677   4.9753   4.9799   4.9865   5.0051   5.0059   5.0471   5.0478
     5.2462   5.2502   5.3308   5.3346   5.3515   5.3611   5.3770   5.3863
     5.4525   5.5018   5.5360   5.5412   5.6170   5.6334   5.7889   5.7949
     5.8189   5.8222   6.0460   6.0509   6.0780   6.0832   6.3103   6.3145
     6.3412   6.3455   6.7433   6.7525   6.8262   6.8358   6.8419   6.8446
     7.0667   7.1176   7.1432   7.1530   7.1976   7.2078   7.2294   7.2391
     7.2553   7.2622   7.5507   7.5896   7.6434   7.6932   7.7791   7.7810
     7.7989   7.7999   7.8659   7.8702   8.1780   8.2165   8.3781   8.4244
     8.6204   8.7212   8.8711   8.8782   9.0134   9.0191   9.0827   9.0893
     9.3587   9.4132   9.4490   9.4610   9.4950   9.5056   9.5628   9.5698
     9.6405   9.7038   9.7817   9.7844   9.9211  10.0052  10.0449  10.0869
    10.2115  10.2167  10.2682  10.2763  10.3864  10.3966  10.4567  10.4799
    10.4859  10.4964  10.5140  10.5402  10.6094  10.6115  10.7164  10.7339
    10.7567  10.7605  10.8943  10.9034  11.0024  11.0153  11.0970  11.1079
    11.1490  11.1534  11.1975  11.2054  11.2406  11.2481  11.2657  11.2734
    11.2796  11.2849  11.3609  11.3683  11.4442  11.4648  11.5009  11.5022
    11.5668  11.5785  11.6238  11.6317  11.7121  11.7393  11.8050  11.8183
    11.8648  11.8694  11.8979  11.9117  11.9809  11.9883  12.0704  12.1178
    12.1489  12.1644  12.1903  12.2332  12.3015  12.3081  12.3191  12.3291
    12.3640  12.3834  12.4322  12.4487  12.5041  12.5294  12.5367  12.5633
    12.5754  12.5839  12.6202  12.6300  12.6474  12.6816  12.7677  12.7819
    12.7875  12.7956  12.8036  12.8117  12.8150  12.8370  12.8487  12.8773
    12.9292  12.9550  12.9659  13.0133  13.1267  13.1411  13.1781  13.1785
    13.2156  13.2367  13.2868  13.3120  13.4285  13.4381  13.4621  13.4731
    13.5745  13.6304  13.6811  13.6883  13.7287  13.7805

     the Fermi energy is     5.1375 ev
     (compare with:     5.1412 eV, computed in scf)

     Writing all to output data dir ./tmp/El_Hg_NSCF.save/ :
     XML data file, pseudopotentials