 *******************************************************************************
 **                                                                           **
 **                              MOPAC v23.2                                  **
 **                                                                           **
 *******************************************************************************
 **          Digital Object Identifier (DOI): 10.5281/zenodo.6511958          **
 **    Visit the DOI location for information on how to cite this program.    **
 *******************************************************************************

                              PM7 CALCULATION RESULTS

 *******************************************************************************
 *  CALCULATION DONE: (MAX THREADS = 12)             Sat Nov 22 00:04:46 2025  *
 *  PM7        - The PM7 Hamiltonian to be used
 *  SINGLET    - SPIN STATE DEFINED AS A SINGLET
 *  RHF        - RESTRICTED HARTREE-FOCK CALCULATION
 *
 *
 *
 *                 CHARGE ON SYSTEM = 0
 *
 *
 *
 *  T=         - A TIME OF 172800.0 SECONDS REQUESTED
 *  DUMP=N     - RESTART FILE WRITTEN EVERY 7200.0 SECONDS REQUESTED
 *  AUX        - OUTPUT AUXILIARY INFORMATION
 *  LARGE      - EXPANDED OUTPUT TO BE PRINTED
 *******************************************************************************
 AUX LARGE CHARGE=0 SINGLET  PM7  RHF
 C44H86NO8P

   ATOM   CHEMICAL          X               Y               Z
  NUMBER   SYMBOL      (ANGSTROMS)     (ANGSTROMS)     (ANGSTROMS)
 
     1       P          6.30735000  *  -7.24929500  *  -0.50902500  *
     2       O          5.19411900  *  -6.74318000  *  -1.58072900  *
     3       O          8.81640000  *  -3.02638300  *  -0.72879700  *
     4       O         10.23779600  *  -5.14821700  *   0.57415900  *
     5       O          7.66818100  *  -6.94914400  *  -1.33900800  *
     6       O          6.66053000  *  -2.20422000  *  -0.73968700  *
     7       O          6.27275300  *  -6.30203900  *   0.66104500  *
     8       O          6.13477100  *  -8.72678700  *  -0.33193000  *
     9       O         12.16859000  *  -5.23141200  *   1.69863800  *
    10       N          2.86600000  *  -4.75000000  *   0.00000000  *
    11       C         14.07971500  *   4.41171000  *   0.30784500  *
    12       C         15.41727400  *   5.14900400  *   0.31834000  *
    13       C         14.23338300  *   2.94425500  *   0.70934700  *
    14       C         15.21769800  *   6.63148300  *   0.00095700  *
    15       C         12.86576500  *   2.26422400  *   0.75548000  *
    16       C         16.53527300  *   7.40240100  *   0.06482000  *
    17       C         12.96090900  *   0.80592100  *   1.20811000  *
    18       C         16.30659500  *   8.89664300  *  -0.16576700  *
    19       C         11.58126100  *   0.18729200  *   1.44926000  *
    20       C         17.61344300  *   9.68254000  *  -0.06272500  *
    21       C         17.37090900  *  11.18270100  *  -0.23309100  *
    22       C         10.77758300  *  -0.01479900  *   0.16331600  *
    23       C          3.73200000  *  -5.25000000  *   0.00000000  *
    24       C         18.67405200  *  11.97293400  *  -0.11116900  *
    25       C          9.33948600  *  -0.43025900  *   0.47322400  *
    26       C          2.00000000  *  -4.25000000  *   0.00000000  *
    27       C          2.36600000  *  -5.61600000  *   0.00000000  *
    28       C          3.36600000  *  -3.88400000  *   0.00000000  *
    29       C         18.42743800  *  13.47452700  *  -0.25047100  *
    30       C          8.54674000  *  -0.69575600  *  -0.80649800  *
    31       C          4.66869100  *  -5.43550700  *  -1.44344700  *
    32       C         14.50929000  *  -3.51254100  *  -0.31651800  *
    33       C         16.03244100  *  -3.46440200  *  -0.19131800  *
    34       C         14.10153000  *  -4.36022400  *  -1.52407500  *
    35       C         16.49935000  *  -2.50669800  *   0.90766900  *
    36       C         20.26756800  *  -7.24756600  *  -0.24127600  *
    37       C         21.53342100  *  -8.09651400  *  -0.12395000  *
    38       C         19.72072000  *  14.26371600  *  -0.12618100  *
    39       C         12.61510000  *  -4.72747900  *  -1.54409200  *
    40       C         20.58100800  *  -5.75074800  *  -0.31987300  *
    41       C         21.18242700  *  -9.58323900  *  -0.03073300  *
    42       C          7.87578100  *  -2.04141600  *  -0.75268300  *
    43       C         17.96513700  *  -2.72220200  *   1.30632200  *
    44       C          9.38394300  *  -5.38600000  *  -0.57872200  *
    45       C         19.29054300  *  -4.94848600  *  -0.50108600  *
    46       C         22.43488600  * -10.45679900  *   0.04053900  *
    47       C         12.26709800  *  -5.87624900  *  -0.59543900  *
    48       C          8.26759600  *  -4.33941100  *  -0.52918700  *
    49       C          8.83371800  *  -6.81988400  *  -0.53378600  *
    50       C         18.94581300  *  -2.51683400  *   0.18441000  *
    51       C         19.53355800  *  -3.46675000  *  -0.56575100  *
    52       C         22.06818800  * -11.93773000  *   0.13950500  *
    53       C         11.55872200  *  -5.40657100  *   0.64705200  *
    54       C         23.30634400  * -12.81827100  *   0.18820000  *
    55       H         13.63271900  *   4.47436900  *  -0.69200500  *
    56       H         13.38716200  *   4.90701200  *   0.99997100  *
    57       H         16.09550100  *   4.69878400  *  -0.41587800  *
    58       H         15.88746800  *   5.04373600  *   1.30379500  *
    59       H         14.71030700  *   2.87989300  *   1.69435700  *
    60       H         14.88485400  *   2.42605300  *  -0.00463100  *
    61       H         14.77478000  *   6.74044400  *  -0.99665300  *
    62       H         14.50755400  *   7.06317500  *   0.71708800  *
    63       H         12.40981400  *   2.32269200  *  -0.23898000  *
    64       H         12.21101900  *   2.81451000  *   1.44249500  *
    65       H         17.00142700  *   7.25175700  *   1.04585300  *
    66       H         17.22988200  *   7.01071900  *  -0.68823500  *
    67       H         13.51404800  *   0.21687500  *   0.46741800  *
    68       H         13.52732000  *   0.75555500  *   2.14648600  *
    69       H         15.85851600  *   9.05260800  *  -1.15458400  *
    70       H         15.59261300  *   9.27632800  *   0.57557100  *
    71       H         11.01905900  *   0.81855200  *   2.14801700  *
    72       H         11.71281400  *  -0.78526000  *   1.94033700  *
    73       H         18.31498300  *   9.33207000  *  -0.82909700  *
    74       H         18.07896400  *   9.49505000  *   0.91277200  *
    75       H         10.75097500  *   0.90367100  *  -0.43178100  *
    76       H         11.26646700  *  -0.78356200  *  -0.44776000  *
    77       H         16.66058100  *  11.52703800  *   0.52846900  *
    78       H         16.91364100  *  11.37424000  *  -1.21151000  *
    79       H          3.96420100  *  -6.38132900  *   0.32690100  *
    80       H          4.49614100  *  -5.08795000  *   0.88481700  *
    81       H         19.37868700  *  11.64095300  *  -0.88360000  *
    82       H         19.13909900  *  11.76735200  *   0.86055400  *
    83       H          8.84739600  *   0.37575000  *   1.03238100  *
    84       H          9.34511500  *  -1.30419000  *   1.13582500  *
    85       H          1.70182400  *  -3.08684200  *   0.06322300  *
    86       H          1.25770500  *  -4.33566000  *   0.91143800  *
    87       H          1.33257600  *  -4.25613600  *  -0.96710600  *
    88       H          1.20725400  *  -5.90542400  *  -0.15068000  *
    89       H          2.48629100  *  -6.41752400  *  -0.85595300  *
    90       H          2.29894900  *  -6.23170300  *   0.99777600  *
    91       H          3.29001300  *  -3.15634300  *  -0.92458500  *
    92       H          4.51431800  *  -3.56458600  *  -0.02680200  *
    93       H          3.32866300  *  -3.19869100  *   0.95686800  *
    94       H         17.72567600  *  13.81064500  *   0.52188800  *
    95       H         17.96651400  *  13.68764600  *  -1.22182200  *
    96       H          7.76872000  *   0.06677200  *  -0.92791800  *
    97       H          9.16690600  *  -0.66093300  *  -1.70975200  *
    98       H          4.01300100  *  -5.26512500  *  -2.30662000  *
    99       H          5.47206400  *  -4.69827900  *  -1.48068700  *
   100       H         14.10245400  *  -2.50029100  *  -0.42573900  *
   101       H         14.09680100  *  -3.92978500  *   0.60637100  *
   102       H         16.38613300  *  -4.47817300  *   0.02861500  *
   103       H         16.47186100  *  -3.16500900  *  -1.15010700  *
   104       H         14.70432100  *  -5.27572200  *  -1.57214400  *
   105       H         14.33238600  *  -3.79252400  *  -2.43457800  *
   106       H         16.34830700  *  -1.47144100  *   0.57710900  *
   107       H         15.88121400  *  -2.64468600  *   1.80338700  *
   108       H         19.70902900  *  -7.55146300  *  -1.13538100  *
   109       H         19.61823400  *  -7.43808100  *   0.62234700  *
   110       H         22.10160500  *  -7.79475100  *   0.76407700  *
   111       H         22.17490200  *  -7.92178400  *  -0.99604900  *
   112       H         12.00550500  *  -3.83703700  *  -1.34961100  *
   113       H         12.37621600  *  -5.05649200  *  -2.56333900  *
   114       H         20.43178500  *  13.97705900  *  -0.90742400  *
   115       H         20.19099800  *  14.09511000  *   0.84813400  *
   116       H         19.52183000  *  15.33503400  *  -0.22678900  *
   117       H         21.09584000  *  -5.43316600  *   0.59520700  *
   118       H         21.26101400  *  -5.55825000  *  -1.15887400  *
   119       H         20.58418500  *  -9.87416100  *  -0.90300800  *
   120       H         20.56215600  *  -9.75724600  *   0.85718400  *
   121       H         18.21837200  *  -2.01295200  *   2.10484400  *
   122       H         18.08029400  *  -3.71391000  *   1.75689100  *
   123       H          9.94114900  *  -5.22192000  *  -1.50593300  *
   124       H         18.80688100  *  -5.24982800  *  -1.43864700  *
   125       H         18.59742000  *  -5.20974700  *   0.30328800  *
   126       H         23.05071800  * -10.28917700  *  -0.85138700  *
   127       H         23.03774400  * -10.16780200  *   0.90985700  *
   128       H         13.16558600  *  -6.42030200  *  -0.27802300  *
   129       H         11.65638500  *  -6.62960500  *  -1.09923400  *
   130       H          7.77422700  *  -4.34640200  *   0.44713000  *
   131       H          7.55755800  *  -4.52202300  *  -1.33590000  *
   132       H          8.65160400  *  -7.13658500  *   0.50158700  *
   133       H          9.58195000  *  -7.51862100  *  -0.91990100  *
   134       H         19.20300600  *  -1.47844300  *  -0.02040700  *
   135       H         20.22494300  *  -3.14047400  *  -1.34145700  *
   136       H         21.46663000  * -12.11277100  *   1.03913500  *
   137       H         21.45478200  * -12.22868300  *  -0.72129000  *
   138       H         23.01889700  * -13.87178300  *   0.26261300  *
   139       H         23.91079600  * -12.69521300  *  -0.71622400  *
   140       H         23.92804100  * -12.57424000  *   1.05555200  *
 


          CARTESIAN COORDINATES 

    NO.       ATOM           X           Y           Z

     1         P          6.3074     -7.2493     -0.5090
     2         O          5.1941     -6.7432     -1.5807
     3         O          8.8164     -3.0264     -0.7288
     4         O         10.2378     -5.1482      0.5742
     5         O          7.6682     -6.9491     -1.3390
     6         O          6.6605     -2.2042     -0.7397
     7         O          6.2728     -6.3020      0.6610
     8         O          6.1348     -8.7268     -0.3319
     9         O         12.1686     -5.2314      1.6986
    10         N          2.8660     -4.7500      0.0000
    11         C         14.0797      4.4117      0.3078
    12         C         15.4173      5.1490      0.3183
    13         C         14.2334      2.9443      0.7093
    14         C         15.2177      6.6315      0.0010
    15         C         12.8658      2.2642      0.7555
    16         C         16.5353      7.4024      0.0648
    17         C         12.9609      0.8059      1.2081
    18         C         16.3066      8.8966     -0.1658
    19         C         11.5813      0.1873      1.4493
    20         C         17.6134      9.6825     -0.0627
    21         C         17.3709     11.1827     -0.2331
    22         C         10.7776     -0.0148      0.1633
    23         C          3.7320     -5.2500      0.0000
    24         C         18.6741     11.9729     -0.1112
    25         C          9.3395     -0.4303      0.4732
    26         C          2.0000     -4.2500      0.0000
    27         C          2.3660     -5.6160      0.0000
    28         C          3.3660     -3.8840      0.0000
    29         C         18.4274     13.4745     -0.2505
    30         C          8.5467     -0.6958     -0.8065
    31         C          4.6687     -5.4355     -1.4434
    32         C         14.5093     -3.5125     -0.3165
    33         C         16.0324     -3.4644     -0.1913
    34         C         14.1015     -4.3602     -1.5241
    35         C         16.4993     -2.5067      0.9077
    36         C         20.2676     -7.2476     -0.2413
    37         C         21.5334     -8.0965     -0.1240
    38         C         19.7207     14.2637     -0.1262
    39         C         12.6151     -4.7275     -1.5441
    40         C         20.5810     -5.7507     -0.3199
    41         C         21.1824     -9.5832     -0.0307
    42         C          7.8758     -2.0414     -0.7527
    43         C         17.9651     -2.7222      1.3063
    44         C          9.3839     -5.3860     -0.5787
    45         C         19.2905     -4.9485     -0.5011
    46         C         22.4349    -10.4568      0.0405
    47         C         12.2671     -5.8762     -0.5954
    48         C          8.2676     -4.3394     -0.5292
    49         C          8.8337     -6.8199     -0.5338
    50         C         18.9458     -2.5168      0.1844
    51         C         19.5336     -3.4668     -0.5658
    52         C         22.0682    -11.9377      0.1395
    53         C         11.5587     -5.4066      0.6471
    54         C         23.3063    -12.8183      0.1882
    55         H         13.6327      4.4744     -0.6920
    56         H         13.3872      4.9070      1.0000
    57         H         16.0955      4.6988     -0.4159
    58         H         15.8875      5.0437      1.3038
    59         H         14.7103      2.8799      1.6944
    60         H         14.8849      2.4261     -0.0046
    61         H         14.7748      6.7404     -0.9967
    62         H         14.5076      7.0632      0.7171
    63         H         12.4098      2.3227     -0.2390
    64         H         12.2110      2.8145      1.4425
    65         H         17.0014      7.2518      1.0459
    66         H         17.2299      7.0107     -0.6882
    67         H         13.5140      0.2169      0.4674
    68         H         13.5273      0.7556      2.1465
    69         H         15.8585      9.0526     -1.1546
    70         H         15.5926      9.2763      0.5756
    71         H         11.0191      0.8186      2.1480
    72         H         11.7128     -0.7853      1.9403
    73         H         18.3150      9.3321     -0.8291
    74         H         18.0790      9.4950      0.9128
    75         H         10.7510      0.9037     -0.4318
    76         H         11.2665     -0.7836     -0.4478
    77         H         16.6606     11.5270      0.5285
    78         H         16.9136     11.3742     -1.2115
    79         H          3.9642     -6.3813      0.3269
    80         H          4.4961     -5.0880      0.8848
    81         H         19.3787     11.6410     -0.8836
    82         H         19.1391     11.7674      0.8606
    83         H          8.8474      0.3758      1.0324
    84         H          9.3451     -1.3042      1.1358
    85         H          1.7018     -3.0868      0.0632
    86         H          1.2577     -4.3357      0.9114
    87         H          1.3326     -4.2561     -0.9671
    88         H          1.2073     -5.9054     -0.1507
    89         H          2.4863     -6.4175     -0.8560
    90         H          2.2989     -6.2317      0.9978
    91         H          3.2900     -3.1563     -0.9246
    92         H          4.5143     -3.5646     -0.0268
    93         H          3.3287     -3.1987      0.9569
    94         H         17.7257     13.8106      0.5219
    95         H         17.9665     13.6876     -1.2218
    96         H          7.7687      0.0668     -0.9279
    97         H          9.1669     -0.6609     -1.7098
    98         H          4.0130     -5.2651     -2.3066
    99         H          5.4721     -4.6983     -1.4807
   100         H         14.1025     -2.5003     -0.4257
   101         H         14.0968     -3.9298      0.6064
   102         H         16.3861     -4.4782      0.0286
   103         H         16.4719     -3.1650     -1.1501
   104         H         14.7043     -5.2757     -1.5721
   105         H         14.3324     -3.7925     -2.4346
   106         H         16.3483     -1.4714      0.5771
   107         H         15.8812     -2.6447      1.8034
   108         H         19.7090     -7.5515     -1.1354
   109         H         19.6182     -7.4381      0.6223
   110         H         22.1016     -7.7948      0.7641
   111         H         22.1749     -7.9218     -0.9960
   112         H         12.0055     -3.8370     -1.3496
   113         H         12.3762     -5.0565     -2.5633
   114         H         20.4318     13.9771     -0.9074
   115         H         20.1910     14.0951      0.8481
   116         H         19.5218     15.3350     -0.2268
   117         H         21.0958     -5.4332      0.5952
   118         H         21.2610     -5.5583     -1.1589
   119         H         20.5842     -9.8742     -0.9030
   120         H         20.5622     -9.7572      0.8572
   121         H         18.2184     -2.0130      2.1048
   122         H         18.0803     -3.7139      1.7569
   123         H          9.9411     -5.2219     -1.5059
   124         H         18.8069     -5.2498     -1.4386
   125         H         18.5974     -5.2097      0.3033
   126         H         23.0507    -10.2892     -0.8514
   127         H         23.0377    -10.1678      0.9099
   128         H         13.1656     -6.4203     -0.2780
   129         H         11.6564     -6.6296     -1.0992
   130         H          7.7742     -4.3464      0.4471
   131         H          7.5576     -4.5220     -1.3359
   132         H          8.6516     -7.1366      0.5016
   133         H          9.5819     -7.5186     -0.9199
   134         H         19.2030     -1.4784     -0.0204
   135         H         20.2249     -3.1405     -1.3415
   136         H         21.4666    -12.1128      1.0391
   137         H         21.4548    -12.2287     -0.7213
   138         H         23.0189    -13.8718      0.2626
   139         H         23.9108    -12.6952     -0.7162
   140         H         23.9280    -12.5742      1.0556

 General Reference for PM7:
 "Optimization of Parameters for Semiempirical Methods VI: More Modifications to the 
 NDDO Approximations and Re-optimization of Parameters", J. J. P. Stewart, J. Mol. Mod., 1:32, 19 (2013)
 https://link.springer.com/article/10.1007/s00894-012-1667-x

           Empirical Formula: C44 H86 N O8 P  =   140 atoms



      MOLECULAR POINT GROUP   :   C1  


 SINGLET STATE CALCULATION


      RHF CALCULATION, NO. OF DOUBLY OCCUPIED LEVELS = 160


          Geometry optimization using L-BFGS
 CYCLE:     1 TIME:   1.324 TIME LEFT:  2.00D  GRAD.:  3913.476 HEAT:  1169.066
 CYCLE:     2 TIME:   0.179 TIME LEFT:  2.00D  GRAD.:  3564.275 HEAT:  1022.842
 CYCLE:     3 TIME:   0.204 TIME LEFT:  2.00D  GRAD.:  1296.758 HEAT:  108.5728
 CYCLE:     4 TIME:   0.207 TIME LEFT:  2.00D  GRAD.:  3564.556 HEAT:  1022.828
 CYCLE:     5 TIME:   0.203 TIME LEFT:  2.00D  GRAD.:  1296.583 HEAT:  108.5149
 CYCLE:     6 TIME:   0.203 TIME LEFT:  2.00D  GRAD.:   662.269 HEAT: -124.4220
 CYCLE:     7 TIME:   0.205 TIME LEFT:  2.00D  GRAD.:   289.804 HEAT: -261.5530
 CYCLE:     8 TIME:   0.205 TIME LEFT:  2.00D  GRAD.:   146.064 HEAT: -323.6884
 CYCLE:     9 TIME:   0.195 TIME LEFT:  2.00D  GRAD.:   205.712 HEAT: -358.0657
 CYCLE:    10 TIME:   0.195 TIME LEFT:  2.00D  GRAD.:   272.829 HEAT: -389.7503
 CYCLE:    11 TIME:   0.187 TIME LEFT:  2.00D  GRAD.:   170.647 HEAT: -409.6234
 CYCLE:    12 TIME:   0.186 TIME LEFT:  2.00D  GRAD.:   191.536 HEAT: -433.4862
 CYCLE:    13 TIME:   0.186 TIME LEFT:  2.00D  GRAD.:   219.156 HEAT: -452.4136
 CYCLE:    14 TIME:   0.175 TIME LEFT:  2.00D  GRAD.:   220.730 HEAT: -461.0850
 CYCLE:    15 TIME:   0.177 TIME LEFT:  2.00D  GRAD.:    91.168 HEAT: -477.0852
 CYCLE:    16 TIME:   0.175 TIME LEFT:  2.00D  GRAD.:   120.145 HEAT: -483.3866
 CYCLE:    17 TIME:   0.183 TIME LEFT:  2.00D  GRAD.:   158.269 HEAT: -490.7014
 CYCLE:    18 TIME:   0.185 TIME LEFT:  2.00D  GRAD.:   151.406 HEAT: -499.8565
 CYCLE:    19 TIME:   0.182 TIME LEFT:  2.00D  GRAD.:   115.741 HEAT: -506.2755
 CYCLE:    20 TIME:   0.175 TIME LEFT:  2.00D  GRAD.:    85.865 HEAT: -511.5119
 CYCLE:    21 TIME:   0.175 TIME LEFT:  2.00D  GRAD.:    95.843 HEAT: -515.8187
 CYCLE:    22 TIME:   0.188 TIME LEFT:  2.00D  GRAD.:    99.148 HEAT: -522.9729
 CYCLE:    23 TIME:   0.184 TIME LEFT:  2.00D  GRAD.:    87.433 HEAT: -531.1659
 CYCLE:    24 TIME:   0.187 TIME LEFT:  2.00D  GRAD.:   402.018 HEAT: -528.5815
 CYCLE:    25 TIME:   0.174 TIME LEFT:  2.00D  GRAD.:    77.424 HEAT: -536.0380
 CYCLE:    26 TIME:   0.165 TIME LEFT:  2.00D  GRAD.:    54.538 HEAT: -537.1432
 CYCLE:    27 TIME:   0.174 TIME LEFT:  2.00D  GRAD.:    48.084 HEAT: -538.7900
 CYCLE:    28 TIME:   0.164 TIME LEFT:  2.00D  GRAD.:    84.227 HEAT: -539.5998
 CYCLE:    29 TIME:   0.175 TIME LEFT:  2.00D  GRAD.:    40.553 HEAT: -541.2955
 CYCLE:    30 TIME:   0.175 TIME LEFT:  2.00D  GRAD.:    32.314 HEAT: -541.9928
 CYCLE:    31 TIME:   0.176 TIME LEFT:  2.00D  GRAD.:    31.145 HEAT: -543.0050
 CYCLE:    32 TIME:   0.177 TIME LEFT:  2.00D  GRAD.:    60.846 HEAT: -544.0006
 CYCLE:    33 TIME:   0.165 TIME LEFT:  2.00D  GRAD.:    33.561 HEAT: -544.9553
 CYCLE:    34 TIME:   0.165 TIME LEFT:  2.00D  GRAD.:    31.490 HEAT: -545.6869
 CYCLE:    35 TIME:   0.175 TIME LEFT:  2.00D  GRAD.:    41.315 HEAT: -546.6096
 CYCLE:    36 TIME:   0.174 TIME LEFT:  2.00D  GRAD.:    46.007 HEAT: -547.4629
 CYCLE:    37 TIME:   0.165 TIME LEFT:  2.00D  GRAD.:    29.285 HEAT: -548.2941
 CYCLE:    38 TIME:   0.177 TIME LEFT:  2.00D  GRAD.:    26.498 HEAT: -548.9546
 CYCLE:    39 TIME:   0.176 TIME LEFT:  2.00D  GRAD.:    29.171 HEAT: -549.2996
 CYCLE:    40 TIME:   0.174 TIME LEFT:  2.00D  GRAD.:    17.248 HEAT: -549.6487
 CYCLE:    41 TIME:   0.174 TIME LEFT:  2.00D  GRAD.:    12.717 HEAT: -549.9375
 CYCLE:    42 TIME:   0.180 TIME LEFT:  2.00D  GRAD.:    12.052 HEAT: -550.1292
 CYCLE:    43 TIME:   0.181 TIME LEFT:  2.00D  GRAD.:    73.757 HEAT: -550.0322
 CYCLE:    44 TIME:   0.164 TIME LEFT:  2.00D  GRAD.:     9.206 HEAT: -550.3100
 CYCLE:    45 TIME:   0.164 TIME LEFT:  2.00D  GRAD.:     8.424 HEAT: -550.3389
 CYCLE:    46 TIME:   0.163 TIME LEFT:  2.00D  GRAD.:    10.197 HEAT: -550.4792
 CYCLE:    47 TIME:   0.172 TIME LEFT:  2.00D  GRAD.:    34.906 HEAT: -550.4866
 CYCLE:    48 TIME:   0.163 TIME LEFT:  2.00D  GRAD.:    11.705 HEAT: -550.6780
 CYCLE:    49 TIME:   0.162 TIME LEFT:  2.00D  GRAD.:     8.347 HEAT: -550.7443
 CYCLE:    50 TIME:   0.171 TIME LEFT:  2.00D  GRAD.:    11.760 HEAT: -550.8579
 CYCLE:    51 TIME:   0.163 TIME LEFT:  2.00D  GRAD.:    16.309 HEAT: -550.9469
 CYCLE:    52 TIME:   0.161 TIME LEFT:  2.00D  GRAD.:    11.748 HEAT: -551.0467
 CYCLE:    53 TIME:   0.163 TIME LEFT:  2.00D  GRAD.:     8.271 HEAT: -551.1158
 CYCLE:    54 TIME:   0.170 TIME LEFT:  2.00D  GRAD.:    12.802 HEAT: -551.2211
 CYCLE:    55 TIME:   0.161 TIME LEFT:  2.00D  GRAD.:    16.481 HEAT: -551.3111
 CYCLE:    56 TIME:   0.171 TIME LEFT:  2.00D  GRAD.:    15.140 HEAT: -551.4643
 CYCLE:    57 TIME:   0.172 TIME LEFT:  2.00D  GRAD.:    16.674 HEAT: -551.5985
 CYCLE:    58 TIME:   0.170 TIME LEFT:  2.00D  GRAD.:    13.654 HEAT: -551.7383
 CYCLE:    59 TIME:   0.170 TIME LEFT:  2.00D  GRAD.:    14.004 HEAT: -551.9213
 CYCLE:    60 TIME:   0.170 TIME LEFT:  2.00D  GRAD.:    11.466 HEAT: -552.0855
 CYCLE:    61 TIME:   0.173 TIME LEFT:  2.00D  GRAD.:    14.751 HEAT: -552.2255
 CYCLE:    62 TIME:   0.170 TIME LEFT:  2.00D  GRAD.:    19.437 HEAT: -552.3400
 CYCLE:    63 TIME:   0.164 TIME LEFT:  2.00D  GRAD.:    11.261 HEAT: -552.4360
 CYCLE:    64 TIME:   0.163 TIME LEFT:  2.00D  GRAD.:     7.727 HEAT: -552.5292
 CYCLE:    65 TIME:   0.163 TIME LEFT:  2.00D  GRAD.:     8.724 HEAT: -552.5958
 CYCLE:    66 TIME:   0.171 TIME LEFT:  2.00D  GRAD.:    10.684 HEAT: -552.7209
 CYCLE:    67 TIME:   0.174 TIME LEFT:  2.00D  GRAD.:    42.137 HEAT: -552.5986
 CYCLE:    68 TIME:   0.162 TIME LEFT:  2.00D  GRAD.:     8.034 HEAT: -552.8697
 CYCLE:    69 TIME:   0.163 TIME LEFT:  2.00D  GRAD.:     7.283 HEAT: -552.9090
 CYCLE:    70 TIME:   0.173 TIME LEFT:  2.00D  GRAD.:    15.864 HEAT: -552.9997
 CYCLE:    71 TIME:   0.173 TIME LEFT:  2.00D  GRAD.:    12.677 HEAT: -553.0665
 CYCLE:    72 TIME:   0.162 TIME LEFT:  2.00D  GRAD.:     6.985 HEAT: -553.1202
 CYCLE:    73 TIME:   0.164 TIME LEFT:  2.00D  GRAD.:     7.084 HEAT: -553.1685
 CYCLE:    74 TIME:   0.173 TIME LEFT:  2.00D  GRAD.:     8.873 HEAT: -553.2213
 CYCLE:    75 TIME:   0.172 TIME LEFT:  2.00D  GRAD.:    25.237 HEAT: -553.2039
 CYCLE:    76 TIME:   0.162 TIME LEFT:  2.00D  GRAD.:     6.304 HEAT: -553.2975
 CYCLE:    77 TIME:   0.163 TIME LEFT:  2.00D  GRAD.:     4.512 HEAT: -553.3160
 CYCLE:    78 TIME:   0.163 TIME LEFT:  2.00D  GRAD.:     5.506 HEAT: -553.3416
 CYCLE:    79 TIME:   0.161 TIME LEFT:  2.00D  GRAD.:     6.665 HEAT: -553.3857
 CYCLE:    80 TIME:   0.171 TIME LEFT:  2.00D  GRAD.:    11.918 HEAT: -553.4648
 CYCLE:    81 TIME:   0.173 TIME LEFT:  2.00D  GRAD.:    24.187 HEAT: -553.4333
 CYCLE:    82 TIME:   0.162 TIME LEFT:  2.00D  GRAD.:     4.861 HEAT: -553.5345
 CYCLE:    83 TIME:   0.164 TIME LEFT:  2.00D  GRAD.:     4.242 HEAT: -553.5497
 CYCLE:    84 TIME:   0.163 TIME LEFT:  2.00D  GRAD.:     5.343 HEAT: -553.5751
 CYCLE:    85 TIME:   0.164 TIME LEFT:  2.00D  GRAD.:     6.811 HEAT: -553.6111
 CYCLE:    86 TIME:   0.176 TIME LEFT:  2.00D  GRAD.:    10.695 HEAT: -553.6600
 CYCLE:    87 TIME:   0.166 TIME LEFT:  2.00D  GRAD.:     6.640 HEAT: -553.7094
 CYCLE:    88 TIME:   0.164 TIME LEFT:  2.00D  GRAD.:     7.743 HEAT: -553.7726
 CYCLE:    89 TIME:   0.165 TIME LEFT:  2.00D  GRAD.:    12.453 HEAT: -553.8105
 CYCLE:    90 TIME:   0.164 TIME LEFT:  2.00D  GRAD.:     8.259 HEAT: -553.8647
 CYCLE:    91 TIME:   0.165 TIME LEFT:  2.00D  GRAD.:     7.357 HEAT: -553.9300
 CYCLE:    92 TIME:   0.176 TIME LEFT:  2.00D  GRAD.:    14.565 HEAT: -553.9597
 CYCLE:    93 TIME:   0.164 TIME LEFT:  2.00D  GRAD.:     7.117 HEAT: -554.0042
 CYCLE:    94 TIME:   0.164 TIME LEFT:  2.00D  GRAD.:     5.344 HEAT: -554.0449
 CYCLE:    95 TIME:   0.171 TIME LEFT:  2.00D  GRAD.:     9.527 HEAT: -554.1026
 CYCLE:    96 TIME:   0.171 TIME LEFT:  2.00D  GRAD.:    10.972 HEAT: -554.1826
 CYCLE:    97 TIME:   0.173 TIME LEFT:  2.00D  GRAD.:    30.902 HEAT: -554.1316
 CYCLE:    98 TIME:   0.163 TIME LEFT:  2.00D  GRAD.:    12.225 HEAT: -554.2441
 CYCLE:    99 TIME:   0.166 TIME LEFT:  2.00D  GRAD.:     4.398 HEAT: -554.2878
 CYCLE:   100 TIME:   0.166 TIME LEFT:  2.00D  GRAD.:     4.901 HEAT: -554.3063
 CYCLE:   101 TIME:   0.175 TIME LEFT:  2.00D  GRAD.:     6.803 HEAT: -554.3356
 CYCLE:   102 TIME:   0.167 TIME LEFT:  2.00D  GRAD.:    12.173 HEAT: -554.3465
 CYCLE:   103 TIME:   0.164 TIME LEFT:  2.00D  GRAD.:    10.150 HEAT: -554.3792
 CYCLE:   104 TIME:   0.163 TIME LEFT:  2.00D  GRAD.:     3.912 HEAT: -554.4032
 CYCLE:   105 TIME:   0.165 TIME LEFT:  2.00D  GRAD.:     3.654 HEAT: -554.4167
 CYCLE:   106 TIME:   0.173 TIME LEFT:  2.00D  GRAD.:     5.762 HEAT: -554.4421
 CYCLE:   107 TIME:   0.164 TIME LEFT:  2.00D  GRAD.:    11.039 HEAT: -554.4605
 CYCLE:   108 TIME:   0.162 TIME LEFT:  2.00D  GRAD.:     4.892 HEAT: -554.4879
 CYCLE:   109 TIME:   0.163 TIME LEFT:  2.00D  GRAD.:     4.136 HEAT: -554.5070
 CYCLE:   110 TIME:   0.164 TIME LEFT:  2.00D  GRAD.:     4.611 HEAT: -554.5275
 CYCLE:   111 TIME:   0.177 TIME LEFT:  2.00D  GRAD.:     4.838 HEAT: -554.5526
 CYCLE:   112 TIME:   0.175 TIME LEFT:  2.00D  GRAD.:     8.132 HEAT: -554.5817
 CYCLE:   113 TIME:   0.166 TIME LEFT:  2.00D  GRAD.:     8.259 HEAT: -554.5977
 CYCLE:   114 TIME:   0.165 TIME LEFT:  2.00D  GRAD.:     3.368 HEAT: -554.6202
 CYCLE:   115 TIME:   0.165 TIME LEFT:  2.00D  GRAD.:     3.128 HEAT: -554.6307
 CYCLE:   116 TIME:   0.166 TIME LEFT:  2.00D  GRAD.:     6.011 HEAT: -554.6506
 CYCLE:   117 TIME:   0.162 TIME LEFT:  2.00D  GRAD.:     7.303 HEAT: -554.6687
 CYCLE:   118 TIME:   0.162 TIME LEFT:  2.00D  GRAD.:     3.729 HEAT: -554.6863
 CYCLE:   119 TIME:   0.162 TIME LEFT:  2.00D  GRAD.:     3.242 HEAT: -554.6996
 CYCLE:   120 TIME:   0.163 TIME LEFT:  2.00D  GRAD.:     6.705 HEAT: -554.7105
 CYCLE:   121 TIME:   0.165 TIME LEFT:  2.00D  GRAD.:     4.953 HEAT: -554.7249
 CYCLE:   122 TIME:   0.166 TIME LEFT:  2.00D  GRAD.:     4.132 HEAT: -554.7488
 CYCLE:   123 TIME:   0.165 TIME LEFT:  2.00D  GRAD.:     8.390 HEAT: -554.7556
 CYCLE:   124 TIME:   0.163 TIME LEFT:  2.00D  GRAD.:     4.007 HEAT: -554.7701
 CYCLE:   125 TIME:   0.163 TIME LEFT:  2.00D  GRAD.:     4.217 HEAT: -554.7828
 CYCLE:   126 TIME:   0.164 TIME LEFT:  2.00D  GRAD.:     4.869 HEAT: -554.7985
 CYCLE:   127 TIME:   0.162 TIME LEFT:  2.00D  GRAD.:     6.364 HEAT: -554.8273
 CYCLE:   128 TIME:   0.164 TIME LEFT:  2.00D  GRAD.:     6.437 HEAT: -554.8539
 CYCLE:   129 TIME:   0.172 TIME LEFT:  2.00D  GRAD.:     6.835 HEAT: -554.8757
 CYCLE:   130 TIME:   0.175 TIME LEFT:  2.00D  GRAD.:     5.539 HEAT: -554.8960
 CYCLE:   131 TIME:   0.172 TIME LEFT:  2.00D  GRAD.:     9.722 HEAT: -554.9206
 CYCLE:   132 TIME:   0.164 TIME LEFT:  2.00D  GRAD.:    11.901 HEAT: -554.9587
 CYCLE:   133 TIME:   0.173 TIME LEFT:  2.00D  GRAD.:    14.163 HEAT: -554.9725
 CYCLE:   134 TIME:   0.163 TIME LEFT:  2.00D  GRAD.:     5.887 HEAT: -555.0070
 CYCLE:   135 TIME:   0.164 TIME LEFT:  2.00D  GRAD.:     4.746 HEAT: -555.0220
 CYCLE:   136 TIME:   0.175 TIME LEFT:  2.00D  GRAD.:     7.065 HEAT: -555.0518
 CYCLE:   137 TIME:   0.173 TIME LEFT:  2.00D  GRAD.:    11.169 HEAT: -555.0667
 CYCLE:   138 TIME:   0.174 TIME LEFT:  2.00D  GRAD.:     6.805 HEAT: -555.1152
 CYCLE:   139 TIME:   0.163 TIME LEFT:  2.00D  GRAD.:     6.488 HEAT: -555.1413
 CYCLE:   140 TIME:   0.163 TIME LEFT:  2.00D  GRAD.:     6.890 HEAT: -555.1760
 CYCLE:   141 TIME:   0.175 TIME LEFT:  2.00D  GRAD.:     8.680 HEAT: -555.2205
 CYCLE:   142 TIME:   0.173 TIME LEFT:  2.00D  GRAD.:     6.823 HEAT: -555.2602
 CYCLE:   143 TIME:   0.173 TIME LEFT:  2.00D  GRAD.:     7.496 HEAT: -555.3159
 CYCLE:   144 TIME:   0.164 TIME LEFT:  2.00D  GRAD.:    10.854 HEAT: -555.3688
 CYCLE:   145 TIME:   0.174 TIME LEFT:  2.00D  GRAD.:     9.290 HEAT: -555.4225
 CYCLE:   146 TIME:   0.163 TIME LEFT:  2.00D  GRAD.:     8.417 HEAT: -555.4740
 CYCLE:   147 TIME:   0.176 TIME LEFT:  2.00D  GRAD.:     7.586 HEAT: -555.5683
 CYCLE:   148 TIME:   0.171 TIME LEFT:  2.00D  GRAD.:    13.962 HEAT: -555.6291
 CYCLE:   149 TIME:   0.182 TIME LEFT:  2.00D  GRAD.:    13.665 HEAT: -555.6983
 CYCLE:   150 TIME:   0.176 TIME LEFT:  2.00D  GRAD.:    92.093 HEAT: -554.4125
 CYCLE:   151 TIME:   0.174 TIME LEFT:  2.00D  GRAD.:    21.282 HEAT: -555.7229
 CYCLE:   152 TIME:   0.184 TIME LEFT:  2.00D  GRAD.:    27.440 HEAT: -555.6589
 CYCLE:   153 TIME:   0.183 TIME LEFT:  2.00D  GRAD.:    17.897 HEAT: -555.8287
 CYCLE:   154 TIME:   0.172 TIME LEFT:  2.00D  GRAD.:     6.070 HEAT: -555.9378
 CYCLE:   155 TIME:   0.183 TIME LEFT:  2.00D  GRAD.:    11.113 HEAT: -555.9156
 CYCLE:   156 TIME:   0.172 TIME LEFT:  2.00D  GRAD.:    10.225 HEAT: -556.0296
 CYCLE:   157 TIME:   0.163 TIME LEFT:  2.00D  GRAD.:    14.655 HEAT: -556.0582
 CYCLE:   158 TIME:   0.165 TIME LEFT:  2.00D  GRAD.:     5.912 HEAT: -556.1196
 CYCLE:   159 TIME:   0.188 TIME LEFT:  2.00D  GRAD.:    16.772 HEAT: -556.1641
 CYCLE:   160 TIME:   0.173 TIME LEFT:  2.00D  GRAD.:     7.217 HEAT: -556.2248
 CYCLE:   161 TIME:   0.163 TIME LEFT:  2.00D  GRAD.:     4.930 HEAT: -556.2662
 CYCLE:   162 TIME:   0.173 TIME LEFT:  2.00D  GRAD.:    11.757 HEAT: -556.3328
 CYCLE:   163 TIME:   0.173 TIME LEFT:  2.00D  GRAD.:    13.352 HEAT: -556.3675
 CYCLE:   164 TIME:   0.173 TIME LEFT:  2.00D  GRAD.:    29.146 HEAT: -556.3422
 CYCLE:   165 TIME:   0.173 TIME LEFT:  2.00D  GRAD.:     9.284 HEAT: -556.4884
 CYCLE:   166 TIME:   0.162 TIME LEFT:  2.00D  GRAD.:     6.132 HEAT: -556.5359
 CYCLE:   167 TIME:   0.165 TIME LEFT:  2.00D  GRAD.:     7.985 HEAT: -556.5748
 CYCLE:   168 TIME:   0.173 TIME LEFT:  2.00D  GRAD.:    12.307 HEAT: -556.6359
 CYCLE:   169 TIME:   0.171 TIME LEFT:  2.00D  GRAD.:    25.946 HEAT: -556.6341
 CYCLE:   170 TIME:   0.174 TIME LEFT:  2.00D  GRAD.:     9.586 HEAT: -556.7409
 CYCLE:   171 TIME:   0.164 TIME LEFT:  2.00D  GRAD.:     6.192 HEAT: -556.7879
 CYCLE:   172 TIME:   0.163 TIME LEFT:  2.00D  GRAD.:     8.901 HEAT: -556.8367
 CYCLE:   173 TIME:   0.183 TIME LEFT:  2.00D  GRAD.:    14.350 HEAT: -556.8960
 CYCLE:   174 TIME:   0.162 TIME LEFT:  2.00D  GRAD.:    20.400 HEAT: -556.9565
 CYCLE:   175 TIME:   0.163 TIME LEFT:  2.00D  GRAD.:     7.824 HEAT: -557.0439
 CYCLE:   176 TIME:   0.173 TIME LEFT:  2.00D  GRAD.:     6.590 HEAT: -557.0934
 CYCLE:   177 TIME:   0.173 TIME LEFT:  2.00D  GRAD.:     7.582 HEAT: -557.1368
 CYCLE:   178 TIME:   0.172 TIME LEFT:  2.00D  GRAD.:    24.808 HEAT: -557.1365
 CYCLE:   179 TIME:   0.163 TIME LEFT:  2.00D  GRAD.:     6.789 HEAT: -557.2346
 CYCLE:   180 TIME:   0.165 TIME LEFT:  2.00D  GRAD.:     5.381 HEAT: -557.2601
 CYCLE:   181 TIME:   0.162 TIME LEFT:  2.00D  GRAD.:     6.080 HEAT: -557.2913
 CYCLE:   182 TIME:   0.174 TIME LEFT:  2.00D  GRAD.:     6.991 HEAT: -557.3463
 CYCLE:   183 TIME:   0.172 TIME LEFT:  2.00D  GRAD.:    22.163 HEAT: -557.3414
 CYCLE:   184 TIME:   0.162 TIME LEFT:  2.00D  GRAD.:     4.634 HEAT: -557.4175
 CYCLE:   185 TIME:   0.163 TIME LEFT:  2.00D  GRAD.:     4.197 HEAT: -557.4302
 CYCLE:   186 TIME:   0.163 TIME LEFT:  2.00D  GRAD.:     4.856 HEAT: -557.4652
 CYCLE:   187 TIME:   0.175 TIME LEFT:  2.00D  GRAD.:    11.323 HEAT: -557.4912
 CYCLE:   188 TIME:   0.164 TIME LEFT:  2.00D  GRAD.:     8.236 HEAT: -557.5215
 CYCLE:   189 TIME:   0.163 TIME LEFT:  2.00D  GRAD.:     4.787 HEAT: -557.5393
 CYCLE:   190 TIME:   0.163 TIME LEFT:  2.00D  GRAD.:     4.147 HEAT: -557.5598
 CYCLE:   191 TIME:   0.163 TIME LEFT:  2.00D  GRAD.:     5.486 HEAT: -557.5850
 CYCLE:   192 TIME:   0.162 TIME LEFT:  2.00D  GRAD.:    10.294 HEAT: -557.6070
 CYCLE:   193 TIME:   0.162 TIME LEFT:  2.00D  GRAD.:     5.031 HEAT: -557.6354
 CYCLE:   194 TIME:   0.163 TIME LEFT:  2.00D  GRAD.:     3.855 HEAT: -557.6516
 CYCLE:   195 TIME:   0.164 TIME LEFT:  2.00D  GRAD.:     4.892 HEAT: -557.6740
 CYCLE:   196 TIME:   0.162 TIME LEFT:  2.00D  GRAD.:     7.294 HEAT: -557.6987
 CYCLE:   197 TIME:   0.162 TIME LEFT:  2.00D  GRAD.:     9.146 HEAT: -557.7269
 CYCLE:   198 TIME:   0.163 TIME LEFT:  2.00D  GRAD.:     4.976 HEAT: -557.7535
 CYCLE:   199 TIME:   0.163 TIME LEFT:  2.00D  GRAD.:     5.481 HEAT: -557.7810
 CYCLE:   200 TIME:   0.164 TIME LEFT:  2.00D  GRAD.:     6.066 HEAT: -557.7996
 CYCLE:   201 TIME:   0.161 TIME LEFT:  2.00D  GRAD.:    16.870 HEAT: -557.8131
 CYCLE:   202 TIME:   0.163 TIME LEFT:  2.00D  GRAD.:     5.530 HEAT: -557.8619
 CYCLE:   203 TIME:   0.163 TIME LEFT:  2.00D  GRAD.:     4.104 HEAT: -557.8750
 CYCLE:   204 TIME:   0.162 TIME LEFT:  2.00D  GRAD.:     5.139 HEAT: -557.8951
 CYCLE:   205 TIME:   0.163 TIME LEFT:  2.00D  GRAD.:     8.755 HEAT: -557.9148
 CYCLE:   206 TIME:   0.163 TIME LEFT:  2.00D  GRAD.:     5.423 HEAT: -557.9402
 CYCLE:   207 TIME:   0.162 TIME LEFT:  2.00D  GRAD.:     3.711 HEAT: -557.9608
 CYCLE:   208 TIME:   0.163 TIME LEFT:  2.00D  GRAD.:     6.284 HEAT: -557.9755
 CYCLE:   209 TIME:   0.161 TIME LEFT:  2.00D  GRAD.:     5.689 HEAT: -557.9923
 CYCLE:   210 TIME:   0.164 TIME LEFT:  2.00D  GRAD.:     4.777 HEAT: -558.0102
 CYCLE:   211 TIME:   0.173 TIME LEFT:  2.00D  GRAD.:     4.891 HEAT: -558.0400
 CYCLE:   212 TIME:   0.161 TIME LEFT:  2.00D  GRAD.:    10.342 HEAT: -558.0538
 CYCLE:   213 TIME:   0.162 TIME LEFT:  2.00D  GRAD.:     7.181 HEAT: -558.0773
 CYCLE:   214 TIME:   0.162 TIME LEFT:  2.00D  GRAD.:     3.836 HEAT: -558.0931
 CYCLE:   215 TIME:   0.162 TIME LEFT:  2.00D  GRAD.:     3.338 HEAT: -558.1077
 CYCLE:   216 TIME:   0.172 TIME LEFT:  2.00D  GRAD.:     3.771 HEAT: -558.1233
 CYCLE:   217 TIME:   0.172 TIME LEFT:  2.00D  GRAD.:    11.941 HEAT: -558.1262
 CYCLE:   218 TIME:   0.162 TIME LEFT:  2.00D  GRAD.:     3.939 HEAT: -558.1513
 CYCLE:   219 TIME:   0.168 TIME LEFT:  2.00D  GRAD.:     2.867 HEAT: -558.1583
 CYCLE:   220 TIME:   0.167 TIME LEFT:  2.00D  GRAD.:     3.837 HEAT: -558.1683
 CYCLE:   221 TIME:   0.165 TIME LEFT:  2.00D  GRAD.:     4.040 HEAT: -558.1828
 CYCLE:   222 TIME:   0.175 TIME LEFT:  2.00D  GRAD.:     4.673 HEAT: -558.1999
 CYCLE:   223 TIME:   0.165 TIME LEFT:  2.00D  GRAD.:    21.294 HEAT: -558.1593
 CYCLE:   224 TIME:   0.166 TIME LEFT:  2.00D  GRAD.:     4.134 HEAT: -558.2201
 CYCLE:   225 TIME:   0.166 TIME LEFT:  2.00D  GRAD.:     3.195 HEAT: -558.2264
 CYCLE:   226 TIME:   0.166 TIME LEFT:  2.00D  GRAD.:     4.234 HEAT: -558.2433
 CYCLE:   227 TIME:   0.166 TIME LEFT:  2.00D  GRAD.:     4.001 HEAT: -558.2579
 CYCLE:   228 TIME:   0.176 TIME LEFT:  2.00D  GRAD.:     3.607 HEAT: -558.2773
 CYCLE:   229 TIME:   0.174 TIME LEFT:  2.00D  GRAD.:    10.973 HEAT: -558.2776
 CYCLE:   230 TIME:   0.165 TIME LEFT:  2.00D  GRAD.:    27.636 HEAT: -558.2000
 CYCLE:   231 TIME:   0.168 TIME LEFT:  2.00D  GRAD.:     3.594 HEAT: -558.3082
 CYCLE:   232 TIME:   0.165 TIME LEFT:  2.00D  GRAD.:     2.704 HEAT: -558.3110
 CYCLE:   233 TIME:   0.164 TIME LEFT:  2.00D  GRAD.:     2.714 HEAT: -558.3196
 CYCLE:   234 TIME:   0.176 TIME LEFT:  2.00D  GRAD.:     5.085 HEAT: -558.3313
 CYCLE:   235 TIME:   0.164 TIME LEFT:  2.00D  GRAD.:     3.708 HEAT: -558.3412
 CYCLE:   236 TIME:   0.164 TIME LEFT:  2.00D  GRAD.:     3.627 HEAT: -558.3491
 CYCLE:   237 TIME:   0.171 TIME LEFT:  2.00D  GRAD.:     5.736 HEAT: -558.3676
 CYCLE:   238 TIME:   0.164 TIME LEFT:  2.00D  GRAD.:    12.912 HEAT: -558.3705
 CYCLE:   239 TIME:   0.162 TIME LEFT:  2.00D  GRAD.:     4.346 HEAT: -558.3985
 CYCLE:   240 TIME:   0.163 TIME LEFT:  2.00D  GRAD.:     3.539 HEAT: -558.4067
 CYCLE:   241 TIME:   0.163 TIME LEFT:  2.00D  GRAD.:     4.621 HEAT: -558.4253
 CYCLE:   242 TIME:   0.161 TIME LEFT:  2.00D  GRAD.:    13.279 HEAT: -558.4329
 CYCLE:   243 TIME:   0.164 TIME LEFT:  2.00D  GRAD.:     3.266 HEAT: -558.4618
 CYCLE:   244 TIME:   0.164 TIME LEFT:  2.00D  GRAD.:     3.063 HEAT: -558.4692
 CYCLE:   245 TIME:   0.174 TIME LEFT:  2.00D  GRAD.:     4.394 HEAT: -558.4808
 CYCLE:   246 TIME:   0.175 TIME LEFT:  2.00D  GRAD.:    20.554 HEAT: -558.4497
 CYCLE:   247 TIME:   0.174 TIME LEFT:  2.00D  GRAD.:     7.447 HEAT: -558.4937
 CYCLE:   248 TIME:   0.166 TIME LEFT:  2.00D  GRAD.:     2.713 HEAT: -558.5103
 CYCLE:   249 TIME:   0.176 TIME LEFT:  2.00D  GRAD.:     3.871 HEAT: -558.5199
 CYCLE:   250 TIME:   0.172 TIME LEFT:  2.00D  GRAD.:     5.011 HEAT: -558.5308
 CYCLE:   251 TIME:   0.171 TIME LEFT:  2.00D  GRAD.:    28.437 HEAT: -558.4688
 CYCLE:   252 TIME:   0.171 TIME LEFT:  2.00D  GRAD.:     5.825 HEAT: -558.5688
 CYCLE:   253 TIME:   0.163 TIME LEFT:  2.00D  GRAD.:     3.357 HEAT: -558.5814
 CYCLE:   254 TIME:   0.164 TIME LEFT:  2.00D  GRAD.:     3.873 HEAT: -558.6002
 CYCLE:   255 TIME:   0.174 TIME LEFT:  2.00D  GRAD.:     6.284 HEAT: -558.6261
 CYCLE:   256 TIME:   0.172 TIME LEFT:  2.00D  GRAD.:     9.636 HEAT: -558.6477
 CYCLE:   257 TIME:   0.163 TIME LEFT:  2.00D  GRAD.:     9.734 HEAT: -558.6772
 CYCLE:   258 TIME:   0.174 TIME LEFT:  2.00D  GRAD.:     6.188 HEAT: -558.7002
 CYCLE:   259 TIME:   0.163 TIME LEFT:  2.00D  GRAD.:     3.687 HEAT: -558.7294
 CYCLE:   260 TIME:   0.174 TIME LEFT:  2.00D  GRAD.:     7.440 HEAT: -558.7673
 CYCLE:   261 TIME:   0.173 TIME LEFT:  2.00D  GRAD.:     8.796 HEAT: -558.7954
 CYCLE:   262 TIME:   0.172 TIME LEFT:  2.00D  GRAD.:    29.391 HEAT: -558.7360
 CYCLE:   263 TIME:   0.164 TIME LEFT:  2.00D  GRAD.:     5.987 HEAT: -558.8648
 CYCLE:   264 TIME:   0.163 TIME LEFT:  2.00D  GRAD.:     4.527 HEAT: -558.8814
 CYCLE:   265 TIME:   0.176 TIME LEFT:  2.00D  GRAD.:     8.282 HEAT: -558.9248
 CYCLE:   266 TIME:   0.178 TIME LEFT:  2.00D  GRAD.:     6.621 HEAT: -558.9582
 CYCLE:   267 TIME:   0.165 TIME LEFT:  2.00D  GRAD.:     5.595 HEAT: -558.9916
 CYCLE:   268 TIME:   0.166 TIME LEFT:  2.00D  GRAD.:     8.163 HEAT: -559.0307
 CYCLE:   269 TIME:   0.166 TIME LEFT:  2.00D  GRAD.:     7.982 HEAT: -559.0559
 CYCLE:   270 TIME:   0.165 TIME LEFT:  2.00D  GRAD.:     5.451 HEAT: -559.0774
 CYCLE:   271 TIME:   0.167 TIME LEFT:  2.00D  GRAD.:     4.919 HEAT: -559.1033
 CYCLE:   272 TIME:   0.164 TIME LEFT:  2.00D  GRAD.:     6.122 HEAT: -559.1349
 CYCLE:   273 TIME:   0.172 TIME LEFT:  2.00D  GRAD.:     6.758 HEAT: -559.1758
 CYCLE:   274 TIME:   0.172 TIME LEFT:  2.00D  GRAD.:    15.586 HEAT: -559.1794
 CYCLE:   275 TIME:   0.163 TIME LEFT:  2.00D  GRAD.:     6.323 HEAT: -559.2344
 CYCLE:   276 TIME:   0.164 TIME LEFT:  2.00D  GRAD.:     3.789 HEAT: -559.2477
 CYCLE:   277 TIME:   0.176 TIME LEFT:  2.00D  GRAD.:     5.027 HEAT: -559.2717
 CYCLE:   278 TIME:   0.175 TIME LEFT:  2.00D  GRAD.:     5.348 HEAT: -559.3063
 CYCLE:   279 TIME:   0.176 TIME LEFT:  2.00D  GRAD.:    11.273 HEAT: -559.3307
 CYCLE:   280 TIME:   0.166 TIME LEFT:  2.00D  GRAD.:     5.457 HEAT: -559.3692
 CYCLE:   281 TIME:   0.164 TIME LEFT:  2.00D  GRAD.:     5.149 HEAT: -559.3955
 CYCLE:   282 TIME:   0.176 TIME LEFT:  2.00D  GRAD.:     5.995 HEAT: -559.4317
 CYCLE:   283 TIME:   0.175 TIME LEFT:  2.00D  GRAD.:    18.007 HEAT: -559.4474
 CYCLE:   284 TIME:   0.165 TIME LEFT:  2.00D  GRAD.:     8.629 HEAT: -559.5108
 CYCLE:   285 TIME:   0.166 TIME LEFT:  2.00D  GRAD.:     6.439 HEAT: -559.5507
 CYCLE:   286 TIME:   0.174 TIME LEFT:  2.00D  GRAD.:     9.453 HEAT: -559.5994
 CYCLE:   287 TIME:   0.174 TIME LEFT:  2.00D  GRAD.:    10.200 HEAT: -559.6630
 CYCLE:   288 TIME:   0.175 TIME LEFT:  2.00D  GRAD.:    10.279 HEAT: -559.7073
 CYCLE:   289 TIME:   0.174 TIME LEFT:  2.00D  GRAD.:    14.967 HEAT: -559.7543
 CYCLE:   290 TIME:   0.163 TIME LEFT:  2.00D  GRAD.:     6.969 HEAT: -559.8095
 CYCLE:   291 TIME:   0.171 TIME LEFT:  2.00D  GRAD.:     7.338 HEAT: -559.8271
 CYCLE:   292 TIME:   0.165 TIME LEFT:  2.00D  GRAD.:     6.996 HEAT: -559.8697
 CYCLE:   293 TIME:   0.166 TIME LEFT:  2.00D  GRAD.:     6.222 HEAT: -559.9169
 CYCLE:   294 TIME:   0.174 TIME LEFT:  2.00D  GRAD.:     5.906 HEAT: -559.9428
 CYCLE:   295 TIME:   0.176 TIME LEFT:  2.00D  GRAD.:     6.490 HEAT: -559.9657
 CYCLE:   296 TIME:   0.165 TIME LEFT:  2.00D  GRAD.:     5.074 HEAT: -559.9949
 CYCLE:   297 TIME:   0.176 TIME LEFT:  2.00D  GRAD.:     5.565 HEAT: -560.0561
 CYCLE:   298 TIME:   0.174 TIME LEFT:  2.00D  GRAD.:    18.211 HEAT: -560.0604
 CYCLE:   299 TIME:   0.166 TIME LEFT:  2.00D  GRAD.:     6.722 HEAT: -560.1082
 CYCLE:   300 TIME:   0.165 TIME LEFT:  2.00D  GRAD.:     4.790 HEAT: -560.1330
 CYCLE:   301 TIME:   0.175 TIME LEFT:  2.00D  GRAD.:     8.478 HEAT: -560.1637
 CYCLE:   302 TIME:   0.168 TIME LEFT:  2.00D  GRAD.:     9.074 HEAT: -560.1980
 CYCLE:   303 TIME:   0.175 TIME LEFT:  2.00D  GRAD.:    10.668 HEAT: -560.2347
 CYCLE:   304 TIME:   0.176 TIME LEFT:  2.00D  GRAD.:     8.872 HEAT: -560.2730
 CYCLE:   305 TIME:   0.164 TIME LEFT:  2.00D  GRAD.:     7.470 HEAT: -560.3009
 CYCLE:   306 TIME:   0.166 TIME LEFT:  2.00D  GRAD.:     5.252 HEAT: -560.3335
 CYCLE:   307 TIME:   0.175 TIME LEFT:  2.00D  GRAD.:     7.802 HEAT: -560.3650
 CYCLE:   308 TIME:   0.166 TIME LEFT:  2.00D  GRAD.:    15.862 HEAT: -560.3783
 CYCLE:   309 TIME:   0.164 TIME LEFT:  2.00D  GRAD.:     4.708 HEAT: -560.4188
 CYCLE:   310 TIME:   0.165 TIME LEFT:  2.00D  GRAD.:     4.761 HEAT: -560.4345
 CYCLE:   311 TIME:   0.176 TIME LEFT:  2.00D  GRAD.:     5.950 HEAT: -560.4659
 CYCLE:   312 TIME:   0.175 TIME LEFT:  2.00D  GRAD.:     9.524 HEAT: -560.4947
 CYCLE:   313 TIME:   0.163 TIME LEFT:  2.00D  GRAD.:     6.172 HEAT: -560.5314
 CYCLE:   314 TIME:   0.165 TIME LEFT:  2.00D  GRAD.:     5.908 HEAT: -560.5630
 CYCLE:   315 TIME:   0.163 TIME LEFT:  2.00D  GRAD.:     7.886 HEAT: -560.6165
 CYCLE:   316 TIME:   0.173 TIME LEFT:  2.00D  GRAD.:     8.184 HEAT: -560.6822
 CYCLE:   317 TIME:   0.173 TIME LEFT:  2.00D  GRAD.:    13.386 HEAT: -560.7360
 CYCLE:   318 TIME:   0.172 TIME LEFT:  2.00D  GRAD.:    17.938 HEAT: -560.8099
 CYCLE:   319 TIME:   0.174 TIME LEFT:  2.00D  GRAD.:     8.834 HEAT: -560.8622
 CYCLE:   320 TIME:   0.173 TIME LEFT:  2.00D  GRAD.:     6.836 HEAT: -560.9134
 CYCLE:   321 TIME:   0.173 TIME LEFT:  2.00D  GRAD.:     6.980 HEAT: -560.9578
 CYCLE:   322 TIME:   0.174 TIME LEFT:  2.00D  GRAD.:    10.146 HEAT: -561.0318
 CYCLE:   323 TIME:   0.174 TIME LEFT:  2.00D  GRAD.:     7.763 HEAT: -561.0834
 CYCLE:   324 TIME:   0.166 TIME LEFT:  2.00D  GRAD.:     5.056 HEAT: -561.1158
 CYCLE:   325 TIME:   0.167 TIME LEFT:  2.00D  GRAD.:     6.124 HEAT: -561.1612
 CYCLE:   326 TIME:   0.166 TIME LEFT:  2.00D  GRAD.:     7.407 HEAT: -561.2026
 CYCLE:   327 TIME:   0.166 TIME LEFT:  2.00D  GRAD.:    16.095 HEAT: -561.2013
 CYCLE:   328 TIME:   0.166 TIME LEFT:  2.00D  GRAD.:     6.162 HEAT: -561.2446
 CYCLE:   329 TIME:   0.176 TIME LEFT:  2.00D  GRAD.:    14.960 HEAT: -561.2254
 CYCLE:   330 TIME:   0.166 TIME LEFT:  2.00D  GRAD.:     4.386 HEAT: -561.2807
 CYCLE:   331 TIME:   0.164 TIME LEFT:  2.00D  GRAD.:     3.953 HEAT: -561.2973
 CYCLE:   332 TIME:   0.174 TIME LEFT:  2.00D  GRAD.:     5.908 HEAT: -561.3412
 CYCLE:   333 TIME:   0.174 TIME LEFT:  2.00D  GRAD.:    15.403 HEAT: -561.3671
 CYCLE:   334 TIME:   0.163 TIME LEFT:  2.00D  GRAD.:     7.122 HEAT: -561.4057
 CYCLE:   335 TIME:   0.165 TIME LEFT:  2.00D  GRAD.:     4.951 HEAT: -561.4319
 CYCLE:   336 TIME:   0.165 TIME LEFT:  2.00D  GRAD.:     6.108 HEAT: -561.4502
 CYCLE:   337 TIME:   0.167 TIME LEFT:  2.00D  GRAD.:     7.954 HEAT: -561.4767
 CYCLE:   338 TIME:   0.178 TIME LEFT:  2.00D  GRAD.:     7.949 HEAT: -561.5022
 CYCLE:   339 TIME:   0.168 TIME LEFT:  2.00D  GRAD.:     4.199 HEAT: -561.5269
 CYCLE:   340 TIME:   0.166 TIME LEFT:  2.00D  GRAD.:     5.587 HEAT: -561.5480
 CYCLE:   341 TIME:   0.166 TIME LEFT:  2.00D  GRAD.:     5.805 HEAT: -561.5650
 CYCLE:   342 TIME:   0.176 TIME LEFT:  2.00D  GRAD.:    12.634 HEAT: -561.5765
 CYCLE:   343 TIME:   0.166 TIME LEFT:  2.00D  GRAD.:     5.580 HEAT: -561.6188
 CYCLE:   344 TIME:   0.165 TIME LEFT:  2.00D  GRAD.:     4.331 HEAT: -561.6378
 CYCLE:   345 TIME:   0.174 TIME LEFT:  2.00D  GRAD.:     5.888 HEAT: -561.6597
 CYCLE:   346 TIME:   0.176 TIME LEFT:  2.00D  GRAD.:    10.130 HEAT: -561.6806
 CYCLE:   347 TIME:   0.165 TIME LEFT:  2.00D  GRAD.:     6.260 HEAT: -561.7088
 CYCLE:   348 TIME:   0.163 TIME LEFT:  2.00D  GRAD.:     4.433 HEAT: -561.7360
 CYCLE:   349 TIME:   0.165 TIME LEFT:  2.00D  GRAD.:     4.911 HEAT: -561.7522
 CYCLE:   350 TIME:   0.174 TIME LEFT:  2.00D  GRAD.:     6.391 HEAT: -561.7590
 CYCLE:   351 TIME:   0.174 TIME LEFT:  2.00D  GRAD.:    22.325 HEAT: -561.7450
 CYCLE:   352 TIME:   0.176 TIME LEFT:  2.00D  GRAD.:     6.619 HEAT: -561.8114
 CYCLE:   353 TIME:   0.167 TIME LEFT:  2.00D  GRAD.:     3.468 HEAT: -561.8266
 CYCLE:   354 TIME:   0.166 TIME LEFT:  2.00D  GRAD.:     4.704 HEAT: -561.8413
 CYCLE:   355 TIME:   0.176 TIME LEFT:  2.00D  GRAD.:     6.679 HEAT: -561.8678
 CYCLE:   356 TIME:   0.176 TIME LEFT:  2.00D  GRAD.:    11.136 HEAT: -561.9010
 CYCLE:   357 TIME:   0.165 TIME LEFT:  2.00D  GRAD.:     6.754 HEAT: -561.9414
 CYCLE:   358 TIME:   0.168 TIME LEFT:  2.00D  GRAD.:     5.594 HEAT: -561.9710
 CYCLE:   359 TIME:   0.163 TIME LEFT:  2.00D  GRAD.:     7.352 HEAT: -562.0114
 CYCLE:   360 TIME:   0.164 TIME LEFT:  2.00D  GRAD.:    13.083 HEAT: -562.0317
 CYCLE:   361 TIME:   0.164 TIME LEFT:  2.00D  GRAD.:     6.061 HEAT: -562.0672
 CYCLE:   362 TIME:   0.163 TIME LEFT:  2.00D  GRAD.:     6.642 HEAT: -562.0929
 CYCLE:   363 TIME:   0.162 TIME LEFT:  2.00D  GRAD.:     6.206 HEAT: -562.1169
 CYCLE:   364 TIME:   0.173 TIME LEFT:  2.00D  GRAD.:     6.595 HEAT: -562.1551
 CYCLE:   365 TIME:   0.166 TIME LEFT:  2.00D  GRAD.:    27.785 HEAT: -562.1087
 CYCLE:   366 TIME:   0.166 TIME LEFT:  2.00D  GRAD.:     4.533 HEAT: -562.2108
 CYCLE:   367 TIME:   0.167 TIME LEFT:  2.00D  GRAD.:     4.468 HEAT: -562.2200
 CYCLE:   368 TIME:   0.166 TIME LEFT:  2.00D  GRAD.:     4.549 HEAT: -562.2550
 CYCLE:   369 TIME:   0.176 TIME LEFT:  2.00D  GRAD.:    20.189 HEAT: -562.2389
 CYCLE:   370 TIME:   0.165 TIME LEFT:  2.00D  GRAD.:     4.273 HEAT: -562.3009
 CYCLE:   371 TIME:   0.165 TIME LEFT:  2.00D  GRAD.:     3.213 HEAT: -562.3084
 CYCLE:   372 TIME:   0.176 TIME LEFT:  2.00D  GRAD.:     4.411 HEAT: -562.3297
 CYCLE:   373 TIME:   0.175 TIME LEFT:  2.00D  GRAD.:    10.423 HEAT: -562.3362
 CYCLE:   374 TIME:   0.167 TIME LEFT:  2.00D  GRAD.:     4.037 HEAT: -562.3540
 CYCLE:   375 TIME:   0.166 TIME LEFT:  2.00D  GRAD.:     3.113 HEAT: -562.3633
 CYCLE:   376 TIME:   0.175 TIME LEFT:  2.00D  GRAD.:     4.653 HEAT: -562.3768
 CYCLE:   377 TIME:   0.167 TIME LEFT:  2.00D  GRAD.:     5.004 HEAT: -562.3959
 CYCLE:   378 TIME:   0.175 TIME LEFT:  2.00D  GRAD.:     6.455 HEAT: -562.4128
 CYCLE:   379 TIME:   0.176 TIME LEFT:  2.00D  GRAD.:    15.263 HEAT: -562.4039
 CYCLE:   380 TIME:   0.167 TIME LEFT:  2.00D  GRAD.:    12.161 HEAT: -562.4306
 CYCLE:   381 TIME:   0.165 TIME LEFT:  2.00D  GRAD.:     3.175 HEAT: -562.4587
 CYCLE:   382 TIME:   0.175 TIME LEFT:  2.00D  GRAD.:     4.518 HEAT: -562.4641
 CYCLE:   383 TIME:   0.166 TIME LEFT:  2.00D  GRAD.:     4.039 HEAT: -562.4764
 CYCLE:   384 TIME:   0.176 TIME LEFT:  2.00D  GRAD.:     5.771 HEAT: -562.4912
 CYCLE:   385 TIME:   0.167 TIME LEFT:  2.00D  GRAD.:     9.129 HEAT: -562.5042
 CYCLE:   386 TIME:   0.168 TIME LEFT:  2.00D  GRAD.:     4.623 HEAT: -562.5223
 CYCLE:   387 TIME:   0.166 TIME LEFT:  2.00D  GRAD.:     3.244 HEAT: -562.5339
 CYCLE:   388 TIME:   0.176 TIME LEFT:  2.00D  GRAD.:     4.382 HEAT: -562.5477
 CYCLE:   389 TIME:   0.176 TIME LEFT:  2.00D  GRAD.:     6.899 HEAT: -562.5604
 CYCLE:   390 TIME:   0.165 TIME LEFT:  2.00D  GRAD.:    11.769 HEAT: -562.5573
 CYCLE:   391 TIME:   0.167 TIME LEFT:  2.00D  GRAD.:     3.544 HEAT: -562.5799
 CYCLE:   392 TIME:   0.175 TIME LEFT:  2.00D  GRAD.:     2.435 HEAT: -562.5842
 CYCLE:   393 TIME:   0.167 TIME LEFT:  2.00D  GRAD.:     2.199 HEAT: -562.5933
 CYCLE:   394 TIME:   0.185 TIME LEFT:  2.00D  GRAD.:     5.809 HEAT: -562.6103
 CYCLE:   395 TIME:   0.166 TIME LEFT:  2.00D  GRAD.:    14.939 HEAT: -562.5936
 CYCLE:   396 TIME:   0.165 TIME LEFT:  2.00D  GRAD.:     2.899 HEAT: -562.6261
 CYCLE:   397 TIME:   0.179 TIME LEFT:  2.00D  GRAD.:     2.398 HEAT: -562.6303
 CYCLE:   398 TIME:   0.167 TIME LEFT:  2.00D  GRAD.:     2.737 HEAT: -562.6416
 CYCLE:   399 TIME:   0.176 TIME LEFT:  2.00D  GRAD.:     7.410 HEAT: -562.6514
 CYCLE:   400 TIME:   0.168 TIME LEFT:  2.00D  GRAD.:     3.644 HEAT: -562.6624
 CYCLE:   401 TIME:   0.166 TIME LEFT:  2.00D  GRAD.:     2.561 HEAT: -562.6664
 CYCLE:   402 TIME:   0.166 TIME LEFT:  2.00D  GRAD.:     2.210 HEAT: -562.6747
 CYCLE:   403 TIME:   0.176 TIME LEFT:  2.00D  GRAD.:     6.654 HEAT: -562.6781
 CYCLE:   404 TIME:   0.166 TIME LEFT:  2.00D  GRAD.:     2.850 HEAT: -562.6851
 CYCLE:   405 TIME:   0.166 TIME LEFT:  2.00D  GRAD.:     2.262 HEAT: -562.6899
 CYCLE:   406 TIME:   0.167 TIME LEFT:  2.00D  GRAD.:     2.967 HEAT: -562.6955
 CYCLE:   407 TIME:   0.166 TIME LEFT:  2.00D  GRAD.:     3.094 HEAT: -562.7051
 CYCLE:   408 TIME:   0.176 TIME LEFT:  2.00D  GRAD.:     4.102 HEAT: -562.7146
 CYCLE:   409 TIME:   0.167 TIME LEFT:  2.00D  GRAD.:     5.220 HEAT: -562.7223
 CYCLE:   410 TIME:   0.167 TIME LEFT:  2.00D  GRAD.:     4.501 HEAT: -562.7275
 CYCLE:   411 TIME:   0.166 TIME LEFT:  2.00D  GRAD.:     1.859 HEAT: -562.7355
 CYCLE:   412 TIME:   0.166 TIME LEFT:  2.00D  GRAD.:     2.182 HEAT: -562.7398
 CYCLE:   413 TIME:   0.174 TIME LEFT:  2.00D  GRAD.:     2.589 HEAT: -562.7457
 CYCLE:   414 TIME:   0.168 TIME LEFT:  2.00D  GRAD.:     7.057 HEAT: -562.7484
 CYCLE:   415 TIME:   0.166 TIME LEFT:  2.00D  GRAD.:     2.421 HEAT: -562.7585
 CYCLE:   416 TIME:   0.175 TIME LEFT:  2.00D  GRAD.:     3.261 HEAT: -562.7628
 CYCLE:   417 TIME:   0.167 TIME LEFT:  2.00D  GRAD.:     3.594 HEAT: -562.7677
 CYCLE:   418 TIME:   0.167 TIME LEFT:  2.00D  GRAD.:     2.507 HEAT: -562.7732
 CYCLE:   419 TIME:   0.166 TIME LEFT:  2.00D  GRAD.:     2.662 HEAT: -562.7847
 CYCLE:   420 TIME:   0.175 TIME LEFT:  2.00D  GRAD.:     4.466 HEAT: -562.7929
 CYCLE:   421 TIME:   0.169 TIME LEFT:  2.00D  GRAD.:     4.001 HEAT: -562.7990
 CYCLE:   422 TIME:   0.166 TIME LEFT:  2.00D  GRAD.:     2.831 HEAT: -562.8056
 CYCLE:   423 TIME:   0.176 TIME LEFT:  2.00D  GRAD.:     5.238 HEAT: -562.8162
 CYCLE:   424 TIME:   0.166 TIME LEFT:  2.00D  GRAD.:     3.549 HEAT: -562.8285
 CYCLE:   425 TIME:   0.176 TIME LEFT:  2.00D  GRAD.:     2.894 HEAT: -562.8401
 CYCLE:   426 TIME:   0.177 TIME LEFT:  2.00D  GRAD.:     7.520 HEAT: -562.8458
 CYCLE:   427 TIME:   0.163 TIME LEFT:  2.00D  GRAD.:     3.509 HEAT: -562.8583
 CYCLE:   428 TIME:   0.165 TIME LEFT:  2.00D  GRAD.:     2.884 HEAT: -562.8687
 CYCLE:   429 TIME:   0.162 TIME LEFT:  2.00D  GRAD.:     3.248 HEAT: -562.8784
 CYCLE:   430 TIME:   0.172 TIME LEFT:  2.00D  GRAD.:     3.357 HEAT: -562.8893
 CYCLE:   431 TIME:   0.163 TIME LEFT:  2.00D  GRAD.:     3.463 HEAT: -562.8984
 CYCLE:   432 TIME:   0.163 TIME LEFT:  2.00D  GRAD.:     2.279 HEAT: -562.9052
 CYCLE:   433 TIME:   0.165 TIME LEFT:  2.00D  GRAD.:     2.656 HEAT: -562.9114
 CYCLE:   434 TIME:   0.173 TIME LEFT:  2.00D  GRAD.:     3.200 HEAT: -562.9194
 CYCLE:   435 TIME:   0.164 TIME LEFT:  2.00D  GRAD.:     3.749 HEAT: -562.9251
 CYCLE:   436 TIME:   0.166 TIME LEFT:  2.00D  GRAD.:     2.873 HEAT: -562.9307
 CYCLE:   437 TIME:   0.166 TIME LEFT:  2.00D  GRAD.:     3.158 HEAT: -562.9413
 CYCLE:   438 TIME:   0.162 TIME LEFT:  2.00D  GRAD.:     2.933 HEAT: -562.9507
 CYCLE:   439 TIME:   0.171 TIME LEFT:  2.00D  GRAD.:     3.187 HEAT: -562.9598
 CYCLE:   440 TIME:   0.171 TIME LEFT:  2.00D  GRAD.:     4.909 HEAT: -562.9716
 CYCLE:   441 TIME:   0.166 TIME LEFT:  2.00D  GRAD.:     6.683 HEAT: -562.9766
 CYCLE:   442 TIME:   0.164 TIME LEFT:  2.00D  GRAD.:     2.765 HEAT: -562.9877
 CYCLE:   443 TIME:   0.164 TIME LEFT:  2.00D  GRAD.:     1.642 HEAT: -562.9906
 CYCLE:   444 TIME:   0.166 TIME LEFT:  2.00D  GRAD.:     1.739 HEAT: -562.9934
 CYCLE:   445 TIME:   0.175 TIME LEFT:  2.00D  GRAD.:     2.165 HEAT: -563.0011
 CYCLE:   446 TIME:   0.172 TIME LEFT:  2.00D  GRAD.:    12.033 HEAT: -562.9874
 CYCLE:   447 TIME:   0.165 TIME LEFT:  2.00D  GRAD.:     1.909 HEAT: -563.0079
 CYCLE:   448 TIME:   0.166 TIME LEFT:  2.00D  GRAD.:     1.721 HEAT: -563.0097
 CYCLE:   449 TIME:   0.174 TIME LEFT:  2.00D  GRAD.:     2.251 HEAT: -563.0195
 CYCLE:   450 TIME:   0.174 TIME LEFT:  2.00D  GRAD.:     6.258 HEAT: -563.0286
 CYCLE:   451 TIME:   0.164 TIME LEFT:  2.00D  GRAD.:     3.229 HEAT: -563.0381
 CYCLE:   452 TIME:   0.163 TIME LEFT:  2.00D  GRAD.:     2.886 HEAT: -563.0443
 CYCLE:   453 TIME:   0.173 TIME LEFT:  2.00D  GRAD.:     4.928 HEAT: -563.0622
 CYCLE:   454 TIME:   0.166 TIME LEFT:  2.00D  GRAD.:     9.038 HEAT: -563.0699
 CYCLE:   455 TIME:   0.166 TIME LEFT:  2.00D  GRAD.:     4.370 HEAT: -563.0835
 CYCLE:   456 TIME:   0.166 TIME LEFT:  2.00D  GRAD.:     3.147 HEAT: -563.0985
 CYCLE:   457 TIME:   0.174 TIME LEFT:  2.00D  GRAD.:     4.629 HEAT: -563.1096
 CYCLE:   458 TIME:   0.164 TIME LEFT:  2.00D  GRAD.:     5.862 HEAT: -563.1286
 CYCLE:   459 TIME:   0.172 TIME LEFT:  2.00D  GRAD.:     5.747 HEAT: -563.1405
 CYCLE:   460 TIME:   0.177 TIME LEFT:  2.00D  GRAD.:     5.226 HEAT: -563.1547
 CYCLE:   461 TIME:   0.166 TIME LEFT:  2.00D  GRAD.:    10.406 HEAT: -563.1589
 CYCLE:   462 TIME:   0.174 TIME LEFT:  2.00D  GRAD.:     6.149 HEAT: -563.1797
 CYCLE:   463 TIME:   0.167 TIME LEFT:  2.00D  GRAD.:     8.565 HEAT: -563.1805
 CYCLE:   464 TIME:   0.166 TIME LEFT:  2.00D  GRAD.:     2.740 HEAT: -563.1922
 CYCLE:   465 TIME:   0.176 TIME LEFT:  2.00D  GRAD.:     4.917 HEAT: -563.1976
 CYCLE:   466 TIME:   0.166 TIME LEFT:  2.00D  GRAD.:     4.112 HEAT: -563.2093
 CYCLE:   467 TIME:   0.166 TIME LEFT:  2.00D  GRAD.:     4.054 HEAT: -563.2314
 CYCLE:   468 TIME:   0.177 TIME LEFT:  2.00D  GRAD.:     5.461 HEAT: -563.2472
 CYCLE:   469 TIME:   0.178 TIME LEFT:  2.00D  GRAD.:     7.103 HEAT: -563.2581
 CYCLE:   470 TIME:   0.165 TIME LEFT:  2.00D  GRAD.:     3.638 HEAT: -563.2740
 CYCLE:   471 TIME:   0.166 TIME LEFT:  2.00D  GRAD.:     3.799 HEAT: -563.2877
 CYCLE:   472 TIME:   0.167 TIME LEFT:  2.00D  GRAD.:     4.759 HEAT: -563.3046
 CYCLE:   473 TIME:   0.175 TIME LEFT:  2.00D  GRAD.:     6.094 HEAT: -563.3256
 CYCLE:   474 TIME:   0.177 TIME LEFT:  2.00D  GRAD.:     8.469 HEAT: -563.3356
 CYCLE:   475 TIME:   0.166 TIME LEFT:  2.00D  GRAD.:     4.486 HEAT: -563.3605
 CYCLE:   476 TIME:   0.165 TIME LEFT:  2.00D  GRAD.:     4.236 HEAT: -563.3737
 CYCLE:   477 TIME:   0.178 TIME LEFT:  2.00D  GRAD.:     3.913 HEAT: -563.3914
 CYCLE:   478 TIME:   0.175 TIME LEFT:  2.00D  GRAD.:     4.821 HEAT: -563.4008
 CYCLE:   479 TIME:   0.165 TIME LEFT:  2.00D  GRAD.:    10.363 HEAT: -563.4132
 CYCLE:   480 TIME:   0.165 TIME LEFT:  2.00D  GRAD.:     4.745 HEAT: -563.4367
 CYCLE:   481 TIME:   0.165 TIME LEFT:  2.00D  GRAD.:     4.646 HEAT: -563.4480
 CYCLE:   482 TIME:   0.164 TIME LEFT:  2.00D  GRAD.:     4.118 HEAT: -563.4587
 CYCLE:   483 TIME:   0.167 TIME LEFT:  2.00D  GRAD.:     4.593 HEAT: -563.4791
 CYCLE:   484 TIME:   0.166 TIME LEFT:  2.00D  GRAD.:     6.531 HEAT: -563.4971
 CYCLE:   485 TIME:   0.175 TIME LEFT:  2.00D  GRAD.:     5.086 HEAT: -563.5100
 CYCLE:   486 TIME:   0.164 TIME LEFT:  2.00D  GRAD.:     5.411 HEAT: -563.5253
 CYCLE:   487 TIME:   0.164 TIME LEFT:  2.00D  GRAD.:     5.344 HEAT: -563.5469
 CYCLE:   488 TIME:   0.163 TIME LEFT:  2.00D  GRAD.:     5.055 HEAT: -563.5594
 CYCLE:   489 TIME:   0.167 TIME LEFT:  2.00D  GRAD.:     3.602 HEAT: -563.5731
 CYCLE:   490 TIME:   0.176 TIME LEFT:  2.00D  GRAD.:     4.435 HEAT: -563.5852
 CYCLE:   491 TIME:   0.167 TIME LEFT:  2.00D  GRAD.:     4.111 HEAT: -563.5997
 CYCLE:   492 TIME:   0.167 TIME LEFT:  2.00D  GRAD.:     3.985 HEAT: -563.6149
 CYCLE:   493 TIME:   0.167 TIME LEFT:  2.00D  GRAD.:     3.397 HEAT: -563.6277
 CYCLE:   494 TIME:   0.167 TIME LEFT:  2.00D  GRAD.:     3.656 HEAT: -563.6432
 CYCLE:   495 TIME:   0.175 TIME LEFT:  2.00D  GRAD.:     7.550 HEAT: -563.6522
 CYCLE:   496 TIME:   0.165 TIME LEFT:  2.00D  GRAD.:     3.854 HEAT: -563.6667
 CYCLE:   497 TIME:   0.167 TIME LEFT:  2.00D  GRAD.:     2.443 HEAT: -563.6724
 CYCLE:   498 TIME:   0.165 TIME LEFT:  2.00D  GRAD.:     2.415 HEAT: -563.6796
 CYCLE:   499 TIME:   0.173 TIME LEFT:  2.00D  GRAD.:     4.372 HEAT: -563.6903
 CYCLE:   500 TIME:   0.164 TIME LEFT:  2.00D  GRAD.:     3.899 HEAT: -563.7006
 CYCLE:   501 TIME:   0.166 TIME LEFT:  2.00D  GRAD.:     3.714 HEAT: -563.7097
 CYCLE:   502 TIME:   0.166 TIME LEFT:  2.00D  GRAD.:     3.501 HEAT: -563.7188
 CYCLE:   503 TIME:   0.166 TIME LEFT:  2.00D  GRAD.:     3.978 HEAT: -563.7287
 CYCLE:   504 TIME:   0.168 TIME LEFT:  2.00D  GRAD.:     3.942 HEAT: -563.7421
 CYCLE:   505 TIME:   0.167 TIME LEFT:  2.00D  GRAD.:     4.989 HEAT: -563.7549
 CYCLE:   506 TIME:   0.168 TIME LEFT:  2.00D  GRAD.:     3.804 HEAT: -563.7667
 CYCLE:   507 TIME:   0.168 TIME LEFT:  2.00D  GRAD.:     3.211 HEAT: -563.7766
 CYCLE:   508 TIME:   0.165 TIME LEFT:  2.00D  GRAD.:     3.111 HEAT: -563.7883
 CYCLE:   509 TIME:   0.172 TIME LEFT:  2.00D  GRAD.:     4.698 HEAT: -563.8038
 CYCLE:   510 TIME:   0.165 TIME LEFT:  2.00D  GRAD.:     5.001 HEAT: -563.8132
 CYCLE:   511 TIME:   0.163 TIME LEFT:  2.00D  GRAD.:     2.801 HEAT: -563.8217
 CYCLE:   512 TIME:   0.163 TIME LEFT:  2.00D  GRAD.:     2.793 HEAT: -563.8270
 CYCLE:   513 TIME:   0.164 TIME LEFT:  2.00D  GRAD.:     3.208 HEAT: -563.8388
 CYCLE:   514 TIME:   0.166 TIME LEFT:  2.00D  GRAD.:    13.816 HEAT: -563.8297
 CYCLE:   515 TIME:   0.166 TIME LEFT:  2.00D  GRAD.:     2.646 HEAT: -563.8560
 CYCLE:   516 TIME:   0.165 TIME LEFT:  2.00D  GRAD.:     2.286 HEAT: -563.8597
 CYCLE:   517 TIME:   0.173 TIME LEFT:  2.00D  GRAD.:     3.763 HEAT: -563.8701
 CYCLE:   518 TIME:   0.165 TIME LEFT:  2.00D  GRAD.:    10.897 HEAT: -563.8664
 CYCLE:   519 TIME:   0.164 TIME LEFT:  2.00D  GRAD.:     2.999 HEAT: -563.8816
 CYCLE:   520 TIME:   0.164 TIME LEFT:  2.00D  GRAD.:     2.075 HEAT: -563.8849
 CYCLE:   521 TIME:   0.165 TIME LEFT:  2.00D  GRAD.:     2.518 HEAT: -563.8902
 CYCLE:   522 TIME:   0.165 TIME LEFT:  2.00D  GRAD.:     2.956 HEAT: -563.8969
 CYCLE:   523 TIME:   0.173 TIME LEFT:  2.00D  GRAD.:     8.675 HEAT: -563.8991
 CYCLE:   524 TIME:   0.164 TIME LEFT:  2.00D  GRAD.:     2.650 HEAT: -563.9130
 CYCLE:   525 TIME:   0.165 TIME LEFT:  2.00D  GRAD.:     2.311 HEAT: -563.9168
 CYCLE:   526 TIME:   0.164 TIME LEFT:  2.00D  GRAD.:     2.304 HEAT: -563.9287
 CYCLE:   527 TIME:   0.173 TIME LEFT:  2.00D  GRAD.:     8.660 HEAT: -563.9257
 CYCLE:   528 TIME:   0.164 TIME LEFT:  2.00D  GRAD.:     3.069 HEAT: -563.9366
 CYCLE:   529 TIME:   0.165 TIME LEFT:  2.00D  GRAD.:     1.724 HEAT: -563.9393
 CYCLE:   530 TIME:   0.165 TIME LEFT:  2.00D  GRAD.:     2.124 HEAT: -563.9420
 CYCLE:   531 TIME:   0.173 TIME LEFT:  2.00D  GRAD.:     3.315 HEAT: -563.9486
 CYCLE:   532 TIME:   0.164 TIME LEFT:  2.00D  GRAD.:     4.345 HEAT: -563.9553
 CYCLE:   533 TIME:   0.162 TIME LEFT:  2.00D  GRAD.:     3.361 HEAT: -563.9599
 CYCLE:   534 TIME:   0.166 TIME LEFT:  2.00D  GRAD.:     2.288 HEAT: -563.9663
 CYCLE:   535 TIME:   0.173 TIME LEFT:  2.00D  GRAD.:     2.903 HEAT: -563.9718
 CYCLE:   536 TIME:   0.165 TIME LEFT:  2.00D  GRAD.:     2.607 HEAT: -563.9774
 CYCLE:   537 TIME:   0.174 TIME LEFT:  2.00D  GRAD.:     2.539 HEAT: -563.9860
 CYCLE:   538 TIME:   0.177 TIME LEFT:  2.00D  GRAD.:     4.171 HEAT: -563.9910
 CYCLE:   539 TIME:   0.166 TIME LEFT:  2.00D  GRAD.:     3.053 HEAT: -563.9970
 CYCLE:   540 TIME:   0.168 TIME LEFT:  2.00D  GRAD.:     2.495 HEAT: -564.0015
 CYCLE:   541 TIME:   0.167 TIME LEFT:  2.00D  GRAD.:     1.988 HEAT: -564.0050
 CYCLE:   542 TIME:   0.177 TIME LEFT:  2.00D  GRAD.:     4.291 HEAT: -564.0120
 CYCLE:   543 TIME:   0.166 TIME LEFT:  2.00D  GRAD.:     2.567 HEAT: -564.0177
 CYCLE:   544 TIME:   0.177 TIME LEFT:  2.00D  GRAD.:     2.512 HEAT: -564.0194
 CYCLE:   545 TIME:   0.166 TIME LEFT:  2.00D  GRAD.:     3.918 HEAT: -564.0279
 CYCLE:   546 TIME:   0.165 TIME LEFT:  2.00D  GRAD.:     3.570 HEAT: -564.0339
 CYCLE:   547 TIME:   0.165 TIME LEFT:  2.00D  GRAD.:     2.569 HEAT: -564.0375
 CYCLE:   548 TIME:   0.164 TIME LEFT:  2.00D  GRAD.:     2.232 HEAT: -564.0409
 CYCLE:   549 TIME:   0.173 TIME LEFT:  2.00D  GRAD.:     2.551 HEAT: -564.0465
 CYCLE:   550 TIME:   0.174 TIME LEFT:  2.00D  GRAD.:     3.610 HEAT: -564.0538
 CYCLE:   551 TIME:   0.172 TIME LEFT:  2.00D  GRAD.:     7.021 HEAT: -564.0541
 CYCLE:   552 TIME:   0.165 TIME LEFT:  2.00D  GRAD.:     2.071 HEAT: -564.0642
 CYCLE:   553 TIME:   0.173 TIME LEFT:  2.00D  GRAD.:     1.842 HEAT: -564.0667
 CYCLE:   554 TIME:   0.165 TIME LEFT:  2.00D  GRAD.:     2.220 HEAT: -564.0715
 CYCLE:   555 TIME:   0.172 TIME LEFT:  2.00D  GRAD.:     2.869 HEAT: -564.0809
 CYCLE:   556 TIME:   0.174 TIME LEFT:  2.00D  GRAD.:     9.938 HEAT: -564.0710
 CYCLE:   557 TIME:   0.162 TIME LEFT:  2.00D  GRAD.:     2.034 HEAT: -564.0879
 CYCLE:   558 TIME:   0.164 TIME LEFT:  2.00D  GRAD.:     1.583 HEAT: -564.0904
 CYCLE:   559 TIME:   0.173 TIME LEFT:  2.00D  GRAD.:     2.703 HEAT: -564.0978
 CYCLE:   560 TIME:   0.173 TIME LEFT:  2.00D  GRAD.:     9.003 HEAT: -564.0953
 CYCLE:   561 TIME:   0.164 TIME LEFT:  2.00D  GRAD.:     2.518 HEAT: -564.1068
 CYCLE:   562 TIME:   0.164 TIME LEFT:  2.00D  GRAD.:     1.750 HEAT: -564.1091
 CYCLE:   563 TIME:   0.163 TIME LEFT:  2.00D  GRAD.:     2.350 HEAT: -564.1136
 CYCLE:   564 TIME:   0.174 TIME LEFT:  2.00D  GRAD.:     3.151 HEAT: -564.1184
 CYCLE:   565 TIME:   0.174 TIME LEFT:  2.00D  GRAD.:     5.607 HEAT: -564.1214
 CYCLE:   566 TIME:   0.163 TIME LEFT:  2.00D  GRAD.:     2.284 HEAT: -564.1278
 CYCLE:   567 TIME:   0.166 TIME LEFT:  2.00D  GRAD.:     1.985 HEAT: -564.1312
 CYCLE:   568 TIME:   0.163 TIME LEFT:  2.00D  GRAD.:     2.028 HEAT: -564.1348
 CYCLE:   569 TIME:   0.172 TIME LEFT:  2.00D  GRAD.:     4.627 HEAT: -564.1393
 CYCLE:   570 TIME:   0.164 TIME LEFT:  2.00D  GRAD.:     2.302 HEAT: -564.1446
 CYCLE:   571 TIME:   0.163 TIME LEFT:  2.00D  GRAD.:     2.007 HEAT: -564.1480
 CYCLE:   572 TIME:   0.174 TIME LEFT:  2.00D  GRAD.:     2.338 HEAT: -564.1539
 CYCLE:   573 TIME:   0.174 TIME LEFT:  2.00D  GRAD.:     2.416 HEAT: -564.1606
 CYCLE:   574 TIME:   0.173 TIME LEFT:  2.00D  GRAD.:     4.364 HEAT: -564.1648
 CYCLE:   575 TIME:   0.164 TIME LEFT:  2.00D  GRAD.:     4.174 HEAT: -564.1713
 CYCLE:   576 TIME:   0.166 TIME LEFT:  2.00D  GRAD.:     2.385 HEAT: -564.1759
 CYCLE:   577 TIME:   0.165 TIME LEFT:  2.00D  GRAD.:     2.471 HEAT: -564.1806
 CYCLE:   578 TIME:   0.165 TIME LEFT:  2.00D  GRAD.:     2.317 HEAT: -564.1867
 CYCLE:   579 TIME:   0.173 TIME LEFT:  2.00D  GRAD.:     3.392 HEAT: -564.1981
 CYCLE:   580 TIME:   0.173 TIME LEFT:  2.00D  GRAD.:     3.267 HEAT: -564.2064
 CYCLE:   581 TIME:   0.172 TIME LEFT:  2.00D  GRAD.:     3.357 HEAT: -564.2099
 CYCLE:   582 TIME:   0.162 TIME LEFT:  2.00D  GRAD.:     2.638 HEAT: -564.2172
 CYCLE:   583 TIME:   0.164 TIME LEFT:  2.00D  GRAD.:     2.468 HEAT: -564.2246
 CYCLE:   584 TIME:   0.173 TIME LEFT:  2.00D  GRAD.:     4.356 HEAT: -564.2303
 CYCLE:   585 TIME:   0.173 TIME LEFT:  2.00D  GRAD.:     3.102 HEAT: -564.2338
 CYCLE:   586 TIME:   0.164 TIME LEFT:  2.00D  GRAD.:     2.277 HEAT: -564.2403
 CYCLE:   587 TIME:   0.174 TIME LEFT:  2.00D  GRAD.:     3.412 HEAT: -564.2473
 CYCLE:   588 TIME:   0.166 TIME LEFT:  2.00D  GRAD.:     8.330 HEAT: -564.2493
 CYCLE:   589 TIME:   0.164 TIME LEFT:  2.00D  GRAD.:     2.748 HEAT: -564.2592
 CYCLE:   590 TIME:   0.165 TIME LEFT:  2.00D  GRAD.:     1.979 HEAT: -564.2631
 CYCLE:   591 TIME:   0.183 TIME LEFT:  2.00D  GRAD.:     5.476 HEAT: -564.2637
 CYCLE:   592 TIME:   0.174 TIME LEFT:  2.00D  GRAD.:     2.091 HEAT: -564.2719
 CYCLE:   593 TIME:   0.164 TIME LEFT:  2.00D  GRAD.:     1.608 HEAT: -564.2767
 CYCLE:   594 TIME:   0.181 TIME LEFT:  2.00D  GRAD.:     3.061 HEAT: -564.2851
 CYCLE:   595 TIME:   0.172 TIME LEFT:  2.00D  GRAD.:     6.440 HEAT: -564.2835
 CYCLE:   596 TIME:   0.162 TIME LEFT:  2.00D  GRAD.:     2.604 HEAT: -564.2990
 CYCLE:   597 TIME:   0.172 TIME LEFT:  2.00D  GRAD.:     2.378 HEAT: -564.3028
 CYCLE:   598 TIME:   0.183 TIME LEFT:  2.00D  GRAD.:     2.293 HEAT: -564.3053
 CYCLE:   599 TIME:   0.163 TIME LEFT:  2.00D  GRAD.:     5.300 HEAT: -564.3100
 CYCLE:   600 TIME:   0.166 TIME LEFT:  2.00D  GRAD.:     3.268 HEAT: -564.3167
 CYCLE:   601 TIME:   0.163 TIME LEFT:  2.00D  GRAD.:     1.748 HEAT: -564.3195
 CYCLE:   602 TIME:   0.183 TIME LEFT:  2.00D  GRAD.:     2.745 HEAT: -564.3210
 CYCLE:   603 TIME:   0.163 TIME LEFT:  2.00D  GRAD.:     2.501 HEAT: -564.3263
 CYCLE:   604 TIME:   0.166 TIME LEFT:  2.00D  GRAD.:     1.942 HEAT: -564.3328
 CYCLE:   605 TIME:   0.166 TIME LEFT:  2.00D  GRAD.:     2.833 HEAT: -564.3377
 CYCLE:   606 TIME:   0.174 TIME LEFT:  2.00D  GRAD.:     2.471 HEAT: -564.3447
 CYCLE:   607 TIME:   0.182 TIME LEFT:  2.00D  GRAD.:     3.303 HEAT: -564.3502
 CYCLE:   608 TIME:   0.172 TIME LEFT:  2.00D  GRAD.:    50.973 HEAT: -564.1255
 CYCLE:   609 TIME:   0.171 TIME LEFT:  2.00D  GRAD.:     3.670 HEAT: -564.3584
 CYCLE:   610 TIME:   0.174 TIME LEFT:  2.00D  GRAD.:     3.336 HEAT: -564.3585
 CYCLE:   611 TIME:   0.164 TIME LEFT:  2.00D  GRAD.:    15.430 HEAT: -564.3389
 CYCLE:   612 TIME:   0.163 TIME LEFT:  2.00D  GRAD.:     3.504 HEAT: -564.3777
 CYCLE:   613 TIME:   0.175 TIME LEFT:  2.00D  GRAD.:     2.216 HEAT: -564.3818
 CYCLE:   614 TIME:   0.164 TIME LEFT:  2.00D  GRAD.:     2.898 HEAT: -564.3921
 CYCLE:   615 TIME:   0.162 TIME LEFT:  2.00D  GRAD.:     6.357 HEAT: -564.4013
 CYCLE:   616 TIME:   0.165 TIME LEFT:  2.00D  GRAD.:     2.606 HEAT: -564.4114
 CYCLE:   617 TIME:   0.173 TIME LEFT:  2.00D  GRAD.:     3.166 HEAT: -564.4166
 CYCLE:   618 TIME:   0.174 TIME LEFT:  2.00D  GRAD.:     3.560 HEAT: -564.4255
 CYCLE:   619 TIME:   0.173 TIME LEFT:  2.00D  GRAD.:     8.679 HEAT: -564.4266
 CYCLE:   620 TIME:   0.163 TIME LEFT:  2.00D  GRAD.:     2.621 HEAT: -564.4434
 CYCLE:   621 TIME:   0.164 TIME LEFT:  2.00D  GRAD.:     3.063 HEAT: -564.4478
 CYCLE:   622 TIME:   0.163 TIME LEFT:  2.00D  GRAD.:     4.290 HEAT: -564.4579
 CYCLE:   623 TIME:   0.165 TIME LEFT:  2.00D  GRAD.:     7.227 HEAT: -564.4664
 CYCLE:   624 TIME:   0.173 TIME LEFT:  2.00D  GRAD.:     6.758 HEAT: -564.4732
 CYCLE:   625 TIME:   0.173 TIME LEFT:  2.00D  GRAD.:    10.779 HEAT: -564.4785
 CYCLE:   626 TIME:   0.165 TIME LEFT:  2.00D  GRAD.:     3.998 HEAT: -564.4962
 CYCLE:   627 TIME:   0.173 TIME LEFT:  2.00D  GRAD.:     3.646 HEAT: -564.5020
 CYCLE:   628 TIME:   0.162 TIME LEFT:  2.00D  GRAD.:     2.476 HEAT: -564.5090
 CYCLE:   629 TIME:   0.173 TIME LEFT:  2.00D  GRAD.:     3.258 HEAT: -564.5245
 CYCLE:   630 TIME:   0.172 TIME LEFT:  2.00D  GRAD.:     7.069 HEAT: -564.5361
 CYCLE:   631 TIME:   0.174 TIME LEFT:  2.00D  GRAD.:     6.085 HEAT: -564.5471
 CYCLE:   632 TIME:   0.172 TIME LEFT:  2.00D  GRAD.:     5.456 HEAT: -564.5614
 CYCLE:   633 TIME:   0.173 TIME LEFT:  2.00D  GRAD.:     6.781 HEAT: -564.5805
 CYCLE:   634 TIME:   0.162 TIME LEFT:  2.00D  GRAD.:     7.812 HEAT: -564.5975
 CYCLE:   635 TIME:   0.164 TIME LEFT:  2.00D  GRAD.:     4.119 HEAT: -564.6166
 CYCLE:   636 TIME:   0.164 TIME LEFT:  2.00D  GRAD.:     4.341 HEAT: -564.6303
 CYCLE:   637 TIME:   0.173 TIME LEFT:  2.00D  GRAD.:     9.255 HEAT: -564.6360
 CYCLE:   638 TIME:   0.165 TIME LEFT:  2.00D  GRAD.:     8.073 HEAT: -564.6520
 CYCLE:   639 TIME:   0.177 TIME LEFT:  2.00D  GRAD.:     9.669 HEAT: -564.6578
 CYCLE:   640 TIME:   0.175 TIME LEFT:  2.00D  GRAD.:     4.375 HEAT: -564.6867
 CYCLE:   641 TIME:   0.175 TIME LEFT:  2.00D  GRAD.:     3.952 HEAT: -564.6992
 CYCLE:   642 TIME:   0.184 TIME LEFT:  2.00D  GRAD.:     7.504 HEAT: -564.6974
 CYCLE:   643 TIME:   0.174 TIME LEFT:  2.00D  GRAD.:    12.042 HEAT: -564.7226
 CYCLE:   644 TIME:   0.164 TIME LEFT:  2.00D  GRAD.:     3.951 HEAT: -564.7507
 CYCLE:   645 TIME:   0.174 TIME LEFT:  2.00D  GRAD.:     3.602 HEAT: -564.7616
 CYCLE:   646 TIME:   0.181 TIME LEFT:  2.00D  GRAD.:     7.020 HEAT: -564.7829
 CYCLE:   647 TIME:   0.165 TIME LEFT:  2.00D  GRAD.:    31.721 HEAT: -564.6793
 CYCLE:   648 TIME:   0.173 TIME LEFT:  2.00D  GRAD.:     3.755 HEAT: -564.8067
 CYCLE:   649 TIME:   0.183 TIME LEFT:  2.00D  GRAD.:     3.986 HEAT: -564.8142
 CYCLE:   650 TIME:   0.163 TIME LEFT:  2.00D  GRAD.:     6.048 HEAT: -564.8279
 CYCLE:   651 TIME:   0.163 TIME LEFT:  2.00D  GRAD.:     3.862 HEAT: -564.8431
 CYCLE:   652 TIME:   0.171 TIME LEFT:  2.00D  GRAD.:     3.811 HEAT: -564.8570
 CYCLE:   653 TIME:   0.183 TIME LEFT:  2.00D  GRAD.:     7.880 HEAT: -564.8727
 CYCLE:   654 TIME:   0.164 TIME LEFT:  2.00D  GRAD.:    13.400 HEAT: -564.8763
 CYCLE:   655 TIME:   0.164 TIME LEFT:  2.00D  GRAD.:     3.531 HEAT: -564.9040
 CYCLE:   656 TIME:   0.163 TIME LEFT:  2.00D  GRAD.:     2.841 HEAT: -564.9118
 CYCLE:   657 TIME:   0.184 TIME LEFT:  2.00D  GRAD.:     6.367 HEAT: -564.9266
 CYCLE:   658 TIME:   0.165 TIME LEFT:  2.00D  GRAD.:     6.876 HEAT: -564.9415
 CYCLE:   659 TIME:   0.166 TIME LEFT:  2.00D  GRAD.:     3.085 HEAT: -564.9579
 CYCLE:   660 TIME:   0.173 TIME LEFT:  2.00D  GRAD.:     3.920 HEAT: -564.9740
 CYCLE:   661 TIME:   0.183 TIME LEFT:  2.00D  GRAD.:     6.784 HEAT: -564.9836
 CYCLE:   662 TIME:   0.163 TIME LEFT:  2.00D  GRAD.:    11.985 HEAT: -565.0029
 CYCLE:   663 TIME:   0.164 TIME LEFT:  2.00D  GRAD.:     6.051 HEAT: -565.0290
 CYCLE:   664 TIME:   0.163 TIME LEFT:  2.00D  GRAD.:     3.549 HEAT: -565.0414
 CYCLE:   665 TIME:   0.182 TIME LEFT:  2.00D  GRAD.:     8.996 HEAT: -565.0355
 CYCLE:   666 TIME:   0.182 TIME LEFT:  2.00D  GRAD.:     6.287 HEAT: -565.0504
 CYCLE:   667 TIME:   0.183 TIME LEFT:  2.00D  GRAD.:    18.780 HEAT: -565.0185
 CYCLE:   668 TIME:   0.181 TIME LEFT:  2.00D  GRAD.:    24.852 HEAT: -564.9500
 CYCLE:   669 TIME:   0.165 TIME LEFT:  2.00D  GRAD.:   132.487 HEAT: -564.1391
 CYCLE:   670 TIME:   0.189 TIME LEFT:  2.00D  GRAD.:    31.360 HEAT: -564.8827
 CYCLE:   671 TIME:   0.184 TIME LEFT:  2.00D  GRAD.:    14.546 HEAT: -565.0424
 CYCLE:   672 TIME:   0.183 TIME LEFT:  2.00D  GRAD.:    47.161 HEAT: -564.7321
 CYCLE:   673 TIME:   0.183 TIME LEFT:  2.00D  GRAD.:    41.778 HEAT: -564.7147
 CYCLE:   674 TIME:   0.172 TIME LEFT:  2.00D  GRAD.:    10.086 HEAT: -565.0681
 CYCLE:   675 TIME:   0.183 TIME LEFT:  2.00D  GRAD.:    34.587 HEAT: -564.7088
 CYCLE:   676 TIME:   0.172 TIME LEFT:  2.00D  GRAD.:     9.580 HEAT: -565.1185
 CYCLE:   677 TIME:   0.182 TIME LEFT:  2.00D  GRAD.:    15.981 HEAT: -565.0787
 CYCLE:   678 TIME:   0.172 TIME LEFT:  2.00D  GRAD.:     2.976 HEAT: -565.1377
 CYCLE:   679 TIME:   0.182 TIME LEFT:  2.00D  GRAD.:     5.543 HEAT: -565.1325
 CYCLE:   680 TIME:   0.163 TIME LEFT:  2.00D  GRAD.:    16.163 HEAT: -565.1365
 CYCLE:   681 TIME:   0.162 TIME LEFT:  2.00D  GRAD.:     5.122 HEAT: -565.1672
 CYCLE:   682 TIME:   0.166 TIME LEFT:  2.00D  GRAD.:     2.800 HEAT: -565.1797
 CYCLE:   683 TIME:   0.183 TIME LEFT:  2.00D  GRAD.:     7.016 HEAT: -565.2061
 CYCLE:   684 TIME:   0.169 TIME LEFT:  2.00D  GRAD.:     6.001 HEAT: -565.2239
 CYCLE:   685 TIME:   0.182 TIME LEFT:  2.00D  GRAD.:     7.789 HEAT: -565.2198
 CYCLE:   686 TIME:   0.172 TIME LEFT:  2.00D  GRAD.:    40.723 HEAT: -565.0329
 CYCLE:   687 TIME:   0.173 TIME LEFT:  2.00D  GRAD.:    97.424 HEAT: -563.3912
 CYCLE:   688 TIME:   0.173 TIME LEFT:  2.00D  GRAD.:    71.072 HEAT: -564.4076
 CYCLE:   689 TIME:   0.182 TIME LEFT:  2.00D  GRAD.:    61.417 HEAT: -564.7241
 CYCLE:   690 TIME:   0.192 TIME LEFT:  2.00D  GRAD.:   208.809 HEAT: -555.5233
 CYCLE:   691 TIME:   0.184 TIME LEFT:  2.00D  GRAD.:    98.159 HEAT: -562.8057
 CYCLE:   692 TIME:   0.183 TIME LEFT:  2.00D  GRAD.:    52.099 HEAT: -564.5134
 CYCLE:   693 TIME:   0.183 TIME LEFT:  2.00D  GRAD.:   466.338 HEAT: -537.7192
 CYCLE:   694 TIME:   0.192 TIME LEFT:  2.00D  GRAD.:    71.661 HEAT: -564.1296
 CYCLE:   695 TIME:   0.193 TIME LEFT:  2.00D  GRAD.:    46.641 HEAT: -564.4358
 CYCLE:   696 TIME:   0.192 TIME LEFT:  2.00D  GRAD.:   139.129 HEAT: -560.8932
 CYCLE:   697 TIME:   0.200 TIME LEFT:  2.00D  GRAD.:   139.421 HEAT: -560.2123
 CYCLE:   698 TIME:   0.193 TIME LEFT:  2.00D  GRAD.:   175.404 HEAT: -560.8403
 CYCLE:   699 TIME:   0.202 TIME LEFT:  2.00D  GRAD.:   276.412 HEAT: -546.2084
 CYCLE:   700 TIME:   0.184 TIME LEFT:  2.00D  GRAD.:   104.638 HEAT: -557.4490
 CYCLE:   701 TIME:   0.172 TIME LEFT:  2.00D  GRAD.:    72.006 HEAT: -560.7214
 CYCLE:   702 TIME:   0.173 TIME LEFT:  2.00D  GRAD.:    96.119 HEAT: -562.0660
 CYCLE:   703 TIME:   0.180 TIME LEFT:  2.00D  GRAD.:    33.050 HEAT: -563.7515
 CYCLE:   704 TIME:   0.175 TIME LEFT:  2.00D  GRAD.:    26.680 HEAT: -564.1605
 CYCLE:   705 TIME:   0.174 TIME LEFT:  2.00D  GRAD.:    22.080 HEAT: -564.7356
 CYCLE:   706 TIME:   0.165 TIME LEFT:  2.00D  GRAD.:    28.591 HEAT: -564.8915
 CYCLE:   707 TIME:   0.162 TIME LEFT:  2.00D  GRAD.:    10.894 HEAT: -565.0265
 CYCLE:   708 TIME:   0.163 TIME LEFT:  2.00D  GRAD.:     9.752 HEAT: -565.0872
 CYCLE:   709 TIME:   0.164 TIME LEFT:  2.00D  GRAD.:    12.101 HEAT: -565.1760
 CYCLE:   710 TIME:   0.165 TIME LEFT:  2.00D  GRAD.:     8.820 HEAT: -565.2552
 CYCLE:   711 TIME:   0.165 TIME LEFT:  2.00D  GRAD.:    16.428 HEAT: -565.2468
 CYCLE:   712 TIME:   0.166 TIME LEFT:  2.00D  GRAD.:     3.730 HEAT: -565.2938
 CYCLE:   713 TIME:   0.164 TIME LEFT:  2.00D  GRAD.:     3.469 HEAT: -565.3012
 CYCLE:   714 TIME:   0.164 TIME LEFT:  2.00D  GRAD.:     5.478 HEAT: -565.3282
 CYCLE:   715 TIME:   0.164 TIME LEFT:  2.00D  GRAD.:    10.719 HEAT: -565.3523
 CYCLE:   716 TIME:   0.164 TIME LEFT:  2.00D  GRAD.:     5.793 HEAT: -565.3798
 CYCLE:   717 TIME:   0.164 TIME LEFT:  2.00D  GRAD.:     4.657 HEAT: -565.4038
 CYCLE:   718 TIME:   0.165 TIME LEFT:  2.00D  GRAD.:     5.919 HEAT: -565.4249
 CYCLE:   719 TIME:   0.164 TIME LEFT:  2.00D  GRAD.:     8.468 HEAT: -565.4470
 CYCLE:   720 TIME:   0.171 TIME LEFT:  2.00D  GRAD.:     8.163 HEAT: -565.4655
 CYCLE:   721 TIME:   0.164 TIME LEFT:  2.00D  GRAD.:     4.291 HEAT: -565.4904
 CYCLE:   722 TIME:   0.164 TIME LEFT:  2.00D  GRAD.:     4.535 HEAT: -565.5115
 CYCLE:   723 TIME:   0.165 TIME LEFT:  2.00D  GRAD.:     6.611 HEAT: -565.5311
 CYCLE:   724 TIME:   0.173 TIME LEFT:  2.00D  GRAD.:     5.930 HEAT: -565.5555
 CYCLE:   725 TIME:   0.173 TIME LEFT:  2.00D  GRAD.:    10.374 HEAT: -565.5755
 CYCLE:   726 TIME:   0.163 TIME LEFT:  2.00D  GRAD.:     5.480 HEAT: -565.6029
 CYCLE:   727 TIME:   0.165 TIME LEFT:  2.00D  GRAD.:     4.642 HEAT: -565.6285
 CYCLE:   728 TIME:   0.175 TIME LEFT:  2.00D  GRAD.:     4.922 HEAT: -565.6431
 CYCLE:   729 TIME:   0.165 TIME LEFT:  2.00D  GRAD.:    12.864 HEAT: -565.6592
 CYCLE:   730 TIME:   0.164 TIME LEFT:  2.00D  GRAD.:     4.544 HEAT: -565.6852
 CYCLE:   731 TIME:   0.164 TIME LEFT:  2.00D  GRAD.:     4.063 HEAT: -565.6956
 CYCLE:   732 TIME:   0.163 TIME LEFT:  2.00D  GRAD.:     4.343 HEAT: -565.7081
 CYCLE:   733 TIME:   0.172 TIME LEFT:  2.00D  GRAD.:     4.870 HEAT: -565.7445
 CYCLE:   734 TIME:   0.174 TIME LEFT:  2.00D  GRAD.:    19.120 HEAT: -565.7187
 CYCLE:   735 TIME:   0.163 TIME LEFT:  2.00D  GRAD.:     3.811 HEAT: -565.7700
 CYCLE:   736 TIME:   0.164 TIME LEFT:  2.00D  GRAD.:     3.026 HEAT: -565.7778
 CYCLE:   737 TIME:   0.163 TIME LEFT:  2.00D  GRAD.:     3.907 HEAT: -565.7921
 CYCLE:   738 TIME:   0.172 TIME LEFT:  2.00D  GRAD.:     4.547 HEAT: -565.8116
 CYCLE:   739 TIME:   0.171 TIME LEFT:  2.00D  GRAD.:    14.346 HEAT: -565.7995
 CYCLE:   740 TIME:   0.165 TIME LEFT:  2.00D  GRAD.:     3.302 HEAT: -565.8326
 CYCLE:   741 TIME:   0.164 TIME LEFT:  2.00D  GRAD.:     2.575 HEAT: -565.8380
 CYCLE:   742 TIME:   0.167 TIME LEFT:  2.00D  GRAD.:     4.033 HEAT: -565.8517
 CYCLE:   743 TIME:   0.165 TIME LEFT:  2.00D  GRAD.:     3.716 HEAT: -565.8659
 CYCLE:   744 TIME:   0.172 TIME LEFT:  2.00D  GRAD.:     8.165 HEAT: -565.8842
 CYCLE:   745 TIME:   0.163 TIME LEFT:  2.00D  GRAD.:     9.542 HEAT: -565.8916
 CYCLE:   746 TIME:   0.164 TIME LEFT:  2.00D  GRAD.:     3.807 HEAT: -565.9092
 CYCLE:   747 TIME:   0.166 TIME LEFT:  2.00D  GRAD.:     2.375 HEAT: -565.9171
 CYCLE:   748 TIME:   0.163 TIME LEFT:  2.00D  GRAD.:     3.288 HEAT: -565.9262
 CYCLE:   749 TIME:   0.174 TIME LEFT:  2.00D  GRAD.:     7.384 HEAT: -565.9322
 CYCLE:   750 TIME:   0.164 TIME LEFT:  2.00D  GRAD.:     3.999 HEAT: -565.9420
[...]
 102    H       15.515388072    -4.721710639     0.490840147
 103    H       15.558178169    -3.681763214    -0.936268865
 104    H       13.735581458    -5.796355377    -0.768234839
 105    H       13.235714534    -4.579975331    -1.938877538
 106    H       15.372597137    -1.635893621     0.484333143
 107    H       15.171595442    -2.621504144     1.938712219
 108    H       19.055357957    -7.425474364    -1.226612151
 109    H       19.168831777    -7.116349442     0.508896625
 110    H       21.705999374    -7.051073711     0.323313459
 111    H       21.582586825    -7.380800963    -1.406794461
 112    H       11.030418318    -4.306785961    -0.646642542
 113    H       11.251896379    -5.862703753    -1.439764093
 114    H       20.294025991    14.141860466    -1.450185035
 115    H       20.424583583    14.265994019     0.307879662
 116    H       19.547795230    15.500765305    -0.602739487
 117    H       20.354088013    -4.921912706     0.048396110
 118    H       20.264356327    -5.231028900    -1.687278956
 119    H       20.355483306    -9.553123702    -0.895514821
 120    H       20.508020037    -9.224906698     0.832554703
 121    H       17.503526294    -1.915249443     1.872677103
 122    H       17.472780846    -3.644769758     1.552494153
 123    H        9.163657956    -6.097402460    -0.086450099
 124    H       17.736457430    -5.290111748    -1.564345746
 125    H       17.805307355    -5.066899988     0.183696942
 126    H       22.889271710    -9.510380671    -1.121027462
 127    H       23.034251440    -9.199288936     0.610129635
 128    H       12.448700058    -6.219993440     1.163937117
 129    H       10.954763367    -6.941421053     0.579573874
 130    H        7.328294117    -3.873646762     1.096675164
 131    H        7.041914669    -4.658100618    -0.510229679
 132    H        7.098169415    -6.266595400     2.277466833
 133    H        8.151976648    -7.599979066     1.695556685
 134    H       17.954790846    -1.352536754    -0.439086518
 135    H       18.903204487    -3.058763146    -1.907612853
 136    H       21.819567197   -11.373645907     1.104178947
 137    H       21.669433632   -11.683978799    -0.627514774
 138    H       23.649877617   -12.905718430     0.311595795
 139    H       24.200916699   -11.687533327    -0.843739491
 140    H       24.346339996   -11.388685038     0.891973189


           Empirical Formula: C44 H86 N O8 P  =   140 atoms



      MOLECULAR POINT GROUP   :   C1  


                  EIGENVALUES  
 -45.96716 -34.88547 -32.06090 -31.52084 -31.24661 -30.84400 -30.13892 -29.99583
 -29.83805 -29.75464 -29.73921 -29.58592 -29.40871 -29.07793 -28.94003 -28.44530
 -28.27413 -27.70133 -27.26321 -27.24376 -26.66960 -26.42108 -26.30288 -25.49227
 -25.39602 -24.64290 -24.42079 -24.38352 -24.32635 -24.08449 -23.51177 -23.45857
 -22.96109 -21.97745 -21.77464 -21.72437 -21.49497 -21.38318 -20.89514 -20.70210
 -20.53153 -20.46723 -20.37500 -20.22383 -20.12538 -20.03758 -19.89368 -19.81819
 -19.70531 -19.58546 -19.51479 -19.32218 -19.14530 -18.00221 -17.85251 -17.78660
 -17.49735 -17.05245 -17.00680 -16.98004 -16.70274 -16.65669 -16.51404 -16.46922
 -16.34210 -16.29180 -16.14843 -15.99497 -15.90255 -15.88269 -15.84290 -15.71146
 -15.66349 -15.59874 -15.48633 -15.32611 -15.22731 -15.05964 -15.02820 -14.93446
 -14.91477 -14.78574 -14.70716 -14.64347 -14.60204 -14.49656 -14.41729 -14.35189
 -14.30072 -14.17549 -14.06314 -14.02879 -13.92524 -13.81620 -13.78145 -13.72439
 -13.67328 -13.63715 -13.54909 -13.49419 -13.33600 -13.32389 -13.23643 -13.19867
 -13.15064 -13.06793 -12.91379 -12.88553 -12.79479 -12.75197 -12.64453 -12.60493
 -12.57849 -12.54772 -12.52446 -12.40023 -12.38238 -12.29206 -12.26646 -12.21596
 -12.17404 -12.14857 -12.09780 -12.08801 -12.00372 -11.91799 -11.88375 -11.82905
 -11.78179 -11.72534 -11.68083 -11.67184 -11.62443 -11.59301 -11.53933 -11.50430
 -11.40712 -11.33055 -11.30397 -11.25167 -11.23967 -11.20396 -11.18446 -11.15551
 -11.08266 -11.06143 -11.03979 -11.01919 -11.00112 -10.92342 -10.85506 -10.74444
 -10.70222 -10.54443 -10.43303 -10.38209 -10.13501  -9.90245  -9.59411  -8.94714
  -0.17756   0.37297   0.86734   0.95350   1.05265   1.22288   1.44967   1.69592
   2.19417   3.00379   3.02304   3.14812   3.42434   3.50093   3.59916   3.68922
   3.75080   3.79567   3.82530   3.86400   3.88080   3.89994   4.02722   4.07598
   4.09518   4.14018   4.18654   4.19905   4.22947   4.25925   4.32812   4.39485
   4.40356   4.51466   4.53646   4.55084   4.56240   4.60608   4.63445   4.63527
   4.64384   4.73131   4.77586   4.79600   4.82312   4.83031   4.86859   4.89622
   4.94912   4.98694   5.00701   5.02946   5.08686   5.10301   5.12106   5.18118
   5.18618   5.28408   5.31657   5.31850   5.38202   5.38313   5.43910   5.46708
   5.47413   5.48681   5.53412   5.58040   5.58113   5.59392   5.60371   5.60649
   5.65898   5.66786   5.71363   5.74096   5.74167   5.77220   5.79178   5.81906
   5.84476   5.85142   5.87063   5.87573   5.91066   5.91862   5.91889   5.94327
   5.95784   5.97132   5.99890   6.01183   6.05296   6.08039   6.08991   6.10756
   6.11288   6.12115   6.15430   6.21306   6.21676   6.26686   6.27539   6.28145
   6.30241   6.30607   6.31918   6.33456   6.33963   6.45661   6.48674   6.49910
   6.50870   6.55057   6.55479   6.60677   6.66100   6.67510   6.68247   6.68323
   6.69838   6.70010   6.70594   6.73364   6.73600   6.73956   6.76848   6.77261
   6.77684   6.78840   6.79498   6.80226   6.80701   6.82122   6.82288   6.83086
   6.86866   6.89759   6.93365   6.98951   7.07088   7.07984 106.52407 106.58421
 106.67866 106.98391 107.27887


              NET ATOMIC CHARGES AND DIPOLE CONTRIBUTIONS

  ATOM NO.   TYPE          CHARGE      No. of ELECS.   s-Pop       p-Pop       d-Pop       
    1          P           0.307796        4.6922     1.67433     2.85126     0.16661
    2          O          -0.254516        6.2545     1.86006     4.39445
    3          O          -0.444006        6.4440     1.86498     4.57902
    4          O          -0.453807        6.4538     1.85913     4.59468
    5          O          -0.291966        6.2920     1.84281     4.44915
    6          O          -0.528282        6.5283     1.87625     4.65203
    7          O          -0.202396        6.2024     1.86451     4.33789
    8          O          -0.220984        6.2210     1.88427     4.33671
    9          O          -0.465488        6.4655     1.87718     4.58831
   10          N          -0.376208        5.3762     1.69032     3.68589
   11          C          -0.275162        4.2752     1.05993     3.21523
   12          C          -0.272788        4.2728     1.05994     3.21284
   13          C          -0.275231        4.2752     1.06014     3.21510
   14          C          -0.272594        4.2726     1.05986     3.21274
   15          C          -0.270191        4.2702     1.05976     3.21043
   16          C          -0.272779        4.2728     1.05994     3.21284
   17          C          -0.271515        4.2715     1.06003     3.21148
   18          C          -0.271609        4.2716     1.05984     3.21177
   19          C          -0.270575        4.2706     1.05986     3.21071
   20          C          -0.272254        4.2723     1.05991     3.21235
   21          C          -0.274632        4.2746     1.05999     3.21464
   22          C          -0.263716        4.2637     1.05941     3.20430
   23          C          -0.077846        4.0778     1.09759     2.98026
   24          C          -0.272238        4.2722     1.06009     3.21215
   25          C          -0.264184        4.2642     1.05990     3.20429
   26          C          -0.289016        4.2890     1.06325     3.22576
   27          C          -0.288963        4.2890     1.06243     3.22653
   28          C          -0.290368        4.2904     1.06297     3.22739
   29          C          -0.251019        4.2510     1.05540     3.19562
   30          C          -0.350386        4.3504     1.06893     3.28146
   31          C          -0.062375        4.0624     1.09571     2.96667
   32          C          -0.284243        4.2842     1.06123     3.22301
   33          C          -0.271195        4.2712     1.05977     3.21142
   34          C          -0.268818        4.2688     1.06008     3.20874
   35          C          -0.259837        4.2598     1.05955     3.20029
   36          C          -0.271510        4.2715     1.06005     3.21146
   37          C          -0.271941        4.2719     1.05985     3.21209
   38          C          -0.439851        4.4399     1.05205     3.38780
   39          C          -0.258712        4.2587     1.05866     3.20005
   40          C          -0.264352        4.2644     1.05961     3.20474
   41          C          -0.275078        4.2751     1.06006     3.21502
   42          C           0.622376        3.3776     1.12311     2.25451
   43          C          -0.278325        4.2783     1.05385     3.22447
   44          C           0.080722        3.9193     1.10590     2.81338
   45          C          -0.278770        4.2788     1.05429     3.22448
   46          C          -0.272358        4.2724     1.06009     3.21227
   47          C          -0.387817        4.3878     1.07194     3.31588
   48          C          -0.047255        4.0473     1.10264     2.94461
   49          C          -0.041488        4.0415     1.09041     2.95108
   50          C          -0.158337        4.1583     1.08899     3.06934
   51          C          -0.173217        4.1732     1.08874     3.08448
   52          C          -0.251222        4.2512     1.05544     3.19578
   53          C           0.623804        3.3762     1.12332     2.25288
   54          C          -0.439714        4.4397     1.05208     3.38763
   55          H           0.135788        0.8642     0.86421
   56          H           0.137124        0.8629     0.86288
   57          H           0.135638        0.8644     0.86436
   58          H           0.136538        0.8635     0.86346
   59          H           0.137221        0.8628     0.86278
   60          H           0.136180        0.8638     0.86382
   61          H           0.136027        0.8640     0.86397
   62          H           0.136851        0.8631     0.86315
   63          H           0.134401        0.8656     0.86560
   64          H           0.136621        0.8634     0.86338
   65          H           0.136611        0.8634     0.86339
   66          H           0.136033        0.8640     0.86397
   67          H           0.135386        0.8646     0.86461
   68          H           0.136425        0.8636     0.86357
   69          H           0.136105        0.8639     0.86389
   70          H           0.136571        0.8634     0.86343
   71          H           0.143045        0.8570     0.85696
   72          H           0.144546        0.8555     0.85545
   73          H           0.136217        0.8638     0.86378
   74          H           0.136516        0.8635     0.86348
   75          H           0.139126        0.8609     0.86087
   76          H           0.135347        0.8647     0.86465
   77          H           0.136391        0.8636     0.86361
   78          H           0.136159        0.8638     0.86384
   79          H           0.132948        0.8671     0.86705
   80          H           0.161327        0.8387     0.83867
   81          H           0.136327        0.8637     0.86367
   82          H           0.136454        0.8635     0.86355
   83          H           0.151734        0.8483     0.84827
   84          H           0.161781        0.8382     0.83822
   85          H           0.158443        0.8416     0.84156
   86          H           0.141608        0.8584     0.85839
   87          H           0.121067        0.8789     0.87893
   88          H           0.139407        0.8606     0.86059
   89          H           0.120567        0.8794     0.87943
   90          H           0.140231        0.8598     0.85977
   91          H           0.133600        0.8664     0.86640
   92          H           0.136546        0.8635     0.86345
   93          H           0.155118        0.8449     0.84488
   94          H           0.133575        0.8664     0.86642
   95          H           0.133428        0.8666     0.86657
   96          H           0.177524        0.8225     0.82248
   97          H           0.171741        0.8283     0.82826
   98          H           0.132344        0.8677     0.86766
   99          H           0.158572        0.8414     0.84143
  100          H           0.140322        0.8597     0.85968
  101          H           0.158600        0.8414     0.84140
  102          H           0.133230        0.8668     0.86677
  103          H           0.140008        0.8600     0.85999
  104          H           0.137651        0.8623     0.86235
  105          H           0.134977        0.8650     0.86502
  106          H           0.138933        0.8611     0.86107
  107          H           0.140255        0.8597     0.85974
  108          H           0.135812        0.8642     0.86419
  109          H           0.136751        0.8632     0.86325
  110          H           0.137460        0.8625     0.86254
  111          H           0.136186        0.8638     0.86381
  112          H           0.159471        0.8405     0.84053
  113          H           0.143323        0.8567     0.85668
  114          H           0.142174        0.8578     0.85783
  115          H           0.142294        0.8577     0.85771
  116          H           0.139864        0.8601     0.86014
  117          H           0.140769        0.8592     0.85923
  118          H           0.136713        0.8633     0.86329
  119          H           0.135611        0.8644     0.86439
  120          H           0.136347        0.8637     0.86365
  121          H           0.140813        0.8592     0.85919
  122          H           0.144444        0.8556     0.85556
  123          H           0.150843        0.8492     0.84916
  124          H           0.143760        0.8562     0.85624
  125          H           0.145798        0.8542     0.85420
  126          H           0.136361        0.8636     0.86364
  127          H           0.136848        0.8632     0.86315
  128          H           0.184704        0.8153     0.81530
  129          H           0.171170        0.8288     0.82883
  130          H           0.152233        0.8478     0.84777
  131          H           0.159790        0.8402     0.84021
  132          H           0.154342        0.8457     0.84566
  133          H           0.147308        0.8527     0.85269
  134          H           0.139094        0.8609     0.86091
  135          H           0.139360        0.8606     0.86064
  136          H           0.133655        0.8663     0.86635
  137          H           0.133266        0.8667     0.86673
  138          H           0.140046        0.8600     0.85995
  139          H           0.142205        0.8578     0.85780
  140          H           0.142436        0.8576     0.85756
 DIPOLE           X         Y         Z       TOTAL
 POINT-CHG.    -1.105     0.282    -3.371     3.559
 HYBRID         0.056     0.582     0.611     0.846
 SUM           -1.050     0.864    -2.760     3.077


          ATOMIC ORBITAL ELECTRON POPULATIONS

     Atom    s        px        py        pz      x^2-y^2     xz        z^2       yz        xy
    1  P   1.67433   0.95590   0.95448   0.94088   0.03656   0.03255   0.02972   0.03411   0.03367
    2  O   1.86006   1.26725   1.72569   1.40151
    3  O   1.86498   1.47884   1.35157   1.74862
    4  O   1.85913   1.31981   1.82052   1.45435
    5  O   1.84281   1.39555   1.53173   1.52187
    6  O   1.87625   1.32487   1.77310   1.55406
    7  O   1.86451   1.22118   1.55519   1.56152
    8  O   1.88427   1.39552   1.20574   1.73544
    9  O   1.87718   1.71573   1.41666   1.45591
   10  N   1.69032   1.06020   1.42270   1.20298
   11  C   1.05993   1.05358   1.00098   1.16067
   12  C   1.05994   1.05336   0.99944   1.16005
   13  C   1.06014   1.05654   0.99950   1.15906
   14  C   1.05986   1.05264   0.99887   1.16123
   15  C   1.05976   1.05177   0.99897   1.15969
   16  C   1.05994   1.05244   0.99929   1.16111
   17  C   1.06003   1.05505   0.99954   1.15689
   18  C   1.05984   1.05155   0.99861   1.16161
   19  C   1.05986   1.03563   1.12227   1.05282
   20  C   1.05991   1.05210   0.99860   1.16164
   21  C   1.05999   1.05280   1.00025   1.16159
   22  C   1.05941   1.03250   1.10748   1.06433
   23  C   1.09759   0.97107   1.03525   0.97393
   24  C   1.06009   1.05070   0.99923   1.16223
   25  C   1.05990   1.04368   1.13915   1.02146
   26  C   1.06325   1.16256   1.13789   0.92531
   27  C   1.06243   0.94309   1.12499   1.15845
   28  C   1.06297   1.06597   1.04744   1.11399
   29  C   1.05540   1.04047   0.99798   1.15717
   30  C   1.06893   1.04811   1.13416   1.09918
   31  C   1.09571   0.83663   1.09586   1.03418
   32  C   1.06123   1.01467   1.08317   1.12517
   33  C   1.05977   1.00882   1.07910   1.12350
   34  C   1.06008   1.00986   1.09336   1.10552
   35  C   1.05955   0.99637   1.08449   1.11943
   36  C   1.06005   1.04322   1.01022   1.15802
   37  C   1.05985   1.04234   1.01124   1.15851
   38  C   1.05205   1.08276   1.13251   1.17253
   39  C   1.05866   1.05365   1.13270   1.01370
   40  C   1.05961   1.03405   1.00925   1.16144
   41  C   1.06006   1.04487   1.01244   1.15771
   42  C   1.12311   0.83337   0.75421   0.66694
   43  C   1.05385   1.01301   1.16563   1.04583
   44  C   1.10590   0.93318   0.97168   0.90852
   45  C   1.05429   1.04652   1.01253   1.16543
   46  C   1.06009   1.04173   1.01129   1.15926
   47  C   1.07194   1.16335   1.09877   1.05376
   48  C   1.10264   0.93696   0.93204   1.07561
   49  C   1.09041   0.94195   1.05419   0.95494
   50  C   1.08899   1.00174   1.07038   0.99722
   51  C   1.08874   1.03290   0.99079   1.06079
   52  C   1.05544   1.03124   1.01009   1.15444
   53  C   1.12332   0.74989   0.74679   0.75620
   54  C   1.05208   1.06773   1.14611   1.17379
   55  H   0.86421
   56  H   0.86288
   57  H   0.86436
   58  H   0.86346
   59  H   0.86278
   60  H   0.86382
   61  H   0.86397
   62  H   0.86315
   63  H   0.86560
   64  H   0.86338
   65  H   0.86339
   66  H   0.86397
   67  H   0.86461
   68  H   0.86357
   69  H   0.86389
   70  H   0.86343
   71  H   0.85696
   72  H   0.85545
   73  H   0.86378
   74  H   0.86348
   75  H   0.86087
   76  H   0.86465
   77  H   0.86361
   78  H   0.86384
   79  H   0.86705
   80  H   0.83867
   81  H   0.86367
   82  H   0.86355
   83  H   0.84827
   84  H   0.83822
   85  H   0.84156
   86  H   0.85839
   87  H   0.87893
   88  H   0.86059
   89  H   0.87943
   90  H   0.85977
   91  H   0.86640
   92  H   0.86345
   93  H   0.84488
   94  H   0.86642
   95  H   0.86657
   96  H   0.82248
   97  H   0.82826
   98  H   0.86766
   99  H   0.84143
  100  H   0.85968
  101  H   0.84140
  102  H   0.86677
  103  H   0.85999
  104  H   0.86235
  105  H   0.86502
  106  H   0.86107
  107  H   0.85974
  108  H   0.86419
  109  H   0.86325
  110  H   0.86254
  111  H   0.86381
  112  H   0.84053
  113  H   0.85668
  114  H   0.85783
  115  H   0.85771
  116  H   0.86014
  117  H   0.85923
  118  H   0.86329
  119  H   0.86439
  120  H   0.86365
  121  H   0.85919
  122  H   0.85556
  123  H   0.84916
  124  H   0.85624
  125  H   0.85420
  126  H   0.86364
  127  H   0.86315
  128  H   0.81530
  129  H   0.82883
  130  H   0.84777
  131  H   0.84021
  132  H   0.84566
  133  H   0.85269
  134  H   0.86091
  135  H   0.86064
  136  H   0.86635
  137  H   0.86673
  138  H   0.85995
  139  H   0.85780
  140  H   0.85756

 **********************
 *                    *
 * JOB ENDED NORMALLY *
 *                    *
 **********************



 TOTAL JOB TIME:           159.36 SECONDS

 == MOPAC DONE ==
