
     Program PWSCF v.7.4.1 starts on 10May2025 at 22:27:22 
        Git branch: develop
        Last git commit: 0b9715eb955f228110c1a3fce725593e5ef53033
        Last git commit date: Sat May 10 10:10:03 2025 +0000
        Last git commit subject: Merge branch 'newd_clean' into 'develop'

     This program is part of the open-source Quantum ESPRESSO suite
     for quantum simulation of materials; please cite
         "P. Giannozzi et al., J. Phys.:Condens. Matter 21 395502 (2009);
         "P. Giannozzi et al., J. Phys.:Condens. Matter 29 465901 (2017);
         "P. Giannozzi et al., J. Chem. Phys. 152 154105 (2020);
          URL http://www.quantum-espresso.org", 
     in publications or presentations arising from this work. More details at
     http://www.quantum-espresso.org/quote

     Parallel version (MPI), running on     4 processors

     MPI processes distributed on     1 nodes
     6859 MiB available memory on the printing compute node when the environment starts

     Waiting for input...
     Reading input from standard input

     Current dimensions of program PWSCF are:
     Max number of different atomic species (ntypx) = 10
     Max number of k-points (npk) =  40000
     Max angular momentum in pseudopotentials (lmaxx) =  4
     Message from routine setup:
     using ibrav=0 with symmetry is DISCOURAGED, use correct ibrav instead

     R & G space division:  proc/nbgrp/npool/nimage =       4
     Subspace diagonalization in iterative solution of the eigenvalue problem:
     a serial algorithm will be used


     Parallelization info
     --------------------
     sticks:   dense  smooth     PW     G-vecs:    dense   smooth      PW
     Min        5115    5115   1282               550353   550353   68740
     Max        5116    5116   1283               550358   550358   68741
     Sum       20461   20461   5129              2201421  2201421  274961

     Using Slab Decomposition



     bravais-lattice index     =            0
     lattice parameter (alat)  =      28.3459  a.u.
     unit-cell volume          =   22775.6289 (a.u.)^3
     number of atoms/cell      =            2
     number of atomic types    =            1
     number of electrons       =        44.00
     number of Kohn-Sham states=           52
     kinetic-energy cutoff     =      80.0000  Ry
     charge density cutoff     =     320.0000  Ry
     scf convergence threshold =      1.0E-09
     mixing beta               =       0.3000
     number of iterations used =            8  plain     mixing
     Exchange-correlation= PBE
                           (   1   4   3   4   0   0   0)
     Non magnetic calculation with spin-orbit


     celldm(1)=  28.345892  celldm(2)=   0.000000  celldm(3)=   0.000000
     celldm(4)=   0.000000  celldm(5)=   0.000000  celldm(6)=   0.000000

     crystal axes: (cart. coord. in units of alat)
               a(1) = (   1.000000   0.000000   0.000000 )  
               a(2) = (   0.000000   1.000000   0.000000 )  
               a(3) = (   0.000000   0.000000   1.000000 )  

     reciprocal axes: (cart. coord. in units 2 pi/alat)
               b(1) = (  1.000000  0.000000  0.000000 )  
               b(2) = (  0.000000  1.000000  0.000000 )  
               b(3) = (  0.000000  0.000000  1.000000 )  


     PseudoPot. # 1 for Fl read from file:
     .././Fl-6spd_r.upf
     MD5 check sum: b85b9b71a88d70a023db0b659bf16840
     Pseudo is Norm-conserving + core correction, Zval = 22.0
     Generated using ONCVPSP code by D. R. Hamann
     Using radial grid of 2000 points, 12 beta functions with: 
                l(1) =   0
                l(2) =   0
                l(3) =   1
                l(4) =   1
                l(5) =   1
                l(6) =   1
                l(7) =   2
                l(8) =   2
                l(9) =   2
               l(10) =   2
               l(11) =   3
               l(12) =   3

     atomic species   valence    mass     pseudopotential
     Fl               22.00   289.00000     Fl( 1.00)

      8 Sym. Ops. (no inversion) found


                                    s                        frac. trans.

      isym =  1     identity                                     

 cryst.   s( 1) = (     1          0          0      )
                  (     0          1          0      )
                  (     0          0          1      )

 cart.    s( 1) = (  1.0000000  0.0000000  0.0000000 )
                  (  0.0000000  1.0000000  0.0000000 )
                  (  0.0000000  0.0000000  1.0000000 )


      isym =  2     180 deg rotation - cart. axis [0,0,1]        

 cryst.   s( 2) = (    -1          0          0      )
                  (     0         -1          0      )
                  (     0          0          1      )

 cart.    s( 2) = ( -1.0000000  0.0000000  0.0000000 )
                  (  0.0000000 -1.0000000  0.0000000 )
                  (  0.0000000  0.0000000  1.0000000 )


      isym =  3      90 deg rotation - cart. axis [0,0,-1]       

 cryst.   s( 3) = (     0         -1          0      )
                  (     1          0          0      )
                  (     0          0          1      )

 cart.    s( 3) = (  0.0000000  1.0000000  0.0000000 )
                  ( -1.0000000  0.0000000  0.0000000 )
                  (  0.0000000  0.0000000  1.0000000 )


      isym =  4      90 deg rotation - cart. axis [0,0,1]        

 cryst.   s( 4) = (     0          1          0      )
                  (    -1          0          0      )
                  (     0          0          1      )

 cart.    s( 4) = (  0.0000000 -1.0000000  0.0000000 )
                  (  1.0000000  0.0000000  0.0000000 )
                  (  0.0000000  0.0000000  1.0000000 )


      isym =  5     inv. 180 deg rotation - cart. axis [0,1,0]   

 cryst.   s( 5) = (     1          0          0      )
                  (     0         -1          0      )
                  (     0          0          1      )

 cart.    s( 5) = (  1.0000000  0.0000000  0.0000000 )
                  (  0.0000000 -1.0000000  0.0000000 )
                  (  0.0000000  0.0000000  1.0000000 )


      isym =  6     inv. 180 deg rotation - cart. axis [1,0,0]   

 cryst.   s( 6) = (    -1          0          0      )
                  (     0          1          0      )
                  (     0          0          1      )

 cart.    s( 6) = ( -1.0000000  0.0000000  0.0000000 )
                  (  0.0000000  1.0000000  0.0000000 )
                  (  0.0000000  0.0000000  1.0000000 )


      isym =  7     inv. 180 deg rotation - cart. axis [1,1,0]   

 cryst.   s( 7) = (     0         -1          0      )
                  (    -1          0          0      )
                  (     0          0          1      )

 cart.    s( 7) = (  0.0000000 -1.0000000  0.0000000 )
                  ( -1.0000000  0.0000000  0.0000000 )
                  (  0.0000000  0.0000000  1.0000000 )


      isym =  8     inv. 180 deg rotation - cart. axis [1,-1,0]  

 cryst.   s( 8) = (     0          1          0      )
                  (     1          0          0      )
                  (     0          0          1      )

 cart.    s( 8) = (  0.0000000  1.0000000  0.0000000 )
                  (  1.0000000  0.0000000  0.0000000 )
                  (  0.0000000  0.0000000  1.0000000 )


   Cartesian axes

     site n.     atom                  positions (alat units)
         1        Fl     tau(   1) = (   0.0000000   0.0000000   0.0000000  )
         2        Fl     tau(   2) = (   0.0000000   0.0000000   2.8000000  )

     --------------------------------------------
     DFT-D3 Dispersion Correction (3-body terms):
     --------------------------------------------
       Reference C6 values for interpolation: 

         atom   Coordination number   C6

       Values used:

         atom   Coordination number  R0_AB[au]  C6      C8
         Fl         0.000            0.000**********     -0.00
         Fl         0.000            0.000**********     -0.00

         Molecular C6 ( Ry / a.u.^6 ) = ************


   Crystallographic axes

     site n.     atom                  positions (cryst. coord.)
         1        Fl     tau(   1) = (  0.0000000  0.0000000  0.0000000  )
         2        Fl     tau(   2) = (  0.0000000  0.0000000  2.8000000  )

     number of k points=     1  Gaussian smearing, width (Ry)=  0.0200
                       cart. coord. in units 2pi/alat
        k(    1) = (   0.0000000   0.0000000   0.0000000), wk =   1.0000000

                       cryst. coord.
        k(    1) = (   0.0000000   0.0000000   0.0000000), wk =   1.0000000

     Dense  grid:  2201421 G-vectors     FFT dimensions: ( 162, 162, 162)

     Dynamical RAM for                 wfc:     109.18 MB

     Dynamical RAM for     wfc (w. buffer):     109.18 MB

     Dynamical RAM for           str. fact:       8.40 MB

     Dynamical RAM for           local pot:       0.00 MB

     Dynamical RAM for          nlocal pot:     100.78 MB

     Dynamical RAM for                qrad:       7.46 MB

     Dynamical RAM for          rho,v,vnew:     199.28 MB

     Dynamical RAM for               rhoin:      66.43 MB

     Dynamical RAM for            rho*nmix:     537.46 MB

     Dynamical RAM for           G-vectors:      35.69 MB

     Dynamical RAM for          h,s,v(r/c):       0.50 MB

     Dynamical RAM for          <psi|beta>:       0.15 MB

     Dynamical RAM for                 psi:     218.36 MB

     Dynamical RAM for                hpsi:     218.36 MB

     Dynamical RAM for      wfcinit/wfcrot:     163.83 MB

     Estimated static dynamical RAM per process >     609.70 MB

     Estimated max dynamical RAM per process >       1.55 GB

     Estimated total dynamical RAM >       6.19 GB

     Initial potential from superposition of free atoms

     starting charge      43.9858, renormalised to      44.0000

     negative rho (up, down):  8.014E-04 0.000E+00
     Starting wfcs are   52 randomized atomic wfcs

     total cpu time spent up to now is        8.0 secs

     per-process dynamical memory:   667.4 Mb

     Self-consistent Calculation

     iteration #  1     ecut=    80.00 Ry     beta= 0.30
     Davidson diagonalization with overlap

---- Real-time Memory Report at c_bands before calling an iterative solver
           741 MiB given to the printing process from OS
           751 MiB allocation reported by mallinfo(arena+hblkhd)
          4550 MiB available memory on the node where the printing process lives
------------------
     ethr =  1.00E-02,  avg # of iterations =  2.0

     Threshold (ethr) on eigenvalues was too large:
     Diagonalizing with lowered threshold

     Davidson diagonalization with overlap

---- Real-time Memory Report at c_bands before calling an iterative solver
          1106 MiB given to the printing process from OS
           773 MiB allocation reported by mallinfo(arena+hblkhd)
          4225 MiB available memory on the node where the printing process lives
------------------
     ethr =  2.35E-04,  avg # of iterations =  4.0

     negative rho (up, down):  5.423E-04 0.000E+00

     total cpu time spent up to now is       43.0 secs

     total energy              =              NaN Ry
     estimated scf accuracy    <       0.10985847 Ry

     iteration #  2     ecut=    80.00 Ry     beta= 0.30
     Davidson diagonalization with overlap

---- Real-time Memory Report at c_bands before calling an iterative solver
          1369 MiB given to the printing process from OS
           807 MiB allocation reported by mallinfo(arena+hblkhd)
          4091 MiB available memory on the node where the printing process lives
------------------
     ethr =  2.50E-04,  avg # of iterations =  2.0

     negative rho (up, down):  2.055E-04 0.000E+00

     total cpu time spent up to now is       61.2 secs

     total energy              =              NaN Ry
     estimated scf accuracy    <       0.03215017 Ry

     iteration #  3     ecut=    80.00 Ry     beta= 0.30
     Davidson diagonalization with overlap

---- Real-time Memory Report at c_bands before calling an iterative solver
          1437 MiB given to the printing process from OS
           874 MiB allocation reported by mallinfo(arena+hblkhd)
          3813 MiB available memory on the node where the printing process lives
------------------
     ethr =  7.31E-05,  avg # of iterations =  5.0

     negative rho (up, down):  3.539E-05 0.000E+00

     total cpu time spent up to now is       81.7 secs

     total energy              =              NaN Ry
     estimated scf accuracy    <       0.00355684 Ry

     iteration #  4     ecut=    80.00 Ry     beta= 0.30
     Davidson diagonalization with overlap

---- Real-time Memory Report at c_bands before calling an iterative solver
          1504 MiB given to the printing process from OS
           942 MiB allocation reported by mallinfo(arena+hblkhd)
          3545 MiB available memory on the node where the printing process lives
------------------
     ethr =  8.08E-06,  avg # of iterations =  3.0

     negative rho (up, down):  2.921E-05 0.000E+00

     total cpu time spent up to now is      102.7 secs

     total energy              =              NaN Ry
     estimated scf accuracy    <       0.00031595 Ry

     iteration #  5     ecut=    80.00 Ry     beta= 0.30
     Davidson diagonalization with overlap

---- Real-time Memory Report at c_bands before calling an iterative solver
          1571 MiB given to the printing process from OS
          1009 MiB allocation reported by mallinfo(arena+hblkhd)
          3280 MiB available memory on the node where the printing process lives
------------------
     ethr =  7.18E-07,  avg # of iterations = 13.0

     negative rho (up, down):  8.359E-06 0.000E+00

     total cpu time spent up to now is      125.2 secs

     total energy              =              NaN Ry
     estimated scf accuracy    <       0.00013100 Ry

     iteration #  6     ecut=    80.00 Ry     beta= 0.30
     Davidson diagonalization with overlap

---- Real-time Memory Report at c_bands before calling an iterative solver
          1638 MiB given to the printing process from OS
          1076 MiB allocation reported by mallinfo(arena+hblkhd)
          3014 MiB available memory on the node where the printing process lives
------------------
     ethr =  2.98E-07,  avg # of iterations =  2.0

     negative rho (up, down):  2.251E-06 0.000E+00

     total cpu time spent up to now is      145.6 secs

     total energy              =              NaN Ry
     estimated scf accuracy    <       0.00001582 Ry

     iteration #  7     ecut=    80.00 Ry     beta= 0.30
     Davidson diagonalization with overlap

---- Real-time Memory Report at c_bands before calling an iterative solver
          1706 MiB given to the printing process from OS
          1143 MiB allocation reported by mallinfo(arena+hblkhd)
          2749 MiB available memory on the node where the printing process lives
------------------
     ethr =  3.60E-08,  avg # of iterations =  2.0

     negative rho (up, down):  1.015E-06 0.000E+00

     total cpu time spent up to now is      164.0 secs

     total energy              =              NaN Ry
     estimated scf accuracy    <       0.00000791 Ry

     iteration #  8     ecut=    80.00 Ry     beta= 0.30
     Davidson diagonalization with overlap

---- Real-time Memory Report at c_bands before calling an iterative solver
          1773 MiB given to the printing process from OS
          1210 MiB allocation reported by mallinfo(arena+hblkhd)
          2668 MiB available memory on the node where the printing process lives
------------------
     ethr =  1.80E-08,  avg # of iterations =  2.0

     negative rho (up, down):  7.124E-08 0.000E+00

     total cpu time spent up to now is      184.2 secs

     total energy              =              NaN Ry
     estimated scf accuracy    <       0.00000087 Ry

     iteration #  9     ecut=    80.00 Ry     beta= 0.30
     Davidson diagonalization with overlap

---- Real-time Memory Report at c_bands before calling an iterative solver
          1781 MiB given to the printing process from OS
          1277 MiB allocation reported by mallinfo(arena+hblkhd)
          2680 MiB available memory on the node where the printing process lives
------------------
     ethr =  1.99E-09,  avg # of iterations =  2.0

     total cpu time spent up to now is      205.3 secs

     total energy              =              NaN Ry
     estimated scf accuracy    <       0.00000015 Ry

     iteration # 10     ecut=    80.00 Ry     beta= 0.30
     Davidson diagonalization with overlap

---- Real-time Memory Report at c_bands before calling an iterative solver
          1810 MiB given to the printing process from OS
          1345 MiB allocation reported by mallinfo(arena+hblkhd)
          2689 MiB available memory on the node where the printing process lives
------------------
     ethr =  3.36E-10,  avg # of iterations =  2.0

     total cpu time spent up to now is      226.8 secs

     total energy              =              NaN Ry
     estimated scf accuracy    <          1.1E-09 Ry

     iteration # 11     ecut=    80.00 Ry     beta= 0.30
     Davidson diagonalization with overlap

---- Real-time Memory Report at c_bands before calling an iterative solver
          1810 MiB given to the printing process from OS
          1345 MiB allocation reported by mallinfo(arena+hblkhd)
          2537 MiB available memory on the node where the printing process lives
------------------
     ethr =  2.56E-12,  avg # of iterations =  4.0

     total cpu time spent up to now is      251.8 secs

     total energy              =              NaN Ry
     estimated scf accuracy    <          3.4E-09 Ry

     iteration # 12     ecut=    80.00 Ry     beta= 0.30
     Davidson diagonalization with overlap

---- Real-time Memory Report at c_bands before calling an iterative solver
          1810 MiB given to the printing process from OS
          1345 MiB allocation reported by mallinfo(arena+hblkhd)
          2638 MiB available memory on the node where the printing process lives
------------------
     ethr =  2.56E-12,  avg # of iterations =  3.0

     total cpu time spent up to now is      272.0 secs

     End of self-consistent calculation

          k = 0.0000 0.0000 0.0000 (274961 PWs)   bands (ev):

  -160.0782-160.0782-160.0780-160.0780-116.9075-116.9075-116.9069-116.9069
   -63.9230 -63.9230 -63.9122 -63.9122 -63.9081 -63.9081 -63.8894 -63.8894
   -16.8899 -16.8899 -16.7528 -16.7528 -16.7293 -16.7293 -16.7197 -16.7197
   -14.1659 -14.1659 -12.8569 -12.8569 -12.7073 -12.7073 -12.5916 -12.5916
   -12.5242 -12.5242 -12.4481 -12.4481 -12.2961 -12.2961 -12.0045 -12.0045
    -4.9226  -4.9226  -4.5901  -4.5901  -1.7590  -1.7590  -0.9787  -0.9787
    -0.2348  -0.2348  -0.0966  -0.0966

     occupation numbers 
     1.0000   1.0000   1.0000   1.0000   1.0000   1.0000   1.0000   1.0000
     1.0000   1.0000   1.0000   1.0000   1.0000   1.0000   1.0000   1.0000
     1.0000   1.0000   1.0000   1.0000   1.0000   1.0000   1.0000   1.0000
     1.0000   1.0000   1.0000   1.0000   1.0000   1.0000   1.0000   1.0000
     1.0000   1.0000   1.0000   1.0000   1.0000   1.0000   1.0000   1.0000
     1.0000   1.0000   1.0000   1.0000   0.0000   0.0000   0.0000   0.0000
     0.0000   0.0000   0.0000   0.0000

     the Fermi energy is    -3.1911 ev

!    total energy              =              NaN Ry
     estimated scf accuracy    <          1.7E-10 Ry
     smearing contrib. (-TS)   =      -0.00000000 Ry
     internal energy E=F+TS    =              NaN Ry

     The total energy is F=E-TS. E is the sum of the following terms:
     one-electron contribution =   -1175.40736429 Ry
     hartree contribution      =     558.51758723 Ry
     xc contribution           =    -133.39857596 Ry
     ewald contribution        =     -20.00484641 Ry
     DFT-D3 Dispersion         =              NaN Ry

     convergence has been achieved in  12 iterations

     Writing all to output data dir ./pwscf.save/ :
     XML data file, charge density, pseudopotentials, collected wavefunctions

     init_run     :      7.10s CPU      7.85s WALL (       1 calls)
     electrons    :    249.73s CPU    264.33s WALL (       1 calls)

     Called by init_run:
     wfcinit      :      5.32s CPU      5.70s WALL (       1 calls)
     wfcinit:atom :      0.05s CPU      0.13s WALL (       1 calls)
     wfcinit:wfcr :      4.92s CPU      5.18s WALL (       1 calls)
     potinit      :      0.68s CPU      0.91s WALL (       1 calls)
     hinit0       :      0.13s CPU      0.18s WALL (       1 calls)

     Called by electrons:
     c_bands      :    192.97s CPU    199.24s WALL (      13 calls)
     sum_band     :     36.17s CPU     37.42s WALL (      13 calls)
     v_of_rho     :      8.05s CPU      9.44s WALL (      13 calls)
     v_h          :      0.79s CPU      0.93s WALL (      13 calls)
     v_xc         :      7.26s CPU      8.51s WALL (      13 calls)
     mix_rho      :     12.12s CPU     17.66s WALL (      13 calls)
     energy_dftd3 :      0.00s CPU      0.00s WALL (       1 calls)

     Called by c_bands:
     init_us_2    :      1.79s CPU      2.02s WALL (      27 calls)
     cegterg      :    177.16s CPU    183.34s WALL (      13 calls)

     Called by sum_band:
     sum_band:wei :      0.00s CPU      0.00s WALL (      13 calls)
     sum_band:loo :     30.86s CPU     31.69s WALL (      13 calls)
     sum_band:buf :      0.00s CPU      0.00s WALL (      13 calls)
     sum_band:ini :      0.86s CPU      0.95s WALL (      13 calls)

     Called by *egterg:
     cdiaghg      :      0.13s CPU      0.19s WALL (      58 calls)
     cegterg:over :      7.74s CPU      7.77s WALL (      46 calls)
     cegterg:upda :      4.52s CPU      5.07s WALL (      46 calls)
     cegterg:last :      6.32s CPU      6.32s WALL (      27 calls)
     h_psi        :    158.92s CPU    164.17s WALL (      60 calls)
     g_psi        :      0.49s CPU      0.49s WALL (      46 calls)

     Called by h_psi:
     h_psi:calbec :      5.09s CPU      5.09s WALL (      60 calls)
     vloc_psi     :    147.81s CPU    151.88s WALL (      60 calls)
                                        0.00s GPU  (      60 calls)
     add_vuspsi   :      5.11s CPU      5.11s WALL (      60 calls)

     General routines
     calbec       :      5.09s CPU      5.09s WALL (      60 calls)
     fft          :      8.10s CPU      9.10s WALL (     206 calls)
     ffts         :      1.93s CPU      2.08s WALL (      52 calls)
     fftw         :    140.13s CPU    144.47s WALL (    8516 calls)

     Parallel routines

     PWSCF        :   4m17.07s CPU   4m33.19s WALL


   This run was terminated on:  22:31:56  10May2025            

=------------------------------------------------------------------------------=
   JOB DONE.
=------------------------------------------------------------------------------=
