
     Program PWSCF v.7.1 starts on  9Jul2022 at 17: 9: 5 
        Git branch: develop
        Last git commit: d50f574154e75c88044778d91e67d6e00f487b1e
        Last git commit date: Mon Jun 20 17:16:00 2022 +0000
        Last git commit subject: Merge branch 'small-doc-fixes' into 'develop'

     This program is part of the open-source Quantum ESPRESSO suite
     for quantum simulation of materials; please cite
         "P. Giannozzi et al., J. Phys.:Condens. Matter 21 395502 (2009);
         "P. Giannozzi et al., J. Phys.:Condens. Matter 29 465901 (2017);
         "P. Giannozzi et al., J. Chem. Phys. 152 154105 (2020);
          URL http://www.quantum-espresso.org", 
     in publications or presentations arising from this work. More details at
     http://www.quantum-espresso.org/quote

     Parallel version (MPI & OpenMP), running on       4 processor cores
     Number of MPI processes:                 4
     Threads/MPI process:                     1

     MPI processes distributed on     1 nodes
     123963 MiB available memory on the printing compute node when the environment starts
 
     Waiting for input...
     Reading input from standard input

     Current dimensions of program PWSCF are:
     Max number of different atomic species (ntypx) = 10
     Max number of k-points (npk) =  40000
     Max angular momentum in pseudopotentials (lmaxx) =  4

    ============================================================
    |  pseudopotential report for atomic species:  2           |
    |        pseudo potential version   7   3   2              |
    ------------------------------------------------------------
    |  hydrogen            PBE                  exchange-corr  |
    |  z =   1.    zv( 2) =   1.    exfact =   5.00000         |
    |  ifpcor =  0           atomic energy =  -0.91772 Ry      |
    |  index    orbital      occupation    energy              |
    |    1        100           1.00       -0.48               |
    |  rinner =  0.5000                                        |
    |    new generation scheme:                                |
    |    nbeta =  1     kkbeta =  271     rcloc =    0.6000    |
    |    ibeta    l     epsilon   rcut                         |
    |      1       0      -0.48   0.80                         |
    ============================================================
 
     R & G space division:  proc/nbgrp/npool/nimage =       4
     Subspace diagonalization in iterative solution of the eigenvalue problem:
     a serial algorithm will be used

 
     Parallelization info
     --------------------
     sticks:   dense  smooth     PW     G-vecs:    dense   smooth      PW
     Min        1016    1016    277               103947   103947   14767
     Max        1017    1017    278               103950   103950   14774
     Sum        4067    4067   1111               415795   415795   59085
 
     Using Slab Decomposition
 


     bravais-lattice index     =            8
     lattice parameter (alat)  =      29.2337  a.u.
     unit-cell volume          =   18737.6348 (a.u.)^3
     number of atoms/cell      =           56
     number of atomic types    =            2
     number of electrons       =       176.00
     number of Kohn-Sham states=          106
     kinetic-energy cutoff     =      30.0000  Ry
     charge density cutoff     =     120.0000  Ry
     scf convergence threshold =      1.0E-07
     mixing beta               =       0.7000
     number of iterations used =            8  plain     mixing
     energy convergence thresh.=      5.0E-05
     force convergence thresh. =      5.0E-04
     Exchange-correlation= PBE
                           (   1   4   3   4   0   0   0)
     nstep                     =          200


     GPU acceleration is ACTIVE.


     celldm(1)=  29.233748  celldm(2)=   0.500000  celldm(3)=   1.500000
     celldm(4)=   0.000000  celldm(5)=   0.000000  celldm(6)=   0.000000

     crystal axes: (cart. coord. in units of alat)
               a(1) = (   1.000000   0.000000   0.000000 )  
               a(2) = (   0.000000   0.500000   0.000000 )  
               a(3) = (   0.000000   0.000000   1.500000 )  

     reciprocal axes: (cart. coord. in units 2 pi/alat)
               b(1) = (  1.000000  0.000000  0.000000 )  
               b(2) = (  0.000000  2.000000  0.000000 )  
               b(3) = (  0.000000  0.000000  0.666667 )  


     PseudoPot. # 1 for Si read from file:
     ./Si_r.upf
     MD5 check sum: c84abb4b0aac9c93a8e9f74896432a0a
     Pseudo is Norm-conserving + core correction, Zval =  4.0
     Generated using ONCVPSP code by D. R. Hamann
     Using radial grid of 1528 points,  6 beta functions with: 
                l(1) =   0
                l(2) =   0
                l(3) =   1
                l(4) =   1
                l(5) =   2
                l(6) =   2

     PseudoPot. # 2 for hy read from file:
     ./H_US.van
     MD5 check sum: a9a9bfe98ff56cf4de197d71fc46bb44
     Pseudo is Ultrasoft, Zval =  1.0
     Generated by Vanderbilt code, v. 7.3.2
     Using radial grid of  399 points,  1 beta functions with: 
                l(1) =   0
     Q(r) pseudized with  8 coefficients,  rinner =    0.500

     atomic species   valence    mass     pseudopotential
        Si             4.00    28.08550     Si( 1.00)
        H              1.00     1.00784     hy( 1.00)

     No symmetry found



   Cartesian axes

     site n.     atom                  positions (alat units)
         1           H   tau(   1) = (   0.0000000  -0.0675500  -0.0675500  )
         2           H   tau(   2) = (   0.0000000   0.0675500  -0.0675500  )
         3           H   tau(   3) = (   0.2500000  -0.0675500  -0.0675500  )
         4           H   tau(   4) = (   0.2500000   0.0675500  -0.0675500  )
         5           H   tau(   5) = (   0.2500000   0.1824500  -0.0675500  )
         6           H   tau(   6) = (   0.2500000   0.3175500  -0.0675500  )
         7           H   tau(   7) = (   0.5000000   0.1824500  -0.0675500  )
         8           H   tau(   8) = (   0.5000000   0.3175500  -0.0675500  )
         9           H   tau(   9) = (   0.7500000   0.1824500  -0.0675500  )
        10           H   tau(  10) = (   0.7500000   0.3175500  -0.0675500  )
        11           H   tau(  11) = (   0.0000000   0.1824500  -0.0675500  )
        12           H   tau(  12) = (   0.0000000   0.3175500  -0.0675500  )
        13           H   tau(  13) = (   0.5000000  -0.0675500  -0.0675500  )
        14           H   tau(  14) = (   0.5000000   0.0675500  -0.0675500  )
        15           H   tau(  15) = (   0.7500000  -0.0675500  -0.0675500  )
        16           H   tau(  16) = (   0.7500000   0.0675500  -0.0675500  )
        17           Si  tau(  17) = (   0.0000000   0.0000000   0.0000000  )
        18           Si  tau(  18) = (   0.2500000   0.0000000   0.0000000  )
        19           Si  tau(  19) = (   0.0000000   0.2500000   0.0000000  )
        20           Si  tau(  20) = (   0.2500000   0.2500000   0.0000000  )
        21           Si  tau(  21) = (   0.5000000   0.0000000   0.0000000  )
        22           Si  tau(  22) = (   0.7500000   0.0000000   0.0000000  )
        23           Si  tau(  23) = (   0.5000000   0.2500000   0.0000000  )
        24           Si  tau(  24) = (   0.7500000   0.2500000   0.0000000  )
        25           Si  tau(  25) = (   0.1250000   0.0000000   0.0883883  )
        26           Si  tau(  26) = (   0.3750000   0.0000000   0.0883883  )
        27           Si  tau(  27) = (   0.1250000   0.2500000   0.0883883  )
        28           Si  tau(  28) = (   0.3750000   0.2500000   0.0883883  )
        29           Si  tau(  29) = (   0.6250000   0.0000000   0.0883883  )
        30           Si  tau(  30) = (   0.8750000   0.0000000   0.0883883  )
        31           Si  tau(  31) = (   0.6250000   0.2500000   0.0883883  )
        32           Si  tau(  32) = (   0.8750000   0.2500000   0.0883883  )
        33           Si  tau(  33) = (   0.6250000   0.3750000   0.1767767  )
        34           Si  tau(  34) = (   0.1250000   0.1250000   0.1767767  )
        35           Si  tau(  35) = (   0.3750000   0.1250000   0.1767767  )
        36           Si  tau(  36) = (   0.3750000   0.3750000   0.1767767  )
        37           Si  tau(  37) = (   0.8750000   0.1250000   0.1767767  )
        38           Si  tau(  38) = (   0.8750000   0.3750000   0.1767767  )
        39           Si  tau(  39) = (   0.1250000   0.3750000   0.1767767  )
        40           Si  tau(  40) = (   0.6250000   0.1250000   0.1767767  )
        41           Si  tau(  41) = (   0.7500000   0.3750000   0.2651650  )
        42           Si  tau(  42) = (   0.2500000   0.1250000   0.2651650  )
        43           Si  tau(  43) = (   0.5000000   0.1250000   0.2651650  )
        44           Si  tau(  44) = (   0.5000000   0.3750000   0.2651650  )
        45           Si  tau(  45) = (   0.0000000   0.1250000   0.2651650  )
        46           Si  tau(  46) = (   0.0000000   0.3750000   0.2651650  )
        47           Si  tau(  47) = (   0.2500000   0.3750000   0.2651650  )
        48           Si  tau(  48) = (   0.7500000   0.1250000   0.2651650  )
        49           Si  tau(  49) = (   0.0010000   0.0000000   0.3535534  )
        50           Si  tau(  50) = (   0.2490000   0.0000000   0.3535534  )
        51           Si  tau(  51) = (   0.0020000   0.2500000   0.3535534  )
        52           Si  tau(  52) = (   0.2480000   0.2500000   0.3535534  )
        53           Si  tau(  53) = (   0.5020000   0.0000000   0.3535534  )
        54           Si  tau(  54) = (   0.7490000   0.0000000   0.3535534  )
        55           Si  tau(  55) = (   0.5010000   0.2500000   0.3535534  )
        56           Si  tau(  56) = (   0.7470000   0.2500000   0.3535534  )

     number of k points=     6  Gaussian smearing, width (Ry)=  0.0050
                       cart. coord. in units 2pi/alat
        k(    1) = (   0.0000000   0.0000000   0.0000000), wk =   0.2500000
        k(    2) = (   0.0000000   0.5000000   0.0000000), wk =   0.5000000
        k(    3) = (   0.0000000  -1.0000000   0.0000000), wk =   0.2500000
        k(    4) = (  -0.5000000   0.0000000   0.0000000), wk =   0.2500000
        k(    5) = (  -0.5000000   0.5000000   0.0000000), wk =   0.5000000
        k(    6) = (  -0.5000000  -1.0000000   0.0000000), wk =   0.2500000

     Dense  grid:   415795 G-vectors     FFT dimensions: ( 108,  54, 160)

     Estimated max dynamical RAM per process >     486.70 MB

     Estimated total dynamical RAM >       1.90 GB

     Initial potential from superposition of free atoms

     starting charge     175.9753, renormalised to     176.0000

     negative rho (up, down):  1.152E-02 0.000E+00
     Starting wfcs are  176 randomized atomic wfcs

     total cpu time spent up to now is       10.5 secs

     per-process dynamical memory:   685.8 Mb

     Self-consistent Calculation

     iteration #  1     ecut=    30.00 Ry     beta= 0.70
     Davidson diagonalization with overlap
     ethr =  1.00E-02,  avg # of iterations =  3.0

     negative rho (up, down):  1.467E-02 0.000E+00

     total cpu time spent up to now is       16.1 secs

     total energy              =    -355.06881529 Ry
     estimated scf accuracy    <       2.08166342 Ry

     iteration #  2     ecut=    30.00 Ry     beta= 0.70
     Davidson diagonalization with overlap
     ethr =  1.18E-03,  avg # of iterations =  6.7

     negative rho (up, down):  1.441E-02 0.000E+00

     total cpu time spent up to now is       22.1 secs

     total energy              =    -352.35087630 Ry
     estimated scf accuracy    <      18.21527676 Ry

     iteration #  3     ecut=    30.00 Ry     beta= 0.70
     Davidson diagonalization with overlap
     ethr =  1.18E-03,  avg # of iterations =  7.0

     negative rho (up, down):  1.494E-02 0.000E+00

     total cpu time spent up to now is       28.4 secs

     total energy              =    -355.15851453 Ry
     estimated scf accuracy    <       5.43859333 Ry

     iteration #  4     ecut=    30.00 Ry     beta= 0.70
     Davidson diagonalization with overlap
     ethr =  1.18E-03,  avg # of iterations =  2.5

     negative rho (up, down):  1.548E-02 0.000E+00

     total cpu time spent up to now is       32.7 secs

     total energy              =    -355.39054279 Ry
     estimated scf accuracy    <       0.97533328 Ry

     iteration #  5     ecut=    30.00 Ry     beta= 0.70
     Davidson diagonalization with overlap
     ethr =  5.54E-04,  avg # of iterations =  2.7

     negative rho (up, down):  1.568E-02 0.000E+00

     total cpu time spent up to now is       37.0 secs

     total energy              =    -355.36837700 Ry
     estimated scf accuracy    <       2.66630467 Ry

     iteration #  6     ecut=    30.00 Ry     beta= 0.70
     Davidson diagonalization with overlap
     ethr =  5.54E-04,  avg # of iterations =  2.0

     negative rho (up, down):  1.608E-02 0.000E+00

     total cpu time spent up to now is       40.9 secs

     total energy              =    -355.46059709 Ry
     estimated scf accuracy    <       0.31577588 Ry

     iteration #  7     ecut=    30.00 Ry     beta= 0.70
     Davidson diagonalization with overlap
     ethr =  1.79E-04,  avg # of iterations =  4.0

     negative rho (up, down):  1.619E-02 0.000E+00

     total cpu time spent up to now is       45.3 secs

     total energy              =    -355.47413995 Ry
     estimated scf accuracy    <       0.11357278 Ry

     iteration #  8     ecut=    30.00 Ry     beta= 0.70
     Davidson diagonalization with overlap
     ethr =  6.45E-05,  avg # of iterations =  8.2

     negative rho (up, down):  1.624E-02 0.000E+00

     total cpu time spent up to now is       50.1 secs

     total energy              =    -355.47530137 Ry
     estimated scf accuracy    <       0.08362306 Ry

     iteration #  9     ecut=    30.00 Ry     beta= 0.70
     Davidson diagonalization with overlap
     ethr =  4.75E-05,  avg # of iterations =  4.0

     negative rho (up, down):  1.632E-02 0.000E+00

     total cpu time spent up to now is       54.3 secs

     total energy              =    -355.47528379 Ry
     estimated scf accuracy    <       0.08357111 Ry

     iteration # 10     ecut=    30.00 Ry     beta= 0.70
     Davidson diagonalization with overlap
     ethr =  4.75E-05,  avg # of iterations =  3.5

     negative rho (up, down):  1.647E-02 0.000E+00

     total cpu time spent up to now is       58.4 secs

     total energy              =    -355.47562990 Ry
     estimated scf accuracy    <       0.01495371 Ry

     iteration # 11     ecut=    30.00 Ry     beta= 0.70
     Davidson diagonalization with overlap
     c_bands:  1 eigenvalues not converged
     c_bands:  2 eigenvalues not converged
     ethr =  8.50E-06,  avg # of iterations = 13.5

     negative rho (up, down):  1.653E-02 0.000E+00

     total cpu time spent up to now is       65.7 secs

     total energy              =    -355.47683684 Ry
     estimated scf accuracy    <       0.00523348 Ry

     iteration # 12     ecut=    30.00 Ry     beta= 0.70
     Davidson diagonalization with overlap
     c_bands:  1 eigenvalues not converged
     c_bands:  2 eigenvalues not converged
     ethr =  2.97E-06,  avg # of iterations = 11.2

     negative rho (up, down):  1.652E-02 0.000E+00

     total cpu time spent up to now is       71.4 secs

     total energy              =    -355.47744892 Ry
     estimated scf accuracy    <       0.00259602 Ry

     iteration # 13     ecut=    30.00 Ry     beta= 0.70
     Davidson diagonalization with overlap
     ethr =  1.48E-06,  avg # of iterations =  7.0

     negative rho (up, down):  1.652E-02 0.000E+00

     total cpu time spent up to now is       76.3 secs

     total energy              =    -355.47759743 Ry
     estimated scf accuracy    <       0.00143048 Ry

     iteration # 14     ecut=    30.00 Ry     beta= 0.70
     Davidson diagonalization with overlap
     ethr =  8.13E-07,  avg # of iterations =  1.2

     negative rho (up, down):  1.652E-02 0.000E+00

     total cpu time spent up to now is       80.1 secs

     total energy              =    -355.47770029 Ry
     estimated scf accuracy    <       0.00060998 Ry

     iteration # 15     ecut=    30.00 Ry     beta= 0.70
     Davidson diagonalization with overlap
     ethr =  3.47E-07,  avg # of iterations =  2.0

     negative rho (up, down):  1.652E-02 0.000E+00

     total cpu time spent up to now is       84.2 secs

     total energy              =    -355.47771291 Ry
     estimated scf accuracy    <       0.00049004 Ry

     iteration # 16     ecut=    30.00 Ry     beta= 0.70
     Davidson diagonalization with overlap
     ethr =  2.78E-07,  avg # of iterations =  1.0

     negative rho (up, down):  1.652E-02 0.000E+00

     total cpu time spent up to now is       88.0 secs

     total energy              =    -355.47774923 Ry
     estimated scf accuracy    <       0.00021877 Ry

     iteration # 17     ecut=    30.00 Ry     beta= 0.70
     Davidson diagonalization with overlap
     ethr =  1.24E-07,  avg # of iterations =  2.0

     negative rho (up, down):  1.652E-02 0.000E+00

     total cpu time spent up to now is       92.1 secs

     total energy              =    -355.47776042 Ry
     estimated scf accuracy    <       0.00006649 Ry

     iteration # 18     ecut=    30.00 Ry     beta= 0.70
     Davidson diagonalization with overlap
     ethr =  3.78E-08,  avg # of iterations =  1.8

     negative rho (up, down):  1.652E-02 0.000E+00

     total cpu time spent up to now is       96.1 secs

     total energy              =    -355.47776601 Ry
     estimated scf accuracy    <       0.00000669 Ry

     iteration # 19     ecut=    30.00 Ry     beta= 0.70
     Davidson diagonalization with overlap
     ethr =  3.80E-09,  avg # of iterations =  4.0

     negative rho (up, down):  1.652E-02 0.000E+00

     total cpu time spent up to now is      101.0 secs

     total energy              =    -355.47775904 Ry
     estimated scf accuracy    <       0.00024648 Ry

     iteration # 20     ecut=    30.00 Ry     beta= 0.70
     Davidson diagonalization with overlap
     ethr =  3.80E-09,  avg # of iterations =  2.0

     negative rho (up, down):  1.652E-02 0.000E+00

     total cpu time spent up to now is      105.2 secs

     total energy              =    -355.47776701 Ry
     estimated scf accuracy    <       0.00000119 Ry

     iteration # 21     ecut=    30.00 Ry     beta= 0.70
     Davidson diagonalization with overlap
     ethr =  6.75E-10,  avg # of iterations =  3.3

     negative rho (up, down):  1.652E-02 0.000E+00

     total cpu time spent up to now is      109.9 secs

     total energy              =    -355.47776719 Ry
     estimated scf accuracy    <       0.00000137 Ry

     iteration # 22     ecut=    30.00 Ry     beta= 0.70
     Davidson diagonalization with overlap
     ethr =  6.75E-10,  avg # of iterations =  2.0

     negative rho (up, down):  1.652E-02 0.000E+00

     total cpu time spent up to now is      114.1 secs

     total energy              =    -355.47776731 Ry
     estimated scf accuracy    <       0.00000044 Ry

     iteration # 23     ecut=    30.00 Ry     beta= 0.70
     Davidson diagonalization with overlap
     ethr =  2.49E-10,  avg # of iterations =  2.0

     negative rho (up, down):  1.652E-02 0.000E+00

     total cpu time spent up to now is      118.3 secs

     total energy              =    -355.47776735 Ry
     estimated scf accuracy    <       0.00000021 Ry

     iteration # 24     ecut=    30.00 Ry     beta= 0.70
     Davidson diagonalization with overlap
     ethr =  1.18E-10,  avg # of iterations =  2.0

     negative rho (up, down):  1.652E-02 0.000E+00

     total cpu time spent up to now is      122.4 secs

     End of self-consistent calculation

          k = 0.0000 0.0000 0.0000 ( 52087 PWs)   bands (ev):

   -12.9563 -12.4664 -12.4381 -11.5994 -11.3160 -11.2898 -11.2789 -11.1987
   -11.1820 -10.9330 -10.7812 -10.7687 -10.7601 -10.7301 -10.4020  -9.8438
    -9.8346  -9.7531  -9.4940  -9.3480  -9.2680  -9.1871  -9.0117  -8.7442
    -8.7082  -8.3058  -8.0542  -8.0414  -7.8974  -7.8928  -7.8873  -7.8540
    -7.7958  -7.3915  -7.3760  -7.3643  -7.0497  -6.4095  -6.3742  -6.3741
    -6.2585  -6.2500  -6.2133  -5.5107  -5.1301  -4.8976  -4.7975  -4.7765
    -4.7674  -4.6897  -4.6289  -4.6191  -4.5795  -4.5778  -4.5773  -4.5448
    -4.5042  -4.4595  -4.4505  -4.1291  -4.1057  -4.1007  -4.0739  -4.0592
    -3.9841  -3.9380  -3.7940  -3.7753  -3.3238  -3.2158  -3.1435  -3.1290
    -2.8982  -2.8653  -2.6919  -2.6144  -2.5979  -2.4609  -2.4269  -2.4165
    -2.4157  -2.2968  -2.2916  -2.2777  -2.2232  -2.0337  -1.9933  -1.9449
    -1.8914  -1.8592  -1.1731  -1.0736  -1.0624  -1.0026  -0.4447  -0.2987
    -0.0887   0.1974   0.2061   0.2440   0.2554   0.2762   0.3261   0.3964
     0.6557   0.7364

          k = 0.0000 0.5000 0.0000 ( 52005 PWs)   bands (ev):

   -12.8298 -12.3387 -12.3106 -11.8955 -11.4985 -11.3919 -11.3667 -11.1812
   -11.0912 -11.0746 -11.0256 -10.7982 -10.5420 -10.5252 -10.2980 -10.1401
    -9.8030  -9.7204  -9.7108  -9.6319  -9.6153  -8.9944  -8.8744  -8.8529
    -8.4445  -8.2993  -8.2792  -8.2537  -7.7876  -7.6537  -7.4767  -7.4327
    -7.4191  -7.1425  -7.0990  -7.0837  -6.9923  -6.1948  -6.1856  -5.9357
    -5.9093  -5.9091  -5.8215  -5.5649  -5.3581  -5.1602  -5.0248  -5.0227
    -4.9678  -4.9259  -4.8956  -4.8770  -4.8283  -4.8202  -4.6398  -4.5127
    -4.4358  -4.4242  -4.4227  -4.3898  -4.2323  -4.2284  -4.2102  -4.1862
    -3.8430  -3.6871  -3.6839  -3.6796  -3.6778  -3.6436  -3.5017  -3.4998
    -3.4887  -3.3302  -3.1870  -3.0258  -3.0134  -3.0132  -2.5750  -2.5246
    -2.4606  -2.3591  -2.3249  -2.3115  -2.2979  -1.9728  -1.9530  -1.9051
    -1.8292  -1.7841  -1.2582  -1.1597  -0.9689  -0.9029  -0.2110   0.3196
     0.3628   0.3802   0.4748   0.6139   0.6482   0.6709   0.8412   0.8553
     0.9470   1.0386

          k = 0.0000-1.0000 0.0000 ( 51922 PWs)   bands (ev):

   -12.4609 -12.4608 -11.9659 -11.9656 -11.9389 -11.9382 -11.2382 -11.2381
   -10.8070 -10.8058 -10.7909 -10.7894 -10.7824 -10.7821 -10.4024 -10.4023
   -10.0093 -10.0089  -9.3653  -9.3651  -9.3539  -9.3535  -9.2978  -9.2975
    -7.9011  -7.8995  -7.8794  -7.8779  -7.7686  -7.7684  -7.7482  -7.7482
    -7.0116  -7.0115  -6.2602  -6.2531  -6.2459  -6.2393  -6.0288  -6.0284
    -5.7839  -5.7837  -5.2252  -5.2234  -5.2163  -5.2147  -5.1607  -5.1598
    -5.1595  -5.1576  -5.1567  -5.1541  -4.8631  -4.8631  -4.7203  -4.7193
    -4.7156  -4.7154  -4.7008  -4.7001  -4.6015  -4.6009  -4.2775  -4.2772
    -4.0826  -4.0794  -4.0737  -4.0706  -4.0514  -4.0512  -3.5737  -3.5735
    -3.4268  -3.4235  -3.4177  -3.4142  -3.3710  -3.3709  -2.5025  -2.5021
    -2.1409  -2.1288  -2.0865  -2.0861  -2.0773  -2.0730  -2.0444  -2.0333
    -1.9976  -1.9975  -1.1562  -1.1402  -1.0756  -1.0591   0.0894   0.0895
     0.5039   0.5051   0.7849   0.7853   0.9002   0.9004   0.9812   0.9814
     1.1093   1.1105

          k =-0.5000 0.0000 0.0000 ( 51914 PWs)   bands (ev):

   -12.8284 -12.8280 -11.8674 -11.8663 -11.4908 -11.4904 -11.1596 -11.1591
   -11.1443 -11.1441 -10.8312 -10.8301 -10.2012 -10.2007 -10.1644 -10.1642
   -10.1040 -10.1027  -9.7514  -9.7512  -8.9331  -8.9323  -8.6536  -8.6529
    -8.4041  -8.4037  -8.3675  -8.3651  -7.9069  -7.9066  -7.8290  -7.8288
    -7.5762  -7.5752  -7.3671  -7.3671  -6.9086  -6.9067  -6.3927  -6.3923
    -6.3033  -6.3028  -5.3952  -5.3941  -5.1939  -5.1929  -5.0797  -5.0796
    -4.9780  -4.9764  -4.6296  -4.6294  -4.4814  -4.4811  -4.3958  -4.3950
    -4.3465  -4.3460  -4.0390  -4.0386  -4.0307  -4.0306  -4.0003  -3.9996
    -3.6266  -3.6254  -3.5357  -3.5346  -3.4925  -3.4922  -3.4353  -3.4352
    -3.2712  -3.2709  -2.9844  -2.9835  -2.4950  -2.4911  -2.4395  -2.4389
    -2.3701  -2.3695  -2.2311  -2.2309  -2.1235  -2.1180  -1.9321  -1.9306
    -1.7822  -1.7809  -1.5502  -1.5493  -0.3730  -0.3661  -0.1411  -0.1397
    -0.0366  -0.0261   0.0246   0.0251   0.4921   0.4922   0.5114   0.5132
     0.6152   0.6156

          k =-0.5000 0.5000 0.0000 ( 51960 PWs)   bands (ev):

   -12.7015 -12.7012 -11.7648 -11.7645 -11.7377 -11.7366 -11.3885 -11.3881
   -10.8997 -10.8994 -10.7694 -10.7686 -10.7094 -10.7082 -10.0851 -10.0846
    -9.9949  -9.9941  -9.6292  -9.6290  -9.1942  -9.1941  -8.9365  -8.9362
    -8.3207  -8.3198  -8.2514  -8.2510  -7.5868  -7.5859  -7.4466  -7.4465
    -7.4349  -7.4332  -7.0989  -7.0987  -6.8445  -6.8425  -5.9628  -5.9623
    -5.8258  -5.8255  -5.4421  -5.4412  -5.4140  -5.4133  -5.2527  -5.2518
    -5.0476  -5.0472  -4.8935  -4.8933  -4.5936  -4.5932  -4.4504  -4.4492
    -4.4037  -4.4032  -4.3185  -4.3184  -4.0874  -4.0866  -4.0473  -4.0465
    -3.9405  -3.9399  -3.6452  -3.6446  -3.6219  -3.6215  -3.4908  -3.4901
    -3.3770  -3.3761  -3.2612  -3.2606  -3.1838  -3.1834  -2.9512  -2.9509
    -2.4015  -2.3973  -2.3563  -2.3554  -2.0730  -2.0678  -1.9366  -1.9359
    -1.7128  -1.7113  -1.4913  -1.4904  -0.1923  -0.1865  -0.1576  -0.1500
     0.2964   0.2981   0.7721   0.7722   0.8700   0.8703   0.9599   0.9609
     1.0434   1.0447

          k =-0.5000-1.0000 0.0000 ( 52096 PWs)   bands (ev):

   -12.3319 -12.3319 -12.3317 -12.3314 -11.3583 -11.3580 -11.3570 -11.3565
   -11.1230 -11.1229 -11.1226 -11.1222 -10.3731 -10.3731 -10.3715 -10.3711
    -9.7458  -9.7457  -9.7454  -9.7450  -9.2878  -9.2875  -9.2873  -9.2873
    -7.8383  -7.8383  -7.8381  -7.8376  -7.7755  -7.7752  -7.7734  -7.7731
    -6.8252  -6.8242  -6.8181  -6.8174  -6.0113  -6.0107  -6.0098  -6.0097
    -5.6650  -5.6647  -5.6638  -5.6637  -5.1264  -5.1260  -5.1252  -5.1251
    -5.0602  -5.0601  -5.0570  -5.0570  -4.6840  -4.6839  -4.6836  -4.6833
    -4.6424  -4.6416  -4.6411  -4.6407  -4.3926  -4.3921  -4.3900  -4.3898
    -4.2051  -4.2051  -4.2029  -4.2025  -3.8525  -3.8525  -3.8494  -3.8492
    -3.3156  -3.3156  -3.3143  -3.3139  -3.2150  -3.2149  -3.2140  -3.2140
    -2.1721  -2.1672  -2.1583  -2.1557  -2.0191  -2.0184  -2.0160  -2.0139
    -1.7025  -1.7022  -1.7022  -1.7015  -0.1833  -0.1820  -0.1689  -0.1653
     0.8861   0.8867   0.8876   0.8877   1.0979   1.0981   1.0990   1.0993
     1.1661   1.1667

     the Fermi energy is    -1.8978 ev

!    total energy              =    -355.47776731 Ry
     estimated scf accuracy    <       0.00000007 Ry
     smearing contrib. (-TS)   =      -0.00422904 Ry
     internal energy E=F+TS    =    -355.47353827 Ry

     The total energy is F=E-TS. E is the sum of the following terms:
     one-electron contribution =   -2918.78325786 Ry
     hartree contribution      =    1488.50081415 Ry
     xc contribution           =    -132.55581348 Ry
     ewald contribution        =    1207.36471891 Ry

     convergence has been achieved in  24 iterations

     negative rho (up, down):  1.652E-02 0.000E+00

     Forces acting on atoms (cartesian axes, Ry/au):

     atom    1 type  2   force =     0.00027149   -0.02515105    0.00618783
     atom    2 type  2   force =     0.00027153    0.02515105    0.00618780
     atom    3 type  2   force =    -0.00025786   -0.02514772    0.00617815
     atom    4 type  2   force =    -0.00025790    0.02514775    0.00617812
     atom    5 type  2   force =    -0.00022308   -0.02515061    0.00619108
     atom    6 type  2   force =    -0.00022309    0.02515066    0.00619118
     atom    7 type  2   force =     0.00022385   -0.02514668    0.00619187
     atom    8 type  2   force =     0.00022384    0.02514671    0.00619189
     atom    9 type  2   force =    -0.00021464   -0.02514690    0.00617801
     atom   10 type  2   force =    -0.00021466    0.02514696    0.00617800
     atom   11 type  2   force =     0.00022801   -0.02514677    0.00617664
     atom   12 type  2   force =     0.00022802    0.02514679    0.00617665
     atom   13 type  2   force =     0.00027384   -0.02514681    0.00618929
     atom   14 type  2   force =     0.00027381    0.02514678    0.00618931
     atom   15 type  2   force =    -0.00024168   -0.02515153    0.00619302
     atom   16 type  2   force =    -0.00024168    0.02515155    0.00619298
     atom   17 type  1   force =    -0.00068571   -0.00000012    0.00117324
     atom   18 type  1   force =     0.00067164   -0.00000005    0.00119776
     atom   19 type  1   force =    -0.00054865    0.00000004    0.00117355
     atom   20 type  1   force =     0.00052554    0.00000011    0.00119475
     atom   21 type  1   force =    -0.00068219   -0.00000004    0.00120337
     atom   22 type  1   force =     0.00064159   -0.00000002    0.00117843
     atom   23 type  1   force =    -0.00052458    0.00000000    0.00119433
     atom   24 type  1   force =     0.00051430    0.00000002    0.00118805
     atom   25 type  1   force =    -0.00002096   -0.00000008   -0.00962318
     atom   26 type  1   force =     0.00000720   -0.00000013   -0.00951337
     atom   27 type  1   force =    -0.00001869    0.00000023   -0.00966244
     atom   28 type  1   force =     0.00000648    0.00000026   -0.00951563
     atom   29 type  1   force =     0.00013655   -0.00000015   -0.00964334
     atom   30 type  1   force =     0.00007703   -0.00000002   -0.00951067
     atom   31 type  1   force =     0.00002659    0.00000024   -0.00968649
     atom   32 type  1   force =     0.00006782   -0.00000027   -0.00948958
     atom   33 type  1   force =    -0.00010118   -0.00019478   -0.00098511
     atom   34 type  1   force =     0.00004221    0.00016573   -0.00104865
     atom   35 type  1   force =     0.00000343   -0.00017750   -0.00148037
     atom   36 type  1   force =     0.00000347    0.00017761   -0.00148047
     atom   37 type  1   force =    -0.00009384   -0.00005861   -0.00157425
     atom   38 type  1   force =    -0.00009402    0.00005899   -0.00157423
     atom   39 type  1   force =     0.00004207   -0.00016595   -0.00104831
     atom   40 type  1   force =    -0.00010120    0.00019440   -0.00098483
     atom   41 type  1   force =     0.00310969   -0.00006062    0.00244058
     atom   42 type  1   force =     0.00281446    0.00000313    0.00236058
     atom   43 type  1   force =    -0.00272063   -0.00002452    0.00240072
     atom   44 type  1   force =    -0.00272074    0.00002468    0.00240102
     atom   45 type  1   force =    -0.00278679    0.00000668    0.00234502
     atom   46 type  1   force =    -0.00278667   -0.00000661    0.00234492
     atom   47 type  1   force =     0.00281443   -0.00000312    0.00236042
     atom   48 type  1   force =     0.00310948    0.00006054    0.00244053
     atom   49 type  1   force =     0.00424038   -0.00000004   -0.00496174
     atom   50 type  1   force =    -0.00453802   -0.00000016   -0.00491075
     atom   51 type  1   force =     0.00681411    0.00000017   -0.00505959
     atom   52 type  1   force =    -0.00612850    0.00000006   -0.00520913
     atom   53 type  1   force =     0.00513963   -0.00000054   -0.00516541
     atom   54 type  1   force =    -0.00480845   -0.00000017   -0.00504238
     atom   55 type  1   force =     0.00580449    0.00000028   -0.00511649
     atom   56 type  1   force =    -0.00737156    0.00000016   -0.00528269

     Total force =     0.024344     Total SCF correction =     0.000300

     BFGS Geometry Optimization
     Energy error            =      0.0E+00 Ry
     Gradient error          =      7.4E-03 Ry/Bohr

     number of scf cycles    =   1
     number of bfgs steps    =   0

     energy             new  =    -355.4777673127 Ry

     new trust radius        =       0.0090689976 bohr
     new conv_thr            =       0.0000001000 Ry


ATOMIC_POSITIONS (alat)
H             0.0000000000       -0.0675500000       -0.0675500000    0   0   0
H             0.0000000000        0.0675500000       -0.0675500000    0   0   0
H             0.2500000000       -0.0675500000       -0.0675500000    0   0   0
H             0.2500000000        0.0675500000       -0.0675500000    0   0   0
H             0.2500000000        0.1824500000       -0.0675500000    0   0   0
H             0.2500000000        0.3175500000       -0.0675500000    0   0   0
H             0.5000000000        0.1824500000       -0.0675500000    0   0   0
H             0.5000000000        0.3175500000       -0.0675500000    0   0   0
H             0.7500000000        0.1824500000       -0.0675500000    0   0   0
H             0.7500000000        0.3175500000       -0.0675500000    0   0   0
H             0.0000000000        0.1824500000       -0.0675500000    0   0   0
H             0.0000000000        0.3175500000       -0.0675500000    0   0   0
H             0.5000000000       -0.0675500000       -0.0675500000    0   0   0
H             0.5000000000        0.0675500000       -0.0675500000    0   0   0
H             0.7500000000       -0.0675500000       -0.0675500000    0   0   0
H             0.7500000000        0.0675500000       -0.0675500000    0   0   0
Si            0.0000000000        0.0000000000        0.0000000000    0   0   0
Si            0.2500000000        0.0000000000        0.0000000000    0   0   0
Si            0.0000000000        0.2500000000        0.0000000000    0   0   0
Si            0.2500000000        0.2500000000        0.0000000000    0   0   0
Si            0.5000000000        0.0000000000        0.0000000000    0   0   0
Si            0.7500000000        0.0000000000        0.0000000000    0   0   0
Si            0.5000000000        0.2500000000        0.0000000000    0   0   0
Si            0.7500000000        0.2500000000        0.0000000000    0   0   0
Si            0.1250000000        0.0000000000        0.0883883480    0   0   0
Si            0.3750000000        0.0000000000        0.0883883480    0   0   0
Si            0.1250000000        0.2500000000        0.0883883480    0   0   0
Si            0.3750000000        0.2500000000        0.0883883480    0   0   0
Si            0.6250000000        0.0000000000        0.0883883480    0   0   0
Si            0.8750000000        0.0000000000        0.0883883480    0   0   0
Si            0.6250000000        0.2500000000        0.0883883480    0   0   0
Si            0.8750000000        0.2500000000        0.0883883480    0   0   0
Si            0.6249965388        0.3749933371        0.1767429983
Si            0.1250014437        0.1250056691        0.1767408250
Si            0.3750001174        0.1249939284        0.1767260568
Si            0.3750001188        0.3750060753        0.1767260537
Si            0.8749967898        0.1249979951        0.1767228457
Si            0.8749967838        0.3750020178        0.1767228461
Si            0.1250014392        0.3749943234        0.1767408365
Si            0.6249965382        0.1250066497        0.1767430078
Si            0.7501063734        0.3749979264        0.2652485290
Si            0.2500962743        0.1250001070        0.2652457925
Si            0.4999069355        0.1249991613        0.2652471657
Si            0.4999069316        0.3750008442        0.2652471759
Si           -0.0000953278        0.1250002285        0.2652452601
Si           -0.0000953238        0.3749997740        0.2652452567
Si            0.2500962733        0.3749998933        0.2652457871
Si            0.7501063661        0.1250020708        0.2652485273
Si            0.0011450510       -0.0000000013        0.3533836655
Si            0.2488447679       -0.0000000056        0.3533854099
Si            0.0022330905        0.2500000060        0.3533803183
Si            0.2477903620        0.2500000022        0.3533752031
Si            0.5021758117       -0.0000000185        0.3533766986
Si            0.7488355171       -0.0000000058        0.3533809073
Si            0.5011985544        0.2500000097        0.3533783719
Si            0.7467478408        0.2500000054        0.3533726867



     Writing config-only to output data dir ./si.save/
     NEW-OLD atomic charge density approx. for the potential

     negative rho (up, down):  1.653E-02 0.000E+00

     total cpu time spent up to now is      124.5 secs

     per-process dynamical memory:   713.4 Mb

     Self-consistent Calculation

     iteration #  1     ecut=    30.00 Ry     beta= 0.70
     Davidson diagonalization with overlap
     ethr =  1.00E-06,  avg # of iterations =  3.0

     Threshold (ethr) on eigenvalues was too large:
     Diagonalizing with lowered threshold

     Davidson diagonalization with overlap
     ethr =  7.22E-08,  avg # of iterations =  2.7

     negative rho (up, down):  1.653E-02 0.000E+00

     total cpu time spent up to now is      133.8 secs

     total energy              =    -355.47828205 Ry
     estimated scf accuracy    <       0.00013394 Ry

     iteration #  2     ecut=    30.00 Ry     beta= 0.70
     Davidson diagonalization with overlap
     ethr =  7.61E-08,  avg # of iterations =  4.3

     negative rho (up, down):  1.653E-02 0.000E+00

     total cpu time spent up to now is      139.4 secs

     total energy              =    -355.47800653 Ry
     estimated scf accuracy    <       0.00386357 Ry

     iteration #  3     ecut=    30.00 Ry     beta= 0.70
     Davidson diagonalization with overlap
     ethr =  7.61E-08,  avg # of iterations =  3.3

     negative rho (up, down):  1.653E-02 0.000E+00

     total cpu time spent up to now is      144.3 secs

     total energy              =    -355.47814136 Ry
     estimated scf accuracy    <       0.00479563 Ry

     iteration #  4     ecut=    30.00 Ry     beta= 0.70
     Davidson diagonalization with overlap
     ethr =  7.61E-08,  avg # of iterations =  3.7

     negative rho (up, down):  1.653E-02 0.000E+00

     total cpu time spent up to now is      149.2 secs

     total energy              =    -355.47832301 Ry
     estimated scf accuracy    <       0.00022953 Ry

     iteration #  5     ecut=    30.00 Ry     beta= 0.70
     Davidson diagonalization with overlap
     ethr =  7.61E-08,  avg # of iterations =  2.0

     negative rho (up, down):  1.653E-02 0.000E+00

     total cpu time spent up to now is      153.4 secs

     total energy              =    -355.47832620 Ry
     estimated scf accuracy    <       0.00049942 Ry

     iteration #  6     ecut=    30.00 Ry     beta= 0.70
     Davidson diagonalization with overlap
     ethr =  7.61E-08,  avg # of iterations =  1.2

     negative rho (up, down):  1.653E-02 0.000E+00

     total cpu time spent up to now is      157.2 secs

     total energy              =    -355.47834640 Ry
     estimated scf accuracy    <       0.00001287 Ry

     iteration #  7     ecut=    30.00 Ry     beta= 0.70
     Davidson diagonalization with overlap
     ethr =  7.31E-09,  avg # of iterations =  3.7

     negative rho (up, down):  1.653E-02 0.000E+00

     total cpu time spent up to now is      161.7 secs

     total energy              =    -355.47834759 Ry
     estimated scf accuracy    <       0.00000512 Ry

     iteration #  8     ecut=    30.00 Ry     beta= 0.70
     Davidson diagonalization with overlap
     ethr =  2.91E-09,  avg # of iterations =  2.0

     negative rho (up, down):  1.653E-02 0.000E+00

     total cpu time spent up to now is      165.8 secs

     total energy              =    -355.47834827 Ry
     estimated scf accuracy    <       0.00000084 Ry

     iteration #  9     ecut=    30.00 Ry     beta= 0.70
     Davidson diagonalization with overlap
     ethr =  4.79E-10,  avg # of iterations =  3.2

     negative rho (up, down):  1.653E-02 0.000E+00

     total cpu time spent up to now is      170.2 secs

     total energy              =    -355.47834839 Ry
     estimated scf accuracy    <       0.00000011 Ry

     iteration # 10     ecut=    30.00 Ry     beta= 0.70
     Davidson diagonalization with overlap
     ethr =  6.11E-11,  avg # of iterations =  3.8

     negative rho (up, down):  1.653E-02 0.000E+00

     total cpu time spent up to now is      175.1 secs

     End of self-consistent calculation

          k = 0.0000 0.0000 0.0000 ( 52087 PWs)   bands (ev):

   -12.9572 -12.4680 -12.4386 -11.6022 -11.3166 -11.2903 -11.2781 -11.2026
   -11.1850 -10.9390 -10.7826 -10.7683 -10.7586 -10.7305 -10.4026  -9.8464
    -9.8362  -9.7554  -9.4941  -9.3468  -9.2690  -9.1905  -9.0172  -8.7514
    -8.7121  -8.3124  -8.0562  -8.0418  -7.9042  -7.8935  -7.8917  -7.8599
    -7.7942  -7.3889  -7.3729  -7.3628  -7.0465  -6.4105  -6.3743  -6.3741
    -6.2576  -6.2458  -6.2135  -5.5086  -5.1302  -4.8980  -4.7978  -4.7767
    -4.7656  -4.6915  -4.6262  -4.6156  -4.5789  -4.5773  -4.5764  -4.5452
    -4.5025  -4.4596  -4.4498  -4.1313  -4.1073  -4.1033  -4.0727  -4.0596
    -3.9860  -3.9365  -3.7967  -3.7764  -3.3283  -3.2158  -3.1481  -3.1333
    -2.9002  -2.8607  -2.6922  -2.6142  -2.6107  -2.4614  -2.4226  -2.4154
    -2.4128  -2.3006  -2.2966  -2.2846  -2.2303  -2.0318  -1.9930  -1.9368
    -1.8869  -1.8536  -1.1801  -1.0745  -1.0578  -0.9975  -0.4457  -0.2989
    -0.0895   0.1954   0.2038   0.2451   0.2516   0.2734   0.3262   0.3936
     0.6541   0.7313

          k = 0.0000 0.5000 0.0000 ( 52005 PWs)   bands (ev):

   -12.8305 -12.3401 -12.3111 -11.8957 -11.5011 -11.3926 -11.3668 -11.1817
   -11.0948 -11.0774 -11.0262 -10.8041 -10.5429 -10.5262 -10.2987 -10.1403
    -9.8063  -9.7232  -9.7124  -9.6343  -9.6174  -8.9989  -8.8798  -8.8562
    -8.4437  -8.3016  -8.2799  -8.2553  -7.7860  -7.6568  -7.4746  -7.4301
    -7.4177  -7.1465  -7.1043  -7.0862  -6.9890  -6.1942  -6.1812  -5.9357
    -5.9094  -5.9093  -5.8230  -5.5637  -5.3597  -5.1614  -5.0243  -5.0219
    -4.9675  -4.9257  -4.8961  -4.8768  -4.8295  -4.8198  -4.6433  -4.5142
    -4.4358  -4.4243  -4.4230  -4.3919  -4.2317  -4.2273  -4.2134  -4.1887
    -3.8414  -3.6886  -3.6851  -3.6801  -3.6798  -3.6437  -3.5032  -3.5009
    -3.4894  -3.3408  -3.1845  -3.0337  -3.0201  -3.0195  -2.5746  -2.5233
    -2.4594  -2.3589  -2.3198  -2.3080  -2.2971  -1.9711  -1.9530  -1.8974
    -1.8241  -1.7803  -1.2641  -1.1554  -0.9690  -0.8982  -0.2092   0.3190
     0.3648   0.3802   0.4740   0.6128   0.6463   0.6707   0.8408   0.8533
     0.9501   1.0373

          k = 0.0000-1.0000 0.0000 ( 51922 PWs)   bands (ev):

   -12.4615 -12.4614 -11.9673 -11.9667 -11.9393 -11.9385 -11.2402 -11.2401
   -10.8099 -10.8084 -10.7933 -10.7916 -10.7828 -10.7825 -10.4078 -10.4077
   -10.0101 -10.0097  -9.3688  -9.3683  -9.3559  -9.3554  -9.3006  -9.3002
    -7.8993  -7.8979  -7.8795  -7.8781  -7.7683  -7.7682  -7.7477  -7.7477
    -7.0094  -7.0094  -6.2624  -6.2547  -6.2438  -6.2367  -6.0314  -6.0310
    -5.7853  -5.7850  -5.2254  -5.2233  -5.2166  -5.2149  -5.1642  -5.1626
    -5.1623  -5.1606  -5.1603  -5.1575  -4.8654  -4.8654  -4.7213  -4.7202
    -4.7180  -4.7177  -4.6998  -4.6991  -4.6020  -4.6013  -4.2777  -4.2773
    -4.0839  -4.0804  -4.0747  -4.0713  -4.0562  -4.0561  -3.5718  -3.5716
    -3.4298  -3.4259  -3.4207  -3.4167  -3.3737  -3.3737  -2.5016  -2.5012
    -2.1435  -2.1296  -2.0862  -2.0817  -2.0719  -2.0712  -2.0382  -2.0262
    -1.9932  -1.9931  -1.1596  -1.1424  -1.0718  -1.0541   0.0917   0.0917
     0.5034   0.5048   0.7862   0.7866   0.9021   0.9024   0.9819   0.9821
     1.1106   1.1120

          k =-0.5000 0.0000 0.0000 ( 51914 PWs)   bands (ev):

   -12.8292 -12.8290 -11.8685 -11.8676 -11.4938 -11.4934 -11.1600 -11.1597
   -11.1435 -11.1433 -10.8360 -10.8349 -10.2021 -10.2016 -10.1649 -10.1646
   -10.1037 -10.1027  -9.7536  -9.7535  -8.9388  -8.9379  -8.6551  -8.6544
    -8.4075  -8.4070  -8.3730  -8.3707  -7.9076  -7.9074  -7.8350  -7.8347
    -7.5748  -7.5735  -7.3647  -7.3646  -6.9055  -6.9033  -6.3935  -6.3932
    -6.3032  -6.3028  -5.3939  -5.3925  -5.1918  -5.1907  -5.0797  -5.0796
    -4.9772  -4.9755  -4.6297  -4.6295  -4.4798  -4.4796  -4.3980  -4.3970
    -4.3474  -4.3468  -4.0410  -4.0407  -4.0291  -4.0289  -4.0024  -4.0016
    -3.6223  -3.6210  -3.5356  -3.5344  -3.4926  -3.4924  -3.4365  -3.4364
    -3.2757  -3.2754  -2.9884  -2.9876  -2.4932  -2.4890  -2.4488  -2.4486
    -2.3681  -2.3674  -2.2384  -2.2382  -2.1198  -2.1138  -1.9326  -1.9310
    -1.7781  -1.7767  -1.5463  -1.5452  -0.3744  -0.3672  -0.1429  -0.1412
    -0.0381  -0.0273   0.0227   0.0230   0.4916   0.4917   0.5077   0.5093
     0.6148   0.6154

          k =-0.5000 0.5000 0.0000 ( 51960 PWs)   bands (ev):

   -12.7023 -12.7021 -11.7651 -11.7649 -11.7387 -11.7379 -11.3912 -11.3909
   -10.9003 -10.9000 -10.7699 -10.7694 -10.7140 -10.7129 -10.0861 -10.0856
    -9.9966  -9.9959  -9.6315  -9.6314  -9.1970  -9.1968  -8.9411  -8.9407
    -8.3220  -8.3213  -8.2528  -8.2525  -7.5853  -7.5843  -7.4448  -7.4445
    -7.4374  -7.4356  -7.1029  -7.1028  -6.8414  -6.8390  -5.9627  -5.9623
    -5.8271  -5.8269  -5.4415  -5.4405  -5.4150  -5.4142  -5.2514  -5.2504
    -5.0483  -5.0478  -4.8933  -4.8932  -4.5955  -4.5952  -4.4508  -4.4495
    -4.4049  -4.4043  -4.3203  -4.3201  -4.0891  -4.0880  -4.0459  -4.0449
    -3.9424  -3.9419  -3.6447  -3.6441  -3.6243  -3.6238  -3.4912  -3.4903
    -3.3770  -3.3763  -3.2606  -3.2598  -3.1915  -3.1914  -2.9577  -2.9575
    -2.4009  -2.3964  -2.3522  -2.3512  -2.0697  -2.0640  -1.9363  -1.9356
    -1.7091  -1.7075  -1.4877  -1.4866  -0.1921  -0.1863  -0.1587  -0.1509
     0.2952   0.2971   0.7704   0.7705   0.8704   0.8708   0.9628   0.9639
     1.0445   1.0457

          k =-0.5000-1.0000 0.0000 ( 52096 PWs)   bands (ev):

   -12.3325 -12.3324 -12.3324 -12.3321 -11.3591 -11.3589 -11.3580 -11.3575
   -11.1251 -11.1250 -11.1247 -11.1244 -10.3770 -10.3768 -10.3753 -10.3749
    -9.7473  -9.7472  -9.7469  -9.7465  -9.2905  -9.2903  -9.2902  -9.2900
    -7.8381  -7.8380  -7.8379  -7.8374  -7.7749  -7.7745  -7.7725  -7.7724
    -6.8233  -6.8221  -6.8159  -6.8151  -6.0137  -6.0132  -6.0123  -6.0121
    -5.6667  -5.6664  -5.6655  -5.6653  -5.1289  -5.1286  -5.1278  -5.1276
    -5.0623  -5.0622  -5.0590  -5.0590  -4.6856  -4.6854  -4.6853  -4.6849
    -4.6417  -4.6408  -4.6404  -4.6398  -4.3932  -4.3926  -4.3904  -4.3902
    -4.2066  -4.2065  -4.2042  -4.2038  -3.8563  -3.8562  -3.8530  -3.8529
    -3.3148  -3.3148  -3.3135  -3.3132  -3.2172  -3.2170  -3.2162  -3.2162
    -2.1705  -2.1647  -2.1564  -2.1528  -2.0155  -2.0144  -2.0122  -2.0096
    -1.7001  -1.6998  -1.6997  -1.6990  -0.1837  -0.1823  -0.1690  -0.1650
     0.8879   0.8885   0.8895   0.8895   1.1003   1.1005   1.1014   1.1016
     1.1673   1.1680

     the Fermi energy is    -1.8947 ev

!    total energy              =    -355.47834837 Ry
     estimated scf accuracy    <       0.00000005 Ry
     smearing contrib. (-TS)   =      -0.00411912 Ry
     internal energy E=F+TS    =    -355.47422925 Ry

     The total energy is F=E-TS. E is the sum of the following terms:
     one-electron contribution =   -2919.43992035 Ry
     hartree contribution      =    1488.82759838 Ry
     xc contribution           =    -132.56232765 Ry
     ewald contribution        =    1207.70042037 Ry

     convergence has been achieved in  10 iterations

     negative rho (up, down):  1.653E-02 0.000E+00

     Forces acting on atoms (cartesian axes, Ry/au):

     atom    1 type  2   force =     0.00031308   -0.02514511    0.00619615
     atom    2 type  2   force =     0.00031309    0.02514514    0.00619614
     atom    3 type  2   force =    -0.00029973   -0.02514152    0.00618743
     atom    4 type  2   force =    -0.00029973    0.02514152    0.00618747
     atom    5 type  2   force =    -0.00026289   -0.02514401    0.00620018
     atom    6 type  2   force =    -0.00026290    0.02514397    0.00620019
     atom    7 type  2   force =     0.00026452   -0.02514053    0.00620088
     atom    8 type  2   force =     0.00026450    0.02514053    0.00620087
     atom    9 type  2   force =    -0.00025361   -0.02514073    0.00618685
     atom   10 type  2   force =    -0.00025361    0.02514073    0.00618682
     atom   11 type  2   force =     0.00026834   -0.02514050    0.00618357
     atom   12 type  2   force =     0.00026832    0.02514051    0.00618355
     atom   13 type  2   force =     0.00031565   -0.02514127    0.00619951
     atom   14 type  2   force =     0.00031563    0.02514125    0.00619948
     atom   15 type  2   force =    -0.00028226   -0.02514614    0.00620275
     atom   16 type  2   force =    -0.00028230    0.02514613    0.00620274
     atom   17 type  1   force =    -0.00079418    0.00000000    0.00113781
     atom   18 type  1   force =     0.00077769    0.00000003    0.00116366
     atom   19 type  1   force =    -0.00064964    0.00000000    0.00113541
     atom   20 type  1   force =     0.00062869   -0.00000009    0.00116061
     atom   21 type  1   force =    -0.00078602    0.00000008    0.00116948
     atom   22 type  1   force =     0.00074711    0.00000002    0.00114371
     atom   23 type  1   force =    -0.00062465   -0.00000006    0.00115889
     atom   24 type  1   force =     0.00061006    0.00000002    0.00115172
     atom   25 type  1   force =    -0.00002540   -0.00000008   -0.00970777
     atom   26 type  1   force =     0.00000759    0.00000015   -0.00971313
     atom   27 type  1   force =    -0.00001720   -0.00000011   -0.00979637
     atom   28 type  1   force =     0.00001321    0.00000009   -0.00967538
     atom   29 type  1   force =     0.00015108   -0.00000012   -0.00971105
     atom   30 type  1   force =     0.00007022    0.00000003   -0.00971458
     atom   31 type  1   force =     0.00002993   -0.00000006   -0.00981229
     atom   32 type  1   force =     0.00006530    0.00000008   -0.00967767
     atom   33 type  1   force =    -0.00004922   -0.00016999   -0.00003083
     atom   34 type  1   force =     0.00003555    0.00014332   -0.00009723
     atom   35 type  1   force =     0.00001433   -0.00013080   -0.00124973
     atom   36 type  1   force =     0.00001443    0.00013072   -0.00124985
     atom   37 type  1   force =    -0.00004712   -0.00004646   -0.00134882
     atom   38 type  1   force =    -0.00004700    0.00004649   -0.00134888
     atom   39 type  1   force =     0.00003555   -0.00014324   -0.00009729
     atom   40 type  1   force =    -0.00004905    0.00017011   -0.00003096
     atom   41 type  1   force =     0.00292281   -0.00005076    0.00123244
     atom   42 type  1   force =     0.00267678   -0.00000919    0.00117592
     atom   43 type  1   force =    -0.00259665   -0.00003709    0.00119938
     atom   44 type  1   force =    -0.00259654    0.00003690    0.00119904
     atom   45 type  1   force =    -0.00267127    0.00001038    0.00115271
     atom   46 type  1   force =    -0.00267134   -0.00001039    0.00115270
     atom   47 type  1   force =     0.00267684    0.00000927    0.00117594
     atom   48 type  1   force =     0.00292286    0.00005076    0.00123256
     atom   49 type  1   force =     0.00500494    0.00000011   -0.00418455
     atom   50 type  1   force =    -0.00531396    0.00000015   -0.00413244
     atom   51 type  1   force =     0.00779117   -0.00000008   -0.00432320
     atom   52 type  1   force =    -0.00705329   -0.00000008   -0.00444955
     atom   53 type  1   force =     0.00593260    0.00000016   -0.00437812
     atom   54 type  1   force =    -0.00561135   -0.00000008   -0.00425665
     atom   55 type  1   force =     0.00672273   -0.00000007   -0.00433223
     atom   56 type  1   force =    -0.00837369   -0.00000009   -0.00453800

     Total force =     0.023936     Total SCF correction =     0.000319
     Energy error            =      5.8E-04 Ry
     Gradient error          =      8.4E-03 Ry/Bohr

     number of scf cycles    =   2
     number of bfgs steps    =   1

     energy             old  =    -355.4777673127 Ry
     energy             new  =    -355.4783483693 Ry

     CASE: energy            _new < energy            _old


     WARNING: bfgs curvature condition failed, Theta= 0.832
     new trust radius        =       0.0099758974 bohr
     new conv_thr            =       0.0000000116 Ry


ATOMIC_POSITIONS (alat)
H             0.0000000000       -0.0675500000       -0.0675500000    0   0   0
H             0.0000000000        0.0675500000       -0.0675500000    0   0   0
H             0.2500000000       -0.0675500000       -0.0675500000    0   0   0
H             0.2500000000        0.0675500000       -0.0675500000    0   0   0
H             0.2500000000        0.1824500000       -0.0675500000    0   0   0
H             0.2500000000        0.3175500000       -0.0675500000    0   0   0
H             0.5000000000        0.1824500000       -0.0675500000    0   0   0
H             0.5000000000        0.3175500000       -0.0675500000    0   0   0
H             0.7500000000        0.1824500000       -0.0675500000    0   0   0
H             0.7500000000        0.3175500000       -0.0675500000    0   0   0
H             0.0000000000        0.1824500000       -0.0675500000    0   0   0
H             0.0000000000        0.3175500000       -0.0675500000    0   0   0
H             0.5000000000       -0.0675500000       -0.0675500000    0   0   0
H             0.5000000000        0.0675500000       -0.0675500000    0   0   0
H             0.7500000000       -0.0675500000       -0.0675500000    0   0   0
H             0.7500000000        0.0675500000       -0.0675500000    0   0   0
Si            0.0000000000        0.0000000000        0.0000000000    0   0   0
Si            0.2500000000        0.0000000000        0.0000000000    0   0   0
Si            0.0000000000        0.2500000000        0.0000000000    0   0   0
Si            0.2500000000        0.2500000000        0.0000000000    0   0   0
Si            0.5000000000        0.0000000000        0.0000000000    0   0   0
Si            0.7500000000        0.0000000000        0.0000000000    0   0   0
Si            0.5000000000        0.2500000000        0.0000000000    0   0   0
Si            0.7500000000        0.2500000000        0.0000000000    0   0   0
Si            0.1250000000        0.0000000000        0.0883883480    0   0   0
Si            0.3750000000        0.0000000000        0.0883883480    0   0   0
Si            0.1250000000        0.2500000000        0.0883883480    0   0   0
Si            0.3750000000        0.2500000000        0.0883883480    0   0   0
Si            0.6250000000        0.0000000000        0.0883883480    0   0   0
Si            0.8750000000        0.0000000000        0.0883883480    0   0   0
Si            0.6250000000        0.2500000000        0.0883883480    0   0   0
Si            0.8750000000        0.2500000000        0.0883883480    0   0   0
Si            0.6249934609        0.3749864409        0.1767188193
Si            0.1250029214        0.1250115198        0.1767142553
Si            0.3750003852        0.1249879553        0.1766741893
Si            0.3750003889        0.3750120500        0.1766741824
Si            0.8749939162        0.1249959805        0.1766674331
Si            0.8749939073        0.3750040418        0.1766674330
Si            0.1250029137        0.3749884684        0.1767142742
Si            0.6249934621        0.1250135382        0.1767188339
Si            0.7502191682        0.3749958079        0.2653233531
Si            0.2501987666        0.1250000638        0.2653179558
Si            0.4998077427        0.1249980907        0.2653206009
Si            0.4998077376        0.3750019162        0.2653206140
Si           -0.0001970809        0.1250005236        0.2653167481
Si           -0.0001970751        0.3749994804        0.2653167422
Si            0.2501987655        0.3749999376        0.2653179469
Si            0.7502191565        0.1250041874        0.2653233517
Si            0.0013120160       -0.0000000007        0.3532098757
Si            0.2486666294       -0.0000000076        0.3532135237
Si            0.0024981489        0.2500000091        0.3532023768
Si            0.2475513785        0.2500000028        0.3531920208
Si            0.5023764585       -0.0000000295        0.3531954937
Si            0.7486470116       -0.0000000109        0.3532042403
Si            0.5014254495        0.2500000155        0.3531989402
Si            0.7464618065        0.2500000081        0.3531865869



     Writing config-only to output data dir ./si.save/
     NEW-OLD atomic charge density approx. for the potential

     negative rho (up, down):  1.654E-02 0.000E+00

     total cpu time spent up to now is      177.3 secs

     per-process dynamical memory:   753.9 Mb

     Self-consistent Calculation

     iteration #  1     ecut=    30.00 Ry     beta= 0.70
     Davidson diagonalization with overlap
     ethr =  1.00E-06,  avg # of iterations =  3.3

     Threshold (ethr) on eigenvalues was too large:
     Diagonalizing with lowered threshold

     Davidson diagonalization with overlap
     ethr =  7.91E-08,  avg # of iterations =  2.2

     negative rho (up, down):  1.653E-02 0.000E+00

     total cpu time spent up to now is      186.6 secs

     total energy              =    -355.47889525 Ry
     estimated scf accuracy    <       0.00014618 Ry

     iteration #  2     ecut=    30.00 Ry     beta= 0.70
     Davidson diagonalization with overlap
     ethr =  8.31E-08,  avg # of iterations =  4.3

     negative rho (up, down):  1.653E-02 0.000E+00

     total cpu time spent up to now is      192.1 secs

     total energy              =    -355.47880023 Ry
     estimated scf accuracy    <       0.00095555 Ry

     iteration #  3     ecut=    30.00 Ry     beta= 0.70
     Davidson diagonalization with overlap
     ethr =  8.31E-08,  avg # of iterations =  4.3

     negative rho (up, down):  1.653E-02 0.000E+00

     total cpu time spent up to now is      197.4 secs

     total energy              =    -355.47882260 Ry
     estimated scf accuracy    <       0.00288624 Ry

     iteration #  4     ecut=    30.00 Ry     beta= 0.70
     Davidson diagonalization with overlap
     ethr =  8.31E-08,  avg # of iterations =  2.0

     negative rho (up, down):  1.653E-02 0.000E+00

     total cpu time spent up to now is      201.7 secs

     total energy              =    -355.47893037 Ry
     estimated scf accuracy    <       0.00052785 Ry

     iteration #  5     ecut=    30.00 Ry     beta= 0.70
     Davidson diagonalization with overlap
     ethr =  8.31E-08,  avg # of iterations =  2.0

     negative rho (up, down):  1.653E-02 0.000E+00

     total cpu time spent up to now is      205.8 secs

     total energy              =    -355.47895732 Ry
     estimated scf accuracy    <       0.00004092 Ry

     iteration #  6     ecut=    30.00 Ry     beta= 0.70
     Davidson diagonalization with overlap
     ethr =  2.32E-08,  avg # of iterations =  2.0

     negative rho (up, down):  1.653E-02 0.000E+00

     total cpu time spent up to now is      210.0 secs

     total energy              =    -355.47895853 Ry
     estimated scf accuracy    <       0.00012884 Ry

     iteration #  7     ecut=    30.00 Ry     beta= 0.70
     Davidson diagonalization with overlap
     ethr =  2.32E-08,  avg # of iterations =  1.0

     negative rho (up, down):  1.653E-02 0.000E+00

     total cpu time spent up to now is      213.8 secs

     total energy              =    -355.47896342 Ry
     estimated scf accuracy    <       0.00000120 Ry

     iteration #  8     ecut=    30.00 Ry     beta= 0.70
     Davidson diagonalization with overlap
     ethr =  6.84E-10,  avg # of iterations =  4.3

     negative rho (up, down):  1.653E-02 0.000E+00

     total cpu time spent up to now is      219.0 secs

     total energy              =    -355.47896359 Ry
     estimated scf accuracy    <       0.00000270 Ry

     iteration #  9     ecut=    30.00 Ry     beta= 0.70
     Davidson diagonalization with overlap
     ethr =  6.84E-10,  avg # of iterations =  2.0

     negative rho (up, down):  1.653E-02 0.000E+00

     total cpu time spent up to now is      223.2 secs

     total energy              =    -355.47896380 Ry
     estimated scf accuracy    <       0.00000035 Ry

     iteration # 10     ecut=    30.00 Ry     beta= 0.70
     Davidson diagonalization with overlap
     ethr =  1.98E-10,  avg # of iterations =  2.0

     negative rho (up, down):  1.653E-02 0.000E+00

     total cpu time spent up to now is      227.3 secs

     total energy              =    -355.47896382 Ry
     estimated scf accuracy    <       0.00000014 Ry

     iteration # 11     ecut=    30.00 Ry     beta= 0.70
     Davidson diagonalization with overlap
     ethr =  8.08E-11,  avg # of iterations =  2.0

     negative rho (up, down):  1.653E-02 0.000E+00

     total cpu time spent up to now is      231.5 secs

     total energy              =    -355.47896383 Ry
     estimated scf accuracy    <       0.00000003 Ry

     iteration # 12     ecut=    30.00 Ry     beta= 0.70
     Davidson diagonalization with overlap
     ethr =  1.44E-11,  avg # of iterations =  4.0

     negative rho (up, down):  1.653E-02 0.000E+00

     total cpu time spent up to now is      236.4 secs

     total energy              =    -355.47896383 Ry
     estimated scf accuracy    <       0.00000002 Ry

     iteration # 13     ecut=    30.00 Ry     beta= 0.70
     Davidson diagonalization with overlap
     ethr =  9.17E-12,  avg # of iterations =  2.3

     negative rho (up, down):  1.653E-02 0.000E+00

     total cpu time spent up to now is      240.8 secs

     total energy              =    -355.47896384 Ry
     estimated scf accuracy    <       0.00000002 Ry

     iteration # 14     ecut=    30.00 Ry     beta= 0.70
     Davidson diagonalization with overlap
     ethr =  9.17E-12,  avg # of iterations =  1.8

     negative rho (up, down):  1.653E-02 0.000E+00

     total cpu time spent up to now is      244.8 secs

     total energy              =    -355.47896383 Ry
     estimated scf accuracy    <       0.00000008 Ry

     iteration # 15     ecut=    30.00 Ry     beta= 0.70
     Davidson diagonalization with overlap
     ethr =  9.17E-12,  avg # of iterations =  1.0

     negative rho (up, down):  1.653E-02 0.000E+00

     total cpu time spent up to now is      248.5 secs

     End of self-consistent calculation

          k = 0.0000 0.0000 0.0000 ( 52087 PWs)   bands (ev):

   -12.9580 -12.4695 -12.4390 -11.6049 -11.3169 -11.2906 -11.2775 -11.2064
   -11.1877 -10.9451 -10.7838 -10.7676 -10.7574 -10.7311 -10.4030  -9.8488
    -9.8375  -9.7573  -9.4940  -9.3457  -9.2697  -9.1940  -9.0227  -8.7587
    -8.7156  -8.3189  -8.0578  -8.0420  -7.9107  -7.8959  -7.8940  -7.8653
    -7.7928  -7.3863  -7.3699  -7.3612  -7.0433  -6.4113  -6.3742  -6.3738
    -6.2572  -6.2416  -6.2134  -5.5065  -5.1301  -4.8983  -4.7979  -4.7768
    -4.7636  -4.6933  -4.6240  -4.6122  -4.5782  -4.5769  -4.5757  -4.5450
    -4.5007  -4.4596  -4.4488  -4.1332  -4.1084  -4.1058  -4.0713  -4.0600
    -3.9876  -3.9352  -3.7991  -3.7774  -3.3326  -3.2156  -3.1527  -3.1374
    -2.9018  -2.8567  -2.6923  -2.6233  -2.6140  -2.4622  -2.4180  -2.4150
    -2.4095  -2.3090  -2.2962  -2.2911  -2.2369  -2.0304  -1.9931  -1.9283
    -1.8821  -1.8479  -1.1880  -1.0758  -1.0523  -0.9918  -0.4468  -0.2989
    -0.0901   0.1934   0.2019   0.2462   0.2482   0.2707   0.3265   0.3912
     0.6526   0.7264

          k = 0.0000 0.5000 0.0000 ( 52005 PWs)   bands (ev):

   -12.8313 -12.3416 -12.3114 -11.8959 -11.5037 -11.3933 -11.3669 -11.1821
   -11.0984 -11.0800 -11.0268 -10.8100 -10.5438 -10.5271 -10.2990 -10.1404
    -9.8097  -9.7257  -9.7139  -9.6363  -9.6192  -9.0033  -8.8850  -8.8592
    -8.4429  -8.3038  -8.2803  -8.2567  -7.7845  -7.6600  -7.4725  -7.4276
    -7.4163  -7.1501  -7.1094  -7.0884  -6.9858  -6.1939  -6.1769  -5.9355
    -5.9093  -5.9092  -5.8243  -5.5624  -5.3612  -5.1625  -5.0240  -5.0211
    -4.9671  -4.9253  -4.8965  -4.8763  -4.8307  -4.8192  -4.6467  -4.5155
    -4.4356  -4.4244  -4.4230  -4.3939  -4.2313  -4.2262  -4.2165  -4.1910
    -3.8399  -3.6898  -3.6858  -3.6816  -3.6803  -3.6438  -3.5044  -3.5017
    -3.4900  -3.3513  -3.1822  -3.0413  -3.0265  -3.0255  -2.5743  -2.5220
    -2.4586  -2.3590  -2.3145  -2.3046  -2.2961  -1.9698  -1.9535  -1.8893
    -1.8191  -1.7761  -1.2707  -1.1502  -0.9694  -0.8931  -0.2075   0.3186
     0.3666   0.3805   0.4733   0.6118   0.6445   0.6710   0.8402   0.8520
     0.9534   1.0359

          k = 0.0000-1.0000 0.0000 ( 51922 PWs)   bands (ev):

   -12.4621 -12.4620 -11.9686 -11.9677 -11.9397 -11.9386 -11.2420 -11.2420
   -10.8128 -10.8111 -10.7954 -10.7936 -10.7831 -10.7828 -10.4132 -10.4132
   -10.0107 -10.0102  -9.3719  -9.3713  -9.3578  -9.3571  -9.3032  -9.3027
    -7.8976  -7.8965  -7.8793  -7.8783  -7.7680  -7.7679  -7.7471  -7.7471
    -7.0074  -7.0074  -6.2648  -6.2565  -6.2417  -6.2341  -6.0338  -6.0333
    -5.7865  -5.7862  -5.2255  -5.2230  -5.2170  -5.2150  -5.1675  -5.1654
    -5.1648  -5.1639  -5.1631  -5.1606  -4.8674  -4.8674  -4.7221  -4.7209
    -4.7202  -4.7198  -4.6986  -4.6978  -4.6022  -4.6014  -4.2778  -4.2773
    -4.0852  -4.0813  -4.0756  -4.0718  -4.0608  -4.0607  -3.5701  -3.5699
    -3.4325  -3.4281  -3.4234  -3.4189  -3.3761  -3.3760  -2.5008  -2.5003
    -2.1467  -2.1309  -2.0870  -2.0764  -2.0711  -2.0645  -2.0316  -2.0188
    -1.9889  -1.9887  -1.1636  -1.1450  -1.0674  -1.0483   0.0938   0.0938
     0.5031   0.5047   0.7875   0.7879   0.9042   0.9045   0.9826   0.9828
     1.1118   1.1134

          k =-0.5000 0.0000 0.0000 ( 51914 PWs)   bands (ev):

   -12.8301 -12.8298 -11.8696 -11.8688 -11.4967 -11.4962 -11.1604 -11.1599
   -11.1429 -11.1428 -10.8406 -10.8396 -10.2028 -10.2022 -10.1651 -10.1648
   -10.1036 -10.1029  -9.7556  -9.7555  -8.9446  -8.9434  -8.6564  -8.6557
    -8.4109  -8.4104  -8.3783  -8.3761  -7.9082  -7.9079  -7.8405  -7.8404
    -7.5733  -7.5720  -7.3621  -7.3621  -6.9025  -6.9002  -6.3942  -6.3938
    -6.3030  -6.3024  -5.3924  -5.3910  -5.1897  -5.1885  -5.0795  -5.0793
    -4.9765  -4.9747  -4.6296  -4.6295  -4.4782  -4.4778  -4.4000  -4.3988
    -4.3481  -4.3476  -4.0430  -4.0426  -4.0274  -4.0272  -4.0040  -4.0033
    -3.6184  -3.6172  -3.5354  -3.5344  -3.4926  -3.4924  -3.4374  -3.4373
    -3.2801  -3.2797  -2.9922  -2.9915  -2.4917  -2.4873  -2.4579  -2.4577
    -2.3660  -2.3652  -2.2451  -2.2450  -2.1162  -2.1097  -1.9331  -1.9314
    -1.7740  -1.7724  -1.5424  -1.5412  -0.3757  -0.3682  -0.1443  -0.1426
    -0.0395  -0.0282   0.0210   0.0214   0.4909   0.4909   0.5041   0.5057
     0.6148   0.6154

          k =-0.5000 0.5000 0.0000 ( 51960 PWs)   bands (ev):

   -12.7032 -12.7028 -11.7654 -11.7651 -11.7397 -11.7390 -11.3940 -11.3935
   -10.9009 -10.9005 -10.7705 -10.7700 -10.7184 -10.7174 -10.0869 -10.0864
    -9.9981  -9.9976  -9.6336  -9.6334  -9.1996  -9.1994  -8.9456  -8.9449
    -8.3232  -8.3226  -8.2541  -8.2537  -7.5838  -7.5828  -7.4431  -7.4427
    -7.4399  -7.4378  -7.1067  -7.1064  -6.8383  -6.8358  -5.9625  -5.9620
    -5.8282  -5.8279  -5.4408  -5.4397  -5.4158  -5.4150  -5.2500  -5.2489
    -5.0488  -5.0484  -4.8930  -4.8929  -4.5974  -4.5970  -4.4511  -4.4498
    -4.4059  -4.4053  -4.3220  -4.3218  -4.0906  -4.0894  -4.0446  -4.0434
    -3.9441  -3.9436  -3.6441  -3.6434  -3.6264  -3.6260  -3.4915  -3.4905
    -3.3771  -3.3764  -3.2599  -3.2591  -3.1990  -3.1989  -2.9638  -2.9637
    -2.4009  -2.3961  -2.3478  -2.3466  -2.0666  -2.0605  -1.9359  -1.9352
    -1.7053  -1.7035  -1.4839  -1.4827  -0.1918  -0.1859  -0.1597  -0.1517
     0.2944   0.2963   0.7686   0.7687   0.8709   0.8712   0.9658   0.9669
     1.0456   1.0470

          k =-0.5000-1.0000 0.0000 ( 52096 PWs)   bands (ev):

   -12.3332 -12.3331 -12.3329 -12.3327 -11.3600 -11.3598 -11.3589 -11.3585
   -11.1272 -11.1271 -11.1267 -11.1264 -10.3806 -10.3805 -10.3790 -10.3786
    -9.7487  -9.7486  -9.7482  -9.7478  -9.2931  -9.2928  -9.2928  -9.2925
    -7.8378  -7.8378  -7.8377  -7.8372  -7.7742  -7.7738  -7.7717  -7.7717
    -6.8216  -6.8203  -6.8138  -6.8130  -6.0160  -6.0155  -6.0144  -6.0142
    -5.6682  -5.6678  -5.6669  -5.6667  -5.1313  -5.1309  -5.1302  -5.1300
    -5.0641  -5.0641  -5.0608  -5.0607  -4.6869  -4.6868  -4.6867  -4.6863
    -4.6409  -4.6398  -4.6395  -4.6388  -4.3938  -4.3931  -4.3909  -4.3906
    -4.2078  -4.2078  -4.2054  -4.2050  -3.8598  -3.8598  -3.8564  -3.8563
    -3.3142  -3.3141  -3.3128  -3.3125  -3.2191  -3.2189  -3.2181  -3.2181
    -2.1693  -2.1625  -2.1550  -2.1501  -2.0117  -2.0102  -2.0083  -2.0050
    -1.6976  -1.6973  -1.6972  -1.6965  -0.1838  -0.1826  -0.1688  -0.1646
     0.8898   0.8904   0.8914   0.8914   1.1026   1.1028   1.1037   1.1040
     1.1687   1.1694

     the Fermi energy is    -1.8914 ev

!    total energy              =    -355.47896383 Ry
     estimated scf accuracy    <          4.9E-09 Ry
     smearing contrib. (-TS)   =      -0.00398801 Ry
     internal energy E=F+TS    =    -355.47497582 Ry

     The total energy is F=E-TS. E is the sum of the following terms:
     one-electron contribution =   -2920.13992713 Ry
     hartree contribution      =    1489.17505254 Ry
     xc contribution           =    -132.56916924 Ry
     ewald contribution        =    1208.05906801 Ry

     convergence has been achieved in  15 iterations

     negative rho (up, down):  1.653E-02 0.000E+00

     Forces acting on atoms (cartesian axes, Ry/au):

     atom    1 type  2   force =     0.00035864   -0.02513899    0.00620612
     atom    2 type  2   force =     0.00035864    0.02513898    0.00620612
     atom    3 type  2   force =    -0.00034582   -0.02513542    0.00619519
     atom    4 type  2   force =    -0.00034582    0.02513542    0.00619519
     atom    5 type  2   force =    -0.00030620   -0.02513771    0.00620759
     atom    6 type  2   force =    -0.00030620    0.02513771    0.00620758
     atom    7 type  2   force =     0.00030968   -0.02513392    0.00620778
     atom    8 type  2   force =     0.00030968    0.02513392    0.00620778
     atom    9 type  2   force =    -0.00029820   -0.02513437    0.00619431
     atom   10 type  2   force =    -0.00029821    0.02513436    0.00619432
     atom   11 type  2   force =     0.00031245   -0.02513350    0.00619230
     atom   12 type  2   force =     0.00031245    0.02513350    0.00619229
     atom   13 type  2   force =     0.00036175   -0.02513527    0.00620748
     atom   14 type  2   force =     0.00036175    0.02513527    0.00620748
     atom   15 type  2   force =    -0.00032779   -0.02514015    0.00621087
     atom   16 type  2   force =    -0.00032779    0.02514015    0.00621087
     atom   17 type  1   force =    -0.00091380   -0.00000002    0.00110374
     atom   18 type  1   force =     0.00089209   -0.00000001    0.00113201
     atom   19 type  1   force =    -0.00076162    0.00000001    0.00109957
     atom   20 type  1   force =     0.00073439    0.00000001    0.00112831
     atom   21 type  1   force =    -0.00090303   -0.00000001    0.00114018
     atom   22 type  1   force =     0.00086651   -0.00000000    0.00110909
     atom   23 type  1   force =    -0.00073649    0.00000000    0.00112656
     atom   24 type  1   force =     0.00072296    0.00000000    0.00111711
     atom   25 type  1   force =    -0.00003124   -0.00000010   -0.00975051
     atom   26 type  1   force =     0.00000464    0.00000004   -0.00992492
     atom   27 type  1   force =    -0.00001728   -0.00000000   -0.00989109
     atom   28 type  1   force =     0.00002321   -0.00000000   -0.00984788
     atom   29 type  1   force =     0.00016982   -0.00000001   -0.00974440
     atom   30 type  1   force =     0.00006726    0.00000008   -0.00992664
     atom   31 type  1   force =     0.00002862   -0.00000008   -0.00990651
     atom   32 type  1   force =     0.00006854    0.00000008   -0.00987448
     atom   33 type  1   force =    -0.00000187   -0.00014154    0.00085091
     atom   34 type  1   force =     0.00003413    0.00012693    0.00077964
     atom   35 type  1   force =     0.00002051   -0.00008884   -0.00106848
     atom   36 type  1   force =     0.00002048    0.00008881   -0.00106843
     atom   37 type  1   force =    -0.00000041   -0.00003050   -0.00117342
     atom   38 type  1   force =    -0.00000033    0.00003033   -0.00117342
     atom   39 type  1   force =     0.00003413   -0.00012685    0.00077949
     atom   40 type  1   force =    -0.00000188    0.00014162    0.00085076
     atom   41 type  1   force =     0.00277406   -0.00003102    0.00010161
     atom   42 type  1   force =     0.00258455   -0.00003368    0.00005995
     atom   43 type  1   force =    -0.00251318   -0.00002740    0.00006823
     atom   44 type  1   force =    -0.00251316    0.00002725    0.00006799
     atom   45 type  1   force =    -0.00259518    0.00000345    0.00003576
     atom   46 type  1   force =    -0.00259532   -0.00000339    0.00003583
     atom   47 type  1   force =     0.00258460    0.00003368    0.00006000
     atom   48 type  1   force =     0.00277418    0.00003108    0.00010166
     atom   49 type  1   force =     0.00587180    0.00000000   -0.00343401
     atom   50 type  1   force =    -0.00619807    0.00000005   -0.00337121
     atom   51 type  1   force =     0.00889373   -0.00000003   -0.00361781
     atom   52 type  1   force =    -0.00809981   -0.00000001   -0.00371862
     atom   53 type  1   force =     0.00682699    0.00000025   -0.00361693
     atom   54 type  1   force =    -0.00650574    0.00000005   -0.00348774
     atom   55 type  1   force =     0.00775487   -0.00000015   -0.00356986
     atom   56 type  1   force =    -0.00949267   -0.00000007   -0.00382531

     Total force =     0.024943     Total SCF correction =     0.000108
     Energy error            =      6.2E-04 Ry
     Gradient error          =      9.5E-03 Ry/Bohr

     number of scf cycles    =   3
     number of bfgs steps    =   2

     energy             old  =    -355.4783483693 Ry
     energy             new  =    -355.4789638331 Ry

     CASE: energy            _new < energy            _old

     new trust radius        =       0.0149638461 bohr
     new conv_thr            =       0.0000000123 Ry


ATOMIC_POSITIONS (alat)
H             0.0000000000       -0.0675500000       -0.0675500000    0   0   0
H             0.0000000000        0.0675500000       -0.0675500000    0   0   0
H             0.2500000000       -0.0675500000       -0.0675500000    0   0   0
H             0.2500000000        0.0675500000       -0.0675500000    0   0   0
H             0.2500000000        0.1824500000       -0.0675500000    0   0   0
H             0.2500000000        0.3175500000       -0.0675500000    0   0   0
H             0.5000000000        0.1824500000       -0.0675500000    0   0   0
H             0.5000000000        0.3175500000       -0.0675500000    0   0   0
H             0.7500000000        0.1824500000       -0.0675500000    0   0   0
H             0.7500000000        0.3175500000       -0.0675500000    0   0   0
H             0.0000000000        0.1824500000       -0.0675500000    0   0   0
H             0.0000000000        0.3175500000       -0.0675500000    0   0   0
H             0.5000000000       -0.0675500000       -0.0675500000    0   0   0
H             0.5000000000        0.0675500000       -0.0675500000    0   0   0
H             0.7500000000       -0.0675500000       -0.0675500000    0   0   0
H             0.7500000000        0.0675500000       -0.0675500000    0   0   0
Si            0.0000000000        0.0000000000        0.0000000000    0   0   0
Si            0.2500000000        0.0000000000        0.0000000000    0   0   0
Si            0.0000000000        0.2500000000        0.0000000000    0   0   0
Si            0.2500000000        0.2500000000        0.0000000000    0   0   0
Si            0.5000000000        0.0000000000        0.0000000000    0   0   0
Si            0.7500000000        0.0000000000        0.0000000000    0   0   0
Si            0.5000000000        0.2500000000        0.0000000000    0   0   0
Si            0.7500000000        0.2500000000        0.0000000000    0   0   0
Si            0.1250000000        0.0000000000        0.0883883480    0   0   0
Si            0.3750000000        0.0000000000        0.0883883480    0   0   0
Si            0.1250000000        0.2500000000        0.0883883480    0   0   0
Si            0.3750000000        0.2500000000        0.0883883480    0   0   0
Si            0.6250000000        0.0000000000        0.0883883480    0   0   0
Si            0.8750000000        0.0000000000        0.0883883480    0   0   0
Si            0.6250000000        0.2500000000        0.0883883480    0   0   0
Si            0.8750000000        0.2500000000        0.0883883480    0   0   0
Si            0.6249892667        0.3749764501        0.1766899751
Si            0.1250051238        0.1250200945        0.1766818127
Si            0.3750008166        0.1249794164        0.1765984862
Si            0.3750008220        0.3750205927        0.1765984758
Si            0.8749900372        0.1249931359        0.1765864143
Si            0.8749900227        0.3750068994        0.1765864144
Si            0.1250051108        0.3749798862        0.1766818429
Si            0.6249892675        0.1250235151        0.1766899984
Si            0.7503855793        0.3749928631        0.2654253534
Si            0.2503503755        0.1249997502        0.2654160962
Si            0.4996609793        0.1249966648        0.2654205094
Si            0.4996609704        0.3750033458        0.2654205303
Si           -0.0003477038        0.1250008644        0.2654139025
Si           -0.0003476954        0.3749991431        0.2654138933
Si            0.2503503740        0.3750002516        0.2654160816
Si            0.7503855609        0.1250071298        0.2654253510
Si            0.0015675614       -0.0000000018        0.3529579335
Si            0.2483943252       -0.0000000131        0.3529645335
Si            0.0029014152        0.2500000154        0.3529438773
Si            0.2471873147        0.2500000050        0.3529259599
Si            0.5026822486       -0.0000000475        0.3529326304
Si            0.7483592892       -0.0000000172        0.3529482152
Si            0.5017714123        0.2500000247        0.3529387359
Si            0.7460272859        0.2500000133        0.3529160289



     Writing config-only to output data dir ./si.save/
     NEW-OLD atomic charge density approx. for the potential

     negative rho (up, down):  1.654E-02 0.000E+00

     total cpu time spent up to now is      250.6 secs

     per-process dynamical memory:   732.2 Mb

     Self-consistent Calculation

     iteration #  1     ecut=    30.00 Ry     beta= 0.70
     Davidson diagonalization with overlap
     ethr =  1.00E-06,  avg # of iterations =  4.0

     negative rho (up, down):  1.654E-02 0.000E+00

     total cpu time spent up to now is      256.2 secs

     total energy              =    -355.47975947 Ry
     estimated scf accuracy    <       0.00027304 Ry

     iteration #  2     ecut=    30.00 Ry     beta= 0.70
     Davidson diagonalization with overlap
     ethr =  1.55E-07,  avg # of iterations =  4.3

     negative rho (up, down):  1.654E-02 0.000E+00

     total cpu time spent up to now is      261.8 secs

     total energy              =    -355.47966355 Ry
     estimated scf accuracy    <       0.00114362 Ry

     iteration #  3     ecut=    30.00 Ry     beta= 0.70
     Davidson diagonalization with overlap
     ethr =  1.55E-07,  avg # of iterations =  4.0

     negative rho (up, down):  1.654E-02 0.000E+00

     total cpu time spent up to now is      266.9 secs

     total energy              =    -355.47970081 Ry
     estimated scf accuracy    <       0.00329343 Ry

     iteration #  4     ecut=    30.00 Ry     beta= 0.70
     Davidson diagonalization with overlap
     ethr =  1.55E-07,  avg # of iterations =  2.0

     negative rho (up, down):  1.654E-02 0.000E+00

     total cpu time spent up to now is      271.1 secs

     total energy              =    -355.47982774 Ry
     estimated scf accuracy    <       0.00095769 Ry

     iteration #  5     ecut=    30.00 Ry     beta= 0.70
     Davidson diagonalization with overlap
     ethr =  1.55E-07,  avg # of iterations =  2.0

     negative rho (up, down):  1.654E-02 0.000E+00

[...]
     Davidson diagonalization with overlap
     ethr =  2.01E-11,  avg # of iterations =  4.0

     negative rho (up, down):  1.676E-02 0.000E+00

     total cpu time spent up to now is     5837.8 secs

     total energy              =    -355.95926778 Ry
     estimated scf accuracy    <          9.2E-09 Ry

     iteration #  8     ecut=    30.00 Ry     beta= 0.70
     Davidson diagonalization with overlap
     ethr =  5.23E-12,  avg # of iterations =  3.0

     negative rho (up, down):  1.676E-02 0.000E+00

     total cpu time spent up to now is     5842.2 secs

     total energy              =    -355.95926778 Ry
     estimated scf accuracy    <          1.2E-09 Ry

     iteration #  9     ecut=    30.00 Ry     beta= 0.70
     Davidson diagonalization with overlap
     ethr =  6.63E-13,  avg # of iterations =  3.7

     negative rho (up, down):  1.676E-02 0.000E+00

     total cpu time spent up to now is     5847.1 secs

     End of self-consistent calculation

          k = 0.0000 0.0000 0.0000 ( 52087 PWs)   bands (ev):

   -13.2673 -13.0165 -12.2192 -11.9173 -11.4908 -11.4393 -11.2103 -11.1800
   -11.1106 -10.9190 -10.8068 -10.7299 -10.6415 -10.5143 -10.3803 -10.2526
   -10.1715  -9.9216  -9.8169  -9.6344  -9.3620  -9.3528  -9.1299  -9.1196
    -8.2419  -8.0934  -8.0211  -7.9493  -7.9346  -7.8778  -7.8378  -7.7368
    -7.7265  -7.5357  -7.2957  -7.0997  -6.7271  -6.4915  -6.3264  -6.2411
    -6.2100  -6.0576  -5.8039  -5.4026  -5.2541  -5.2327  -5.0805  -5.0732
    -5.0000  -4.8619  -4.8049  -4.7504  -4.5049  -4.4416  -4.4198  -4.4048
    -4.3754  -4.3334  -4.3047  -4.1737  -4.1606  -4.0335  -3.9129  -3.8698
    -3.7839  -3.7752  -3.6551  -3.5728  -3.5373  -3.4378  -3.4010  -3.3236
    -3.0800  -3.0678  -3.0027  -2.8674  -2.8153  -2.7042  -2.5637  -2.4527
    -2.4312  -2.3850  -2.3239  -2.2800  -2.2525  -2.0869  -1.9850  -1.9674
    -1.5410  -1.1481  -1.0181  -0.6513  -0.5621  -0.5208  -0.2343   0.0194
     0.1375   0.1542   0.2406   0.3084   0.4094   0.5066   0.5633   0.7275
     0.7276   0.7694

          k = 0.0000 0.5000 0.0000 ( 52005 PWs)   bands (ev):

   -13.1311 -12.8788 -12.0980 -12.0879 -11.8142 -11.8034 -11.3768 -11.1792
   -11.1135 -11.0491 -10.8154 -10.6578 -10.6122 -10.3455 -10.1818 -10.1457
    -9.8599  -9.8321  -9.7529  -9.7164  -9.6508  -9.5071  -9.4516  -8.5812
    -8.5200  -8.4481  -8.1950  -8.0436  -7.9547  -7.7328  -7.5355  -7.2898
    -7.2621  -7.2236  -7.1196  -6.8121  -6.6109  -6.4343  -5.8394  -5.8144
    -5.7819  -5.7537  -5.7216  -5.5600  -5.4442  -5.4046  -5.3414  -5.1658
    -5.1556  -5.0698  -5.0185  -4.9715  -4.8728  -4.7398  -4.6507  -4.5228
    -4.4610  -4.4170  -4.3717  -4.3488  -4.2099  -4.0748  -3.9776  -3.9624
    -3.8625  -3.7160  -3.6882  -3.5863  -3.5597  -3.5060  -3.4522  -3.4350
    -3.3769  -3.2777  -3.2054  -3.1587  -3.1287  -3.0700  -3.0414  -2.8457
    -2.7631  -2.6631  -2.3936  -2.3890  -2.3707  -2.2475  -1.8830  -1.6514
    -1.0530  -0.9167  -0.6241  -0.4924  -0.2533  -0.2197  -0.0315   0.0361
     0.3670   0.4086   0.5086   0.5930   0.7326   0.7863   0.8316   0.9345
     0.9670   1.0740

          k = 0.0000-1.0000 0.0000 ( 51922 PWs)   bands (ev):

   -12.7298 -12.7285 -12.4722 -12.4697 -11.7330 -11.7278 -11.4918 -11.4870
   -11.0602 -11.0573 -10.6782 -10.6779 -10.5541 -10.5537 -10.2268 -10.2263
    -9.8622  -9.8571  -9.6622  -9.6591  -9.4854  -9.4587  -9.1355  -9.1201
    -8.2637  -8.2628  -8.1728  -8.1687  -7.8811  -7.8510  -7.4973  -7.4443
    -6.7102  -6.6678  -6.5240  -6.5058  -6.3355  -6.3042  -5.9083  -5.8687
    -5.7152  -5.7031  -5.5310  -5.5118  -5.3814  -5.3686  -5.2014  -5.1599
    -5.0885  -5.0754  -5.0111  -4.9945  -4.9203  -4.8886  -4.8674  -4.8252
    -4.6310  -4.6195  -4.5408  -4.5206  -4.4431  -4.3871  -4.3148  -4.3008
    -4.1924  -4.1853  -3.8646  -3.8624  -3.8106  -3.7970  -3.5972  -3.5846
    -3.4016  -3.3539  -3.3106  -3.2646  -3.1768  -3.1450  -3.0761  -3.0552
    -3.0325  -3.0108  -2.3542  -2.3485  -1.9588  -1.8954  -1.8655  -1.8578
    -0.7203  -0.6710  -0.5149  -0.4555  -0.0418   0.0611   0.1655   0.2689
     0.3784   0.3798   0.4653   0.5051   0.8338   0.9323   1.0994   1.1185
     1.1256   1.2012

          k =-0.5000 0.0000 0.0000 ( 51914 PWs)   bands (ev):

   -13.2313 -13.0850 -12.0400 -11.9617 -11.5285 -11.4793 -11.3750 -11.2507
   -11.1169 -11.0480 -10.6995 -10.6734 -10.4596 -10.2915 -10.0924 -10.0851
   -10.0645 -10.0452  -9.9821  -9.9624  -9.7970  -9.7796  -8.5005  -8.4924
    -8.3667  -8.2942  -8.1151  -8.0015  -7.8865  -7.8462  -7.8264  -7.8018
    -7.7534  -7.7046  -7.3768  -7.0611  -6.6804  -6.4282  -6.3285  -6.2465
    -6.1859  -6.1183  -5.7614  -5.7132  -5.2116  -5.1157  -5.0575  -4.9719
    -4.9348  -4.9096  -4.7662  -4.6805  -4.6470  -4.5414  -4.4248  -4.4126
    -4.3156  -4.2659  -4.2044  -4.0701  -3.9790  -3.8475  -3.7870  -3.7539
    -3.7365  -3.6827  -3.6401  -3.6189  -3.5496  -3.4331  -3.3950  -3.3570
    -3.3012  -3.2416  -3.2034  -3.1811  -2.8747  -2.8192  -2.7525  -2.6196
    -2.4060  -2.3936  -2.3145  -2.3101  -2.1435  -2.0819  -2.0251  -1.9906
    -1.5210  -1.1571  -0.9829  -0.6363  -0.4051  -0.3470  -0.0421   0.1418
     0.3062   0.3900   0.4138   0.4477   0.4868   0.5205   0.5402   0.6357
     0.7523   0.9001

          k =-0.5000 0.5000 0.0000 ( 51960 PWs)   bands (ev):

   -13.0941 -12.9496 -12.0411 -11.9271 -11.9050 -11.8390 -11.4133 -11.3630
   -11.0903 -11.0222 -10.6688 -10.5942 -10.5815 -10.5479 -10.0401  -9.9805
    -9.9688  -9.9298  -9.7797  -9.6992  -9.6872  -9.6677  -9.0633  -9.0038
    -8.4087  -8.3526  -8.1337  -7.9797  -7.8637  -7.8011  -7.5694  -7.3920
    -7.3180  -7.2712  -7.0326  -6.8594  -6.6405  -6.4131  -5.8835  -5.8569
    -5.7876  -5.7271  -5.7147  -5.6976  -5.4944  -5.4111  -5.2510  -5.1523
    -5.1130  -4.9940  -4.9489  -4.9114  -4.8953  -4.8084  -4.4839  -4.4664
    -4.4312  -4.3648  -4.3303  -4.2508  -4.0473  -3.9961  -3.9395  -3.9062
    -3.8651  -3.8348  -3.7923  -3.6486  -3.5843  -3.5393  -3.5045  -3.4276
    -3.3509  -3.2960  -3.2141  -3.1973  -3.1544  -3.0828  -3.0318  -2.9756
    -2.9209  -2.7525  -2.6910  -2.5314  -2.3586  -2.2331  -1.8732  -1.6315
    -1.0188  -0.9308  -0.6154  -0.4450  -0.1156  -0.0202   0.2762   0.3563
     0.4304   0.5453   0.6432   0.7085   0.8061   0.8185   0.8845   0.9320
     1.0456   1.1361

          k =-0.5000-1.0000 0.0000 ( 52096 PWs)   bands (ev):

   -12.6895 -12.6870 -12.5515 -12.5481 -11.5713 -11.5601 -11.4967 -11.4853
   -11.0996 -11.0810 -11.0453 -11.0222 -10.2843 -10.2793 -10.2620 -10.2547
    -9.6453  -9.6328  -9.6105  -9.5841  -9.4961  -9.4765  -9.4453  -9.4349
    -8.2281  -8.2175  -8.1591  -8.1485  -7.7906  -7.7041  -7.6053  -7.5042
    -6.7624  -6.7187  -6.6217  -6.5994  -6.2141  -6.1410  -6.0887  -6.0242
    -5.6639  -5.6066  -5.5575  -5.5216  -5.3965  -5.3796  -5.3309  -5.2153
    -5.1361  -5.0219  -4.9132  -4.8643  -4.7797  -4.7543  -4.6893  -4.6854
    -4.6056  -4.6035  -4.4933  -4.4705  -4.4354  -4.4204  -4.3848  -4.3660
    -4.1504  -4.0924  -4.0360  -4.0147  -3.7648  -3.7021  -3.6200  -3.5421
    -3.4817  -3.4483  -3.3843  -3.2620  -3.1985  -3.1524  -3.0922  -3.0857
    -3.0260  -2.8890  -2.7724  -2.6570  -1.9270  -1.8890  -1.8785  -1.8504
    -0.6659  -0.6561  -0.5054  -0.4998   0.3270   0.3618   0.4978   0.5168
     0.6179   0.6262   0.6713   0.7276   0.8959   0.9288   1.0532   1.0709
     1.1144   1.1410

     the Fermi energy is    -1.5757 ev

!    total energy              =    -355.95926778 Ry
     estimated scf accuracy    <          2.6E-10 Ry
     smearing contrib. (-TS)   =      -0.00102162 Ry
     internal energy E=F+TS    =    -355.95824615 Ry

     The total energy is F=E-TS. E is the sum of the following terms:
     one-electron contribution =   -3006.04121454 Ry
     hartree contribution      =    1532.52857256 Ry
     xc contribution           =    -133.48606127 Ry
     ewald contribution        =    1251.04045710 Ry

     convergence has been achieved in   9 iterations

     negative rho (up, down):  1.676E-02 0.000E+00

     Forces acting on atoms (cartesian axes, Ry/au):

     atom    1 type  2   force =    -0.00322307   -0.02469116    0.00672084
     atom    2 type  2   force =    -0.00322306    0.02469115    0.00672084
     atom    3 type  2   force =     0.00103465   -0.02480389    0.00676953
     atom    4 type  2   force =     0.00103465    0.02480387    0.00676951
     atom    5 type  2   force =     0.00175126   -0.02466547    0.00657071
     atom    6 type  2   force =     0.00175128    0.02466548    0.00657072
     atom    7 type  2   force =    -0.00122561   -0.02479899    0.00643762
     atom    8 type  2   force =    -0.00122559    0.02479898    0.00643762
     atom    9 type  2   force =     0.00257080   -0.02474504    0.00714626
     atom   10 type  2   force =     0.00257080    0.02474504    0.00714626
     atom   11 type  2   force =    -0.00230573   -0.02487727    0.00704171
     atom   12 type  2   force =    -0.00230571    0.02487729    0.00704173
     atom   13 type  2   force =    -0.00175278   -0.02500562    0.00661222
     atom   14 type  2   force =    -0.00175279    0.02500563    0.00661224
     atom   15 type  2   force =     0.00195115   -0.02452958    0.00694246
     atom   16 type  2   force =     0.00195114    0.02452959    0.00694247
     atom   17 type  1   force =     0.00869208    0.00000004   -0.00037899
     atom   18 type  1   force =    -0.00342621    0.00000011    0.00045543
     atom   19 type  1   force =     0.00739027   -0.00000008    0.00093051
     atom   20 type  1   force =    -0.00455344   -0.00000007   -0.00075338
     atom   21 type  1   force =     0.00481036   -0.00000006   -0.00006723
     atom   22 type  1   force =    -0.00523876   -0.00000006    0.00063242
     atom   23 type  1   force =     0.00322590    0.00000005   -0.00082813
     atom   24 type  1   force =    -0.00730440    0.00000005    0.00126992
     atom   25 type  1   force =    -0.00654575    0.00000062   -0.03734508
     atom   26 type  1   force =    -0.00339850   -0.00000019    0.01253650
     atom   27 type  1   force =     0.00471745   -0.00000055   -0.03562900
     atom   28 type  1   force =     0.00068236    0.00000014    0.00869585
     atom   29 type  1   force =     0.00219001   -0.00000008   -0.03500251
     atom   30 type  1   force =    -0.00335110   -0.00000010    0.00406089
     atom   31 type  1   force =     0.00201862    0.00000050   -0.03532430
     atom   32 type  1   force =     0.00099361    0.00000015    0.00828063
     atom   33 type  1   force =     0.00001381   -0.00013166   -0.00016723
     atom   34 type  1   force =     0.00027411   -0.00004673    0.00017508
     atom   35 type  1   force =     0.00041554    0.00005796   -0.00006776
     atom   36 type  1   force =     0.00041605   -0.00005795   -0.00006791
     atom   37 type  1   force =    -0.00003688   -0.00006922    0.00007043
     atom   38 type  1   force =    -0.00003706    0.00006920    0.00007016
     atom   39 type  1   force =     0.00027408    0.00004667    0.00017576
     atom   40 type  1   force =     0.00001359    0.00013117   -0.00016668
     atom   41 type  1   force =    -0.00003101   -0.00005289   -0.00017656
     atom   42 type  1   force =    -0.00010295   -0.00007148    0.00017188
     atom   43 type  1   force =    -0.00004590   -0.00020717    0.00017677
     atom   44 type  1   force =    -0.00004604    0.00020715    0.00017687
     atom   45 type  1   force =     0.00014491   -0.00009939   -0.00015116
     atom   46 type  1   force =     0.00014445    0.00009923   -0.00015086
     atom   47 type  1   force =    -0.00010221    0.00007158    0.00017187
     atom   48 type  1   force =    -0.00003074    0.00005300   -0.00017663
     atom   49 type  1   force =    -0.00019551   -0.00000015    0.00020092
     atom   50 type  1   force =     0.00008242   -0.00000009   -0.00047845
     atom   51 type  1   force =    -0.00021738    0.00000015    0.00001864
     atom   52 type  1   force =    -0.00007660    0.00000010   -0.00006741
     atom   53 type  1   force =     0.00014514   -0.00000001   -0.00005756
     atom   54 type  1   force =     0.00010731   -0.00000012    0.00018261
     atom   55 type  1   force =     0.00036785    0.00000017    0.00018451
     atom   56 type  1   force =     0.00001918   -0.00000002   -0.00006358

     Total force =     0.001314     Total SCF correction =     0.000017
     Energy error            =      3.3E-06 Ry
     Gradient error          =      4.8E-04 Ry/Bohr

     bfgs converged in  86 scf cycles and  84 bfgs steps
     (criteria: energy <  5.0E-05 Ry, force <  5.0E-04 Ry/Bohr)

     End of BFGS Geometry Optimization

     Final energy             =    -355.9592677782 Ry

     File ./si.bfgs deleted, as requested
Begin final coordinates

ATOMIC_POSITIONS (alat)
H             0.0000000000       -0.0675500000       -0.0675500000    0   0   0
H             0.0000000000        0.0675500000       -0.0675500000    0   0   0
H             0.2500000000       -0.0675500000       -0.0675500000    0   0   0
H             0.2500000000        0.0675500000       -0.0675500000    0   0   0
H             0.2500000000        0.1824500000       -0.0675500000    0   0   0
H             0.2500000000        0.3175500000       -0.0675500000    0   0   0
H             0.5000000000        0.1824500000       -0.0675500000    0   0   0
H             0.5000000000        0.3175500000       -0.0675500000    0   0   0
H             0.7500000000        0.1824500000       -0.0675500000    0   0   0
H             0.7500000000        0.3175500000       -0.0675500000    0   0   0
H             0.0000000000        0.1824500000       -0.0675500000    0   0   0
H             0.0000000000        0.3175500000       -0.0675500000    0   0   0
H             0.5000000000       -0.0675500000       -0.0675500000    0   0   0
H             0.5000000000        0.0675500000       -0.0675500000    0   0   0
H             0.7500000000       -0.0675500000       -0.0675500000    0   0   0
H             0.7500000000        0.0675500000       -0.0675500000    0   0   0
Si            0.0000000000        0.0000000000        0.0000000000    0   0   0
Si            0.2500000000        0.0000000000        0.0000000000    0   0   0
Si            0.0000000000        0.2500000000        0.0000000000    0   0   0
Si            0.2500000000        0.2500000000        0.0000000000    0   0   0
Si            0.5000000000        0.0000000000        0.0000000000    0   0   0
Si            0.7500000000        0.0000000000        0.0000000000    0   0   0
Si            0.5000000000        0.2500000000        0.0000000000    0   0   0
Si            0.7500000000        0.2500000000        0.0000000000    0   0   0
Si            0.1250000000        0.0000000000        0.0883883480    0   0   0
Si            0.3750000000        0.0000000000        0.0883883480    0   0   0
Si            0.1250000000        0.2500000000        0.0883883480    0   0   0
Si            0.3750000000        0.2500000000        0.0883883480    0   0   0
Si            0.6250000000        0.0000000000        0.0883883480    0   0   0
Si            0.8750000000        0.0000000000        0.0883883480    0   0   0
Si            0.6250000000        0.2500000000        0.0883883480    0   0   0
Si            0.8750000000        0.2500000000        0.0883883480    0   0   0
Si            0.6207588552        0.3749875579        0.1724216973
Si            0.1243328160        0.1248946806        0.1724817701
Si            0.3749275919        0.1252933543        0.1816397960
Si            0.3749273415        0.3747066344        0.1816398850
Si            0.8764078202        0.1247046914        0.1809125705
Si            0.8764079483        0.3752953199        0.1809126343
Si            0.1243328033        0.3751053295        0.1724814790
Si            0.6207589176        0.1250125017        0.1724215525
Si            0.7459154809        0.3752038583        0.2665677197
Si            0.2448163936        0.1322291472        0.2674140970
Si            0.5038331898        0.1252248968        0.2692460576
Si            0.5038330573        0.3747750576        0.2692460940
Si            0.0048711358        0.1172958434        0.2687295594
Si            0.0048713903        0.3827042399        0.2687294270
Si            0.2448160428        0.3677708159        0.2674140578
Si            0.7459153776        0.1247961521        0.2665676752
Si            0.0407272774        0.0000000495        0.3646012786
Si            0.1858028872        0.0000000780        0.3131364419
Si            0.0637255021        0.2499999629        0.3129577454
Si            0.2084622076        0.2499999468        0.3625296614
Si            0.5305422731       -0.0000000119        0.3571856942
Si            0.6728667585       -0.0000000064        0.3109621253
Si            0.5312123334        0.2499999540        0.3574702052
Si            0.6736113975        0.2500000305        0.3110806473
End final coordinates



     Writing all to output data dir ./si.save/
 
     init_run     :      3.66s CPU      9.92s WALL (       1 calls)
     electrons    :   5567.69s CPU   5658.29s WALL (      86 calls)
     update_pot   :     38.91s CPU     39.69s WALL (      85 calls)
     forces       :    104.29s CPU    106.30s WALL (      86 calls)

     Called by init_run:
     wfcinit      :      2.72s CPU      7.12s WALL (       1 calls)
                                        7.12s GPU  (       1 calls)
     potinit      :      0.30s CPU      0.49s WALL (       1 calls)
     hinit0       :      0.23s CPU      0.42s WALL (       1 calls)

     Called by electrons:
     c_bands      :   4792.19s CPU   4838.09s WALL (    1096 calls)
     sum_band     :    679.47s CPU    700.24s WALL (    1096 calls)
     v_of_rho     :     32.74s CPU     38.31s WALL (    1160 calls)
     newd         :     15.31s CPU     21.65s WALL (    1160 calls)
                                       12.75s GPU  (    1075 calls)
     mix_rho      :     49.71s CPU     52.30s WALL (    1096 calls)

     Called by c_bands:
     init_us_2    :     86.95s CPU     87.95s WALL (   13674 calls)
     init_us_2:gp :     86.30s CPU     87.32s WALL (   13674 calls)
     cegterg      :   4370.48s CPU   4405.81s WALL (    6576 calls)

     Called by *egterg:
     cdiaghg      :    416.35s CPU    423.57s WALL (   32988 calls)
                                      423.36s GPU  (   32988 calls)
     h_psi        :   2755.18s CPU   2783.12s WALL (   33636 calls)
                                     2782.12s GPU  (   33636 calls)
     s_psi        :     19.12s CPU    517.40s WALL (   33636 calls)
                                      515.08s GPU  (   33636 calls)
     g_psi        :      0.25s CPU      3.74s WALL (   27054 calls)
                                        3.58s GPU  (   27054 calls)

     Called by h_psi:
     h_psi:calbec :    534.40s CPU    537.79s WALL (   33636 calls)
                                      537.59s GPU  (   33636 calls)
     vloc_psi     :   1677.64s CPU   1700.73s WALL (   33636 calls)
                                     1697.81s GPU  (   33636 calls)
     add_vuspsi   :     21.50s CPU    542.25s WALL (   33636 calls)
                                      542.00s GPU  (   33636 calls)

     General routines
     calbec       :    783.29s CPU    787.41s WALL (   42276 calls)
     fft          :     43.36s CPU     52.11s WALL (   13813 calls)
                                       19.96s GPU  (   10226 calls)
     ffts         :      7.74s CPU      8.36s WALL (    1096 calls)
     fftw         :   1891.79s CPU   2027.88s WALL (  312956 calls)
                                     1939.98s GPU  (  312956 calls)
 
     Parallel routines
 
     PWSCF        :      1h35m CPU      1h37m WALL

 
   This run was terminated on:  18:46:40   9Jul2022            

=------------------------------------------------------------------------------=
   JOB DONE.
=------------------------------------------------------------------------------=
