

 Parallel Execution: Process Information
 ==============================================================================
 Rank   Node Name                              NodeID   MyNodeRank  NodeMaster
    0   adf1                                      0          0          0
    1   adf1                                      0          1         -1
    2   adf1                                      0          2         -1
    3   adf1                                      0          3         -1
    4   adf1                                      0          4         -1
    5   adf1                                      0          5         -1
    6   adf1                                      1          0          1
    7   adf1                                      1          1         -1
    8   adf1                                      1          2         -1
    9   adf1                                      1          3         -1
   10   adf1                                      1          4         -1
   11   adf1                                      1          5         -1
 ==============================================================================


May use up to 11697MB of RAM as shared memory on node 0
May use up to 11718MB of RAM as shared memory on node 1

 *******************************************************************************
 *                                                                             *
 *  --------------------------------                                           *
 *   Amsterdam Modeling Suite (AMS)              2021.105                      *
 *  --------------------------------                                           *
 *                                               r97261 2021-09-16             *
 *                                                                             *
 *                                                                             *
 *                              =================                              *
 *                              |               |                              *
 *                              |     A M S     |                              *
 *                              |               |                              *
 *                              =================                              *
 *                                                                             *
 *                                                                             *
 *   Online information and documentation:  https://www.scm.com/support/       *
 *   E-mail:  support@scm.com   info@scm.com                                   *
 *                                                                             *
 *   Scientific publications using AMS results must be properly referenced     *
 *   See the User Manuals (or the web site) for recommended citations          *
 *   The terms and conditions of the End User License Agreement apply to       *
 *   the use of AMS, https://www.scm.com/license-terms/                        *
 *                                                                             *
 **********************  x86_64_linux_intel / intelmpi  ************************
 
 Licensed to: Dr. Miroslav Ilias / Matej Bel University, Department Chemistry, Fac. Natural Sciences / Banska Bystrica / SLOVAKIA
 SCM User ID: u17848
  
 AMS 2021.105  RunTime: Nov04-2021 21:29:05  ShM Nodes: 2  Procs: 12

 AMS jobname: ams
 AMS jobid  : 1655164550

 Start   directory: /home/milias/Work/projects/open-collection/theoretical_chemistry/projects/lead_water_complexes/adf/Pb-2H2O_2p/tmp.milias.30701.0.noindex/
 Results directory: /home/milias/Work/projects/open-collection/theoretical_chemistry/projects/lead_water_complexes/adf/Pb-2H2O_2p/Pb-2H2O_2p.geoptfreq_srzora_bp86_dzp_sc.results/
 Scratch directory: /tmp/amstmp_ams_kid0.1655164550/


 Communication costs MPI_COMM_WORLD:      2.799 usec per message,   0.0271 usec per 8-byte item
 Communication costs for intra-node:      1.574 usec per message,   0.0131 usec per 8-byte item

 RNG seed: -762952219 -1008587145 -1397892050 -1595881643 745312718 176663579 -554554535 852381787



                     *************************************************************************
                     *  ADF 2021.105  RunTime: Nov04-2021 21:29:05  ShM Nodes: 2  Procs: 12  *
                     *************************************************************************
  
       ***************************
       *  GEOMETRY OPTIMIZATION  *
       ***************************

Optimization Method                    Quasi Newton
Optimization Coordinates               Delocalized Coordinates
Optimize lattice                       F
 
 ------------------------------------------------------
 Convergence criteria (Hartree,Angstrom)
 ------------------------------------------------------
 Maximum gradient               0.001000000000
 Maximum rms gradient           0.000666666667
 Maximum step allowed           0.010000000000
 Maximum rms step allowed       0.006666666667
 Maximum energy change allowe   0.000070000000
 Maximum stress energy allowe   0.000500000000
 
Initial model Hessian                  Automatic Hessian
 
------------------------------------
Quasi-Newton Optimizer Parameters
------------------------------------
Hessian Update Method                  BFGS
Maximum number of steps                  250
First GDIIS cycle                          0
Maximum GDIIS vectors                      0
Trust radius (bohr)                        0.200000
Trust radius varies                        T
Constraints converged at all steps         T
Use projector                              T
 
 Rigid motions settings for: old optimizer
 Atomic rotations (x,y,z):     T T T
 Atomic translations (x,y,z):  T T T
 Tolerance:                   1.000000000000000E-006
 
--------
Geometry
--------
Formula: H4O2Pb
Atoms
  Index Symbol   x (angstrom)   y (angstrom)   z (angstrom)
      1     Pb    -0.31684993    -0.64206434     2.70885346
      2      H     0.55635834    -0.66488906    -0.99126099
      3      H    -0.61343451     0.34551826    -0.97433079
      4      O    -0.40294915    -0.59038179    -1.22589321
      5      H     1.57515019     2.01508589     0.90147831
      6      O     0.94706384     1.96022096     0.13555956
      7      H     0.71230296     2.90641177    -0.04784821
 
Total System Charge             2.00000
Bonding info available!
 
 
----------------
ADF Engine Input
----------------
 
 Basis
 Type DZP
 Core Small
 End
 XC
 GGA BP86
 End
 

 Title: *** (NO TITLE) ***

 Using automatic Hessian for delocalized coordinates.
 *** GOStep1 ***

 Energy gradients wrt nuclear displacements
 ==========================================

     Atom      Cartesian (a.u./angstrom)
                 X         Y         Z
 ----------------------------------------
     1 Pb    0.006058 -0.001295  0.019997
     2 H    -0.003834 -0.001170  0.020461
     3 H    -0.002745 -0.002548  0.016286
     4 O     0.001332  0.001024 -0.047524
     5 H    -0.005228 -0.012194  0.018318
     6 O     0.002176  0.017646 -0.027758
     7 H     0.002241 -0.001463  0.000220
 ----------------------------------------
 Mulliken charges used for AMS results%charges...
 
----------------------------------------------------------------------
Geometry Convergence after Step   1       (Hartree/Angstrom,Angstrom)
----------------------------------------------------------------------
current energy                               -0.33372028 Hartree
energy change                      -0.33372028     0.00007000    F
constrained gradient max            0.04751559     0.00100000    F
constrained gradient rms            0.01545963     0.00066667    F
gradient max                        0.04751559
gradient rms                        0.01545963
cart. step max                      0.07540150     0.01000000    F
cart. step rms                      0.03606998     0.00666667    F
 
 
--------
Geometry
--------
Formula: H4O2Pb
Atoms
  Index Symbol   x (angstrom)   y (angstrom)   z (angstrom)
      1     Pb    -0.34024156    -0.63051117     2.73884748
      2      H     0.55336348    -0.68830044    -1.06666249
      3      H    -0.60085137     0.33419977    -1.03803240
      4      O    -0.42748249    -0.62982089    -1.18627603
      5      H     1.63917208     2.06173553     0.88128123
      6      O     0.94345499     1.97134763     0.18654442
      7      H     0.69022660     2.91125126    -0.00914406
 
Total System Charge             2.00000
Bonding info available!
 
 *** GOStep2 ***

 Energy gradients wrt nuclear displacements
 ==========================================

     Atom      Cartesian (a.u./angstrom)
                 X         Y         Z
 ----------------------------------------
     1 Pb    0.004681 -0.002984  0.022617
     2 H    -0.003113  0.001389  0.017148
     3 H    -0.000303 -0.002001  0.013345
     4 O    -0.001409 -0.001245 -0.043825
     5 H    -0.009015 -0.009408  0.010973
     6 O     0.006677  0.013705 -0.020317
     7 H     0.002482  0.000544  0.000059
 ----------------------------------------
 Mulliken charges used for AMS results%charges...

 dE(predicted):    -0.48209E-02, dE(actual):    -0.60358E-02, Trust radius:    0.400000, all in a.u.
 
----------------------------------------------------------------------
Geometry Convergence after Step   2       (Hartree/Angstrom,Angstrom)
----------------------------------------------------------------------
current energy                               -0.33975604 Hartree
energy change                      -0.00603575     0.00007000    F
constrained gradient max            0.04379948     0.00100000    F
constrained gradient rms            0.01362107     0.00066667    F
gradient max                        0.04379948
gradient rms                        0.01362107
cart. step max                      0.16512340     0.01000000    F
cart. step rms                      0.08627291     0.00666667    F
 
 
--------
Geometry
--------
Formula: H4O2Pb
Atoms
  Index Symbol   x (angstrom)   y (angstrom)   z (angstrom)
      1     Pb    -0.38182399    -0.58891983     2.77319271
      2      H     0.51781397    -0.78563920    -1.23178589
      3      H    -0.61027760     0.25494285    -1.18802642
      4      O    -0.46447980    -0.72210262    -1.11530416
      5      H     1.77392191     2.17713849     0.84663585
      6      O     0.95927811     2.03354233     0.30895290
      7      H     0.66320913     2.96093967     0.11289315
 
Total System Charge             2.00000
Bonding info available!
 
 *** GOStep3 ***

 Energy gradients wrt nuclear displacements
 ==========================================

     Atom      Cartesian (a.u./angstrom)
                 X         Y         Z
 ----------------------------------------
     1 Pb    0.001328 -0.006042  0.026325
     2 H     0.000238  0.006201  0.009775
     3 H     0.004474 -0.000152  0.008147
     4 O    -0.007692 -0.007377 -0.034167
     5 H    -0.008341 -0.004787  0.006541
     6 O     0.006285  0.010303 -0.016118
     7 H     0.003710  0.001853 -0.000504
 ----------------------------------------
 Mulliken charges used for AMS results%charges...

 dE(predicted):    -0.95005E-02, dE(actual):    -0.96372E-02, Trust radius:    0.800000, all in a.u.
 
----------------------------------------------------------------------
Geometry Convergence after Step   3       (Hartree/Angstrom,Angstrom)
----------------------------------------------------------------------
current energy                               -0.34939323 Hartree
energy change                      -0.00963720     0.00007000    F
constrained gradient max            0.03416547     0.00100000    F
constrained gradient rms            0.01152808     0.00066667    F
gradient max                        0.03416547
gradient rms                        0.01152808
cart. step max                      0.20349506     0.01000000    F
cart. step rms                      0.12437593     0.00666667    F
 
 
--------
Geometry
--------
Formula: H4O2Pb
Atoms
  Index Symbol   x (angstrom)   y (angstrom)   z (angstrom)
      1     Pb    -0.40557396    -0.52343591     2.75432206
      2      H     0.42265363    -0.98913426    -1.40728350
      3      H    -0.65694132     0.08521951    -1.38116984
      4      O    -0.50312520    -0.84607522    -1.07886363
      5      H     1.91613196     2.34498655     0.83877697
      6      O     1.01717785     2.17118127     0.46859612
      7      H     0.66731879     3.08715974     0.31217997
 
Total System Charge             2.00000
Bonding info available!
 
 *** GOStep4 ***

 Energy gradients wrt nuclear displacements
 ==========================================

     Atom      Cartesian (a.u./angstrom)
                 X         Y         Z
 ----------------------------------------
     1 Pb   -0.002476 -0.008615  0.027764
     2 H     0.000762  0.010185  0.001061
     3 H     0.008888 -0.000374  0.001890
     4 O    -0.010905 -0.011245 -0.020539
     5 H    -0.005397 -0.002480  0.003251
     6 O     0.006022  0.009975 -0.011788
     7 H     0.003106  0.002553 -0.001638
 ----------------------------------------
 Mulliken charges used for AMS results%charges...
 Rebuilding optimization coordinates

 dE(predicted):    -0.10407E-01, dE(actual):    -0.66435E-02, Trust radius:    0.800000, all in a.u.
 
----------------------------------------------------------------------
Geometry Convergence after Step   4       (Hartree/Angstrom,Angstrom)
----------------------------------------------------------------------
current energy                               -0.35603674 Hartree
energy change                      -0.00664351     0.00007000    F
constrained gradient max            0.02781160     0.00100000    F
constrained gradient rms            0.00987040     0.00066667    F
gradient max                        0.02781160
gradient rms                        0.00987040
cart. step max                      0.22235865     0.01000000    F
cart. step rms                      0.10990611     0.00666667    F
 
 
--------
Geometry
--------
Formula: H4O2Pb
Atoms
  Index Symbol   x (angstrom)   y (angstrom)   z (angstrom)
      1     Pb    -0.39648877    -0.47137721     2.69362070
      2      H     0.30704820    -1.21149291    -1.52209478
      3      H    -0.68973334    -0.06410324    -1.52572687
      4      O    -0.54472695    -0.94203631    -1.08729409
      5      H     2.00855627     2.51522550     0.88326224
      6      O     1.08786397     2.30254889     0.59442665
      7      H     0.68512236     3.20113696     0.47036430
 
Total System Charge             2.00000
Bonding info available!
 
 *** GOStep5 ***

 Energy gradients wrt nuclear displacements
 ==========================================

     Atom      Cartesian (a.u./angstrom)
                 X         Y         Z
 ----------------------------------------
     1 Pb   -0.004626 -0.009774  0.027532
     2 H     0.000879  0.009969 -0.004340
     3 H     0.009095 -0.001112 -0.002188
     4 O    -0.010531 -0.010583 -0.010827
     5 H    -0.004387 -0.001158  0.000679
     6 O     0.007286  0.010017 -0.008859
     7 H     0.002283  0.002641 -0.001998
 ----------------------------------------
 Mulliken charges used for AMS results%charges...

 dE(predicted):    -0.52696E-02, dE(actual):    -0.30245E-02, Trust radius:    0.800000, all in a.u.
 
----------------------------------------------------------------------
Geometry Convergence after Step   5       (Hartree/Angstrom,Angstrom)
----------------------------------------------------------------------
current energy                               -0.35906127 Hartree
energy change                      -0.00302452     0.00007000    F
constrained gradient max            0.02752683     0.00100000    F
constrained gradient rms            0.00897597     0.00066667    F
gradient max                        0.02752683
gradient rms                        0.00897597
cart. step max                      0.22256285     0.01000000    F
cart. step rms                      0.10395282     0.00666667    F
 
 
--------
Geometry
--------
Formula: H4O2Pb
Atoms
  Index Symbol   x (angstrom)   y (angstrom)   z (angstrom)
      1     Pb    -0.37311661    -0.42533502     2.61390133
      2      H     0.17768382    -1.43405576    -1.60459866
      3      H    -0.70216254    -0.19998985    -1.64835720
      4      O    -0.58661533    -1.02889656    -1.11493063
      5      H     2.08137054     2.67509481     0.93859548
      6      O     1.15258636     2.43033120     0.70524717
      7      H     0.70789548     3.31275287     0.61670066
 
Total System Charge             2.00000
Bonding info available!
 
 *** GOStep6 ***

 Energy gradients wrt nuclear displacements
 ==========================================

     Atom      Cartesian (a.u./angstrom)
                 X         Y         Z
 ----------------------------------------
     1 Pb   -0.006022 -0.010559  0.026998
     2 H     0.000294  0.009369 -0.007882
     3 H     0.008578 -0.003288 -0.004912
     4 O    -0.009384 -0.008215 -0.004674
     5 H    -0.003926 -0.000113 -0.001259
     6 O     0.008911  0.010464 -0.006374
     7 H     0.001549  0.002342 -0.001897
 ----------------------------------------
 Mulliken charges used for AMS results%charges...

 dE(predicted):    -0.25208E-02, dE(actual):    -0.17070E-02, Trust radius:    0.800000, all in a.u.
 
----------------------------------------------------------------------
Geometry Convergence after Step   6       (Hartree/Angstrom,Angstrom)
----------------------------------------------------------------------
current energy                               -0.36076829 Hartree
energy change                      -0.00170702     0.00007000    F
constrained gradient max            0.02698741     0.00100000    F
constrained gradient rms            0.00864803     0.00066667    F
gradient max                        0.02698741
gradient rms                        0.00864803
cart. step max                      0.21272352     0.01000000    F
cart. step rms                      0.09687810     0.00666667    F
 
 
--------
Geometry
--------
Formula: H4O2Pb
Atoms
  Index Symbol   x (angstrom)   y (angstrom)   z (angstrom)
      1     Pb    -0.33667603    -0.38417308     2.51445496
      2      H     0.04627432    -1.64677928    -1.65108759
      3      H    -0.69582610    -0.31650833    -1.74849443
      4      O    -0.63313517    -1.11315191    -1.15955222
      5      H     2.13719787     2.81284678     0.99832365
      6      O     1.20514241     2.55275057     0.79599940
      7      H     0.73466443     3.42491694     0.75691436
 
Total System Charge             2.00000
Bonding info available!
 
 *** GOStep7 ***

 Energy gradients wrt nuclear displacements
 ==========================================

     Atom      Cartesian (a.u./angstrom)
                 X         Y         Z
 ----------------------------------------
     1 Pb   -0.006626 -0.010878  0.026487
     2 H     0.000577  0.005978 -0.007727
     3 H     0.005480 -0.002902 -0.004771
     4 O    -0.006741 -0.006191 -0.005232
     5 H    -0.003817  0.000616 -0.002326
     6 O     0.010135  0.011390 -0.004752
     7 H     0.000993  0.001987 -0.001679
 ----------------------------------------
 Mulliken charges used for AMS results%charges...

 dE(predicted):    -0.31361E-02, dE(actual):    -0.14870E-02, Trust radius:    0.800000, all in a.u.
 
----------------------------------------------------------------------
Geometry Convergence after Step   7       (Hartree/Angstrom,Angstrom)
----------------------------------------------------------------------
current energy                               -0.36225530 Hartree
energy change                      -0.00148701     0.00007000    F
constrained gradient max            0.02646377     0.00100000    F
constrained gradient rms            0.00820867     0.00066667    F
gradient max                        0.02646377
gradient rms                        0.00820867
cart. step max                      0.21330357     0.01000000    F
cart. step rms                      0.10593711     0.00666667    F
 
 
--------
Geometry
--------
Formula: H4O2Pb
Atoms
  Index Symbol   x (angstrom)   y (angstrom)   z (angstrom)
      1     Pb    -0.28644554    -0.32984621     2.38201363
      2      H    -0.09894938    -1.86008285    -1.68441629
      3      H    -0.70191738    -0.45747342    -1.85933368
      4      O    -0.68052966    -1.20847361    -1.21134252
      5      H     2.19425177     2.96488786     1.08446586
      6      O     1.26600767     2.68273653     0.89203145
      7      H     0.76522424     3.53815338     0.90313969
 
Total System Charge             2.00000
Bonding info available!
 
 *** GOStep8 ***

 Energy gradients wrt nuclear displacements
 ==========================================

     Atom      Cartesian (a.u./angstrom)
                 X         Y         Z
 ----------------------------------------
     1 Pb   -0.007150 -0.011039  0.026002
     2 H    -0.000124  0.003072 -0.006669
     3 H     0.002595 -0.002706 -0.003684
     4 O    -0.003613 -0.005048 -0.007900
     5 H    -0.003372  0.001581 -0.003135
     6 O     0.011086  0.012707 -0.003216
     7 H     0.000578  0.001433 -0.001399
 ----------------------------------------
 Mulliken charges used for AMS results%charges...

 dE(predicted):    -0.34802E-02, dE(actual):    -0.16824E-02, Trust radius:    0.800000, all in a.u.
 
----------------------------------------------------------------------
Geometry Convergence after Step   8       (Hartree/Angstrom,Angstrom)
----------------------------------------------------------------------
current energy                               -0.36393774 Hartree
energy change                      -0.00168245     0.00007000    F
constrained gradient max            0.02595706     0.00100000    F
constrained gradient rms            0.00803043     0.00066667    F
gradient max                        0.02595706
gradient rms                        0.00803043
cart. step max                      0.21407037     0.01000000    F
cart. step rms                      0.11499696     0.00666667    F
 
 
--------
Geometry
--------
Formula: H4O2Pb
Atoms
  Index Symbol   x (angstrom)   y (angstrom)   z (angstrom)
      1     Pb    -0.21936109    -0.25449080     2.20093750
      2      H    -0.26393138    -2.07415322    -1.69156909
      3      H    -0.71112560    -0.61720920    -1.98044954
      4      O    -0.72079332    -1.30357231    -1.26535209
      5      H     2.25061089     3.12475093     1.18456784
      6      O     1.33068921     2.81325600     0.99336081
      7      H     0.79155302     3.64132030     1.06506271
 
Total System Charge             2.00000
Bonding info available!
 
 *** GOStep9 ***

 Energy gradients wrt nuclear displacements
 ==========================================

     Atom      Cartesian (a.u./angstrom)
                 X         Y         Z
 ----------------------------------------
     1 Pb   -0.007904 -0.011253  0.025852
     2 H    -0.001581  0.000395 -0.004060
     3 H    -0.000598 -0.001347 -0.001914
     4 O     0.000219 -0.005038 -0.013229
     5 H    -0.002657  0.002815 -0.003915
     6 O     0.012624  0.013836 -0.001569
     7 H    -0.000103  0.000591 -0.001165
 ----------------------------------------
 Mulliken charges used for AMS results%charges...
 Rebuilding optimization coordinates

 dE(predicted):    -0.39664E-02, dE(actual):    -0.24689E-02, Trust radius:    0.800000, all in a.u.
 
----------------------------------------------------------------------
Geometry Convergence after Step   9       (Hartree/Angstrom,Angstrom)
----------------------------------------------------------------------
current energy                               -0.36640665 Hartree
energy change                      -0.00246890     0.00007000    F
constrained gradient max            0.02580542     0.00100000    F
constrained gradient rms            0.00836100     0.00066667    F
gradient max                        0.02580542
gradient rms                        0.00836100
cart. step max                      0.20693216     0.01000000    F
cart. step rms                      0.10424848     0.00666667    F
 
 
--------
Geometry
--------
Formula: H4O2Pb
Atoms
  Index Symbol   x (angstrom)   y (angstrom)   z (angstrom)
      1     Pb    -0.15979643    -0.15985450     1.99400535
      2      H    -0.36405804    -2.23364472    -1.68004219
      3      H    -0.78113859    -0.77934369    -2.08243530
      4      O    -0.74993237    -1.39925109    -1.31094814
      5      H     2.30017225     3.25265957     1.29442313
      6      O     1.39017048     2.92449143     1.08042879
      7      H     0.82222444     3.72484468     1.21112650
 
Total System Charge             2.00000
Bonding info available!
 
 *** GOStep10 ***

 Energy gradients wrt nuclear displacements
 ==========================================

     Atom      Cartesian (a.u./angstrom)
                 X         Y         Z
 ----------------------------------------
     1 Pb   -0.008666 -0.011135  0.025952
     2 H    -0.002801 -0.001196 -0.000821
     3 H    -0.002832  0.000621  0.000025
     4 O     0.002819 -0.007265 -0.019989
     5 H    -0.001974  0.004274 -0.004165
     6 O     0.013847  0.015106 -0.000163
     7 H    -0.000392 -0.000406 -0.000841
 ----------------------------------------
 Mulliken charges used for AMS results%charges...

 dE(predicted):    -0.72304E-02, dE(actual):    -0.30054E-02, Trust radius:    0.800000, all in a.u.
 
----------------------------------------------------------------------
Geometry Convergence after Step  10       (Hartree/Angstrom,Angstrom)
----------------------------------------------------------------------
current energy                               -0.36941205 Hartree
energy change                      -0.00300540     0.00007000    F
constrained gradient max            0.02593012     0.00100000    F
constrained gradient rms            0.00928827     0.00066667    F
gradient max                        0.02593012
gradient rms                        0.00928827
cart. step max                      0.20862291     0.01000000    F
cart. step rms                      0.09296770     0.00666667    F
 
 
--------
Geometry
--------
Formula: H4O2Pb
Atoms
  Index Symbol   x (angstrom)   y (angstrom)   z (angstrom)
      1     Pb    -0.09801285    -0.06379446     1.78538243
      2      H    -0.45525910    -2.36245655    -1.65345116
      3      H    -0.84318301    -0.92541250    -2.16721730
      4      O    -0.76850695    -1.47507378    -1.34819950
      5      H     2.33867105     3.35863121     1.39555886
      6      O     1.44010602     3.01499585     1.15546837
      7      H     0.84382657     3.78301192     1.33901645
 
Total System Charge             2.00000
Bonding info available!
 
 *** GOStep11 ***

 Energy gradients wrt nuclear displacements
 ==========================================

     Atom      Cartesian (a.u./angstrom)
                 X         Y         Z
 ----------------------------------------
     1 Pb   -0.009229 -0.010715  0.025772
     2 H    -0.003430 -0.001061  0.001656
     3 H    -0.003781  0.001635  0.001563
     4 O     0.003546 -0.010693 -0.025670
     5 H    -0.001569  0.005796 -0.004046
     6 O     0.015344  0.016254  0.001258
     7 H    -0.000881 -0.001215 -0.000532
 ----------------------------------------
 Mulliken charges used for AMS results%charges...

 dE(predicted):    -0.72003E-02, dE(actual):    -0.30255E-02, Trust radius:    0.800000, all in a.u.
 
----------------------------------------------------------------------
Geometry Convergence after Step  11       (Hartree/Angstrom,Angstrom)
----------------------------------------------------------------------
current energy                               -0.37243755 Hartree
energy change                      -0.00302550     0.00007000    F
constrained gradient max            0.02577763     0.00100000    F
constrained gradient rms            0.01033099     0.00066667    F
gradient max                        0.02577763
gradient rms                        0.01033099
cart. step max                      0.21179445     0.01000000    F
cart. step rms                      0.07540838     0.00666667    F
 
 
--------
Geometry
--------
Formula: H4O2Pb
Atoms
  Index Symbol   x (angstrom)   y (angstrom)   z (angstrom)
      1     Pb    -0.03594420     0.03457741     1.57358798
      2      H    -0.51501321    -2.44276866    -1.60511868
      3      H    -0.90434059    -1.03685196    -2.21944708
      4      O    -0.76874020    -1.51776453    -1.36633848
      5      H     2.35773871     3.41550524     1.48472306
      6      O     1.47063145     3.06961195     1.20530945
      7      H     0.85330976     3.80759224     1.43384188
 
Total System Charge             2.00000
Bonding info available!
 
 *** GOStep12 ***

 Energy gradients wrt nuclear displacements
 ==========================================

     Atom      Cartesian (a.u./angstrom)
                 X         Y         Z
 ----------------------------------------
     1 Pb   -0.009484 -0.010275  0.025838
     2 H    -0.003015 -0.000872  0.003367
     3 H    -0.003873  0.002854  0.002061
     4 O     0.001967 -0.014880 -0.029294
     5 H    -0.001160  0.007210 -0.003486
     6 O     0.016249  0.018219  0.001973
     7 H    -0.000684 -0.002255 -0.000460
 ----------------------------------------
 Mulliken charges used for AMS results%charges...

 dE(predicted):    -0.98452E-02, dE(actual):    -0.43425E-02, Trust radius:    0.800000, all in a.u.
 
----------------------------------------------------------------------
Geometry Convergence after Step  12       (Hartree/Angstrom,Angstrom)
----------------------------------------------------------------------
current energy                               -0.37678003 Hartree
energy change                      -0.00434248     0.00007000    F
constrained gradient max            0.02934433     0.00100000    F
constrained gradient rms            0.01126775     0.00066667    F
gradient max                        0.02934433
gradient rms                        0.01126775
cart. step max                      0.21387263     0.01000000    F
cart. step rms                      0.06392836     0.00666667    F
 
 
--------
Geometry
--------
Formula: H4O2Pb
Atoms
  Index Symbol   x (angstrom)   y (angstrom)   z (angstrom)
      1     Pb     0.02970671     0.13259157     1.35971535
      2      H    -0.55414983    -2.47537462    -1.53116688
      3      H    -0.95042392    -1.10880291    -2.23863307
      4      O    -0.74760688    -1.52134626    -1.36404335
      5      H     2.35554371     3.41759336     1.55286608
      6      O     1.47747968     3.08671293     1.22814699
      7      H     0.84709227     3.79852762     1.49967301
 
Total System Charge             2.00000
Bonding info available!
 
 *** GOStep13 ***

 Energy gradients wrt nuclear displacements
 ==========================================

     Atom      Cartesian (a.u./angstrom)
                 X         Y         Z
 ----------------------------------------
     1 Pb   -0.009355 -0.009757  0.026257
     2 H    -0.001984  0.000062  0.004418
     3 H    -0.003055  0.003409  0.002634
     4 O    -0.001653 -0.019476 -0.033177
     5 H    -0.000939  0.008048 -0.002275
     6 O     0.017748  0.020548  0.002215
     7 H    -0.000762 -0.002835 -0.000071
 ----------------------------------------
 Mulliken charges used for AMS results%charges...
 Rebuilding optimization coordinates

 dE(predicted):    -0.11518E-01, dE(actual):    -0.66250E-02, Trust radius:    0.800000, all in a.u.
 
----------------------------------------------------------------------
Geometry Convergence after Step  13       (Hartree/Angstrom,Angstrom)
----------------------------------------------------------------------
current energy                               -0.38340502 Hartree
energy change                      -0.00662499     0.00007000    F
constrained gradient max            0.03318370     0.00100000    F
constrained gradient rms            0.01239786     0.00066667    F
gradient max                        0.03318370
gradient rms                        0.01239786
cart. step max                      0.21448661     0.01000000    F
cart. step rms                      0.06603773     0.00666667    F
 
 
--------
Geometry
--------
Formula: H4O2Pb
Atoms
  Index Symbol   x (angstrom)   y (angstrom)   z (angstrom)
      1     Pb     0.09752981     0.22856879     1.14522875
      2      H    -0.56951441    -2.44923579    -1.42566424
      3      H    -0.97462489    -1.12717687    -2.21603571
      4      O    -0.69643379    -1.47436240    -1.33393870
      5      H     2.32695738     3.35092170     1.58805198
      6      O     1.45375015     3.05437545     1.21861389
      7      H     0.81997749     3.74681081     1.53030219
 
Total System Charge             2.00000
Bonding info available!
 
 *** GOStep14 ***

 Energy gradients wrt nuclear displacements
 ==========================================

     Atom      Cartesian (a.u./angstrom)
                 X         Y         Z
 ----------------------------------------
     1 Pb   -0.008813 -0.009129  0.026430
     2 H    -0.000466  0.001490  0.004243
     3 H    -0.001464  0.003367  0.002847
     4 O    -0.006802 -0.024531 -0.035246
     5 H    -0.000707  0.008007 -0.000712
     6 O     0.019141  0.024155  0.002084
     7 H    -0.000889 -0.003359  0.000355
 ----------------------------------------
 Mulliken charges used for AMS results%charges...

 dE(predicted):    -0.14164E-01, dE(actual):    -0.10573E-01, Trust radius:    0.800000, all in a.u.
 
----------------------------------------------------------------------
Geometry Convergence after Step  14       (Hartree/Angstrom,Angstrom)
----------------------------------------------------------------------
current energy                               -0.39397840 Hartree
energy change                      -0.01057338     0.00007000    F
constrained gradient max            0.03524693     0.00100000    F
constrained gradient rms            0.01349338     0.00066667    F
gradient max                        0.03524693
gradient rms                        0.01349338
cart. step max                      0.21456393     0.01000000    F
cart. step rms                      0.07538177     0.00666667    F
 
 
--------
Geometry
--------
Formula: H4O2Pb
Atoms
  Index Symbol   x (angstrom)   y (angstrom)   z (angstrom)
      1     Pb     0.16427320     0.32316583     0.93066482
      2      H    -0.57465791    -2.38597263    -1.29978720
      3      H    -0.98659182    -1.11911544    -2.16952477
      4      O    -0.62650558    -1.40006037    -1.29335465
      5      H     2.28454255     3.25442010     1.60351069
      6      O     1.41744334     2.99285738     1.19418791
      7      H     0.77913795     3.66460681     1.54086135
 
Total System Charge             2.00000
Bonding info available!
 
 *** GOStep15 ***

 Energy gradients wrt nuclear displacements
 ==========================================

     Atom      Cartesian (a.u./angstrom)
                 X         Y         Z
 ----------------------------------------
     1 Pb   -0.007891 -0.007711  0.023981
     2 H     0.000655  0.003428  0.002970
     3 H     0.000295  0.002046  0.003290
     4 O    -0.011380 -0.027650 -0.034114
     5 H    -0.000781  0.007321  0.000894
     6 O     0.020050  0.026949  0.002196
     7 H    -0.000948 -0.004383  0.000783
 ----------------------------------------
 Mulliken charges used for AMS results%charges...

 dE(predicted):    -0.16432E-01, dE(actual):    -0.12796E-01, Trust radius:    0.800000, all in a.u.
 
----------------------------------------------------------------------
Geometry Convergence after Step  15       (Hartree/Angstrom,Angstrom)
----------------------------------------------------------------------
current energy                               -0.40677412 Hartree
energy change                      -0.01279572     0.00007000    F
constrained gradient max            0.03412231     0.00100000    F
constrained gradient rms            0.01380029     0.00066667    F
gradient max                        0.03412231
gradient rms                        0.01380029
cart. step max                      0.21186924     0.01000000    F
cart. step rms                      0.12444464     0.00666667    F
 
 
--------
Geometry
--------
Formula: H4O2Pb
Atoms
  Index Symbol   x (angstrom)   y (angstrom)   z (angstrom)
      1     Pb     0.23165184     0.40571284     0.71879558
      2      H    -0.54298266    -2.22123056    -1.11409802
      3      H    -0.95812383    -1.00556330    -2.05037470
      4      O    -0.49544777    -1.23670431    -1.20528676
      5      H     2.19571668     3.04680264     1.55086304
      6      O     1.32582125     2.83257871     1.11989976
      7      H     0.70100623     3.50830565     1.48675924
 
Total System Charge             2.00000
Bonding info available!
 
 *** GOStep16 ***

 Energy gradients wrt nuclear displacements
 ==========================================

     Atom      Cartesian (a.u./angstrom)
                 X         Y         Z
 ----------------------------------------
     1 Pb   -0.006736 -0.005452  0.013047
     2 H     0.001158  0.003597  0.002198
     3 H     0.000406  0.001922  0.002900
     4 O    -0.008836 -0.022579 -0.022864
     5 H    -0.001916  0.004419  0.002593
     6 O     0.017148  0.023237  0.000507
     7 H    -0.001225 -0.005144  0.001620
 ----------------------------------------
 Mulliken charges used for AMS results%charges...
 Rebuilding optimization coordinates

 dE(predicted):    -0.19731E-01, dE(actual):    -0.18575E-01, Trust radius:    1.000000, all in a.u.
 
----------------------------------------------------------------------
Geometry Convergence after Step  16       (Hartree/Angstrom,Angstrom)
----------------------------------------------------------------------
current energy                               -0.42534906 Hartree
energy change                      -0.01857494     0.00007000    F
constrained gradient max            0.02325413     0.00100000    F
constrained gradient rms            0.01042472     0.00066667    F
gradient max                        0.02325413
gradient rms                        0.01042472
cart. step max                      0.20958856     0.01000000    F
cart. step rms                      0.13762800     0.00666667    F
 
 
--------
Geometry
--------
Formula: H4O2Pb
Atoms
  Index Symbol   x (angstrom)   y (angstrom)   z (angstrom)
      1     Pb     0.27951371     0.43189099     0.60275720
      2      H    -0.52350952    -2.01245434    -0.93859360
      3      H    -0.87454751    -0.82918355    -1.91446343
      4      O    -0.34423472    -1.04917718    -1.10294689
      5      H     2.10035608     2.83721408     1.42466637
      6      O     1.20945709     2.62466518     1.03492978
      7      H     0.61060661     3.32694650     1.40020870
 
Total System Charge             2.00000
Bonding info available!
 
 *** GOStep17 ***

 Energy gradients wrt nuclear displacements
 ==========================================

     Atom      Cartesian (a.u./angstrom)
                 X         Y         Z
 ----------------------------------------
     1 Pb   -0.006667 -0.002231 -0.024179
     2 H    -0.001686  0.006027  0.000593
     3 H    -0.001423 -0.000038  0.006855
     4 O     0.011813  0.009459  0.016892
     5 H    -0.003337  0.001124  0.004185
     6 O     0.001622 -0.007808 -0.006839
     7 H    -0.000322 -0.006532  0.002491
 ----------------------------------------
 Mulliken charges used for AMS results%charges...

 dE(predicted):    -0.14327E-01, dE(actual):    -0.41913E-02, Trust radius:    1.000000, all in a.u.
 Oscillation detected, halving the step
 Persistent oscillations may indicate discontinuity in the atomic forces.
 
----------------------------------------------------------------------
Geometry Convergence after Step  17       (Hartree/Angstrom,Angstrom)
----------------------------------------------------------------------
current energy                               -0.42954038 Hartree
energy change                      -0.00419132     0.00007000    F
constrained gradient max            0.02417926     0.00100000    F
constrained gradient rms            0.00824092     0.00066667    F
gradient max                        0.02417926
gradient rms                        0.00824092
cart. step max                      0.15860403     0.01000000    F
cart. step rms                      0.08241103     0.00666667    F
 
 
--------
Geometry
--------
Formula: H4O2Pb
Atoms
  Index Symbol   x (angstrom)   y (angstrom)   z (angstrom)
      1     Pb     0.24367454     0.36599121     0.76136123
      2      H    -0.57074066    -2.12603356    -1.05823986
      3      H    -0.86477103    -0.89003155    -2.00344016
      4      O    -0.42106954    -1.14893238    -1.15294019
      5      H     2.15714451     2.96948659     1.41921761
      6      O     1.25159197     2.72626669     1.08506459
      7      H     0.66181194     3.43315468     1.45553493
 
Total System Charge             2.00000
Bonding info available!
 
 *** GOStep18 ***

 Energy gradients wrt nuclear displacements
 ==========================================

     Atom      Cartesian (a.u./angstrom)
                 X         Y         Z
 ----------------------------------------
     1 Pb   -0.006097 -0.005339  0.005863
     2 H    -0.000254  0.001417  0.000942
     3 H    -0.001288  0.000506  0.001556
     4 O    -0.002463 -0.012380 -0.012192
     5 H    -0.001370  0.004650  0.003774
     6 O     0.011400  0.014278 -0.002492
     7 H     0.000071 -0.003133  0.002548
 ----------------------------------------
 Mulliken charges used for AMS results%charges...

 dE(predicted):    -0.79252E-02, dE(actual):    -0.11586E-02, Trust radius:    0.125000, all in a.u.
 
----------------------------------------------------------------------
Geometry Convergence after Step  18       (Hartree/Angstrom,Angstrom)
----------------------------------------------------------------------
current energy                               -0.43069896 Hartree
energy change                      -0.00115858     0.00007000    F
constrained gradient max            0.01431419     0.00100000    F
constrained gradient rms            0.00620821     0.00066667    F
gradient max                        0.01431419
gradient rms                        0.00620821
cart. step max                      0.05674917     0.01000000    F
cart. step rms                      0.03149905     0.00666667    F
 
 
--------
Geometry
--------
Formula: H4O2Pb
Atoms
  Index Symbol   x (angstrom)   y (angstrom)   z (angstrom)
      1     Pb     0.24265543     0.34669083     0.79048130
      2      H    -0.56629793    -2.08442281    -1.04225368
      3      H    -0.83373657    -0.83328237    -1.97639246
      4      O    -0.39274633    -1.10977677    -1.12919668
      5      H     2.13930504     2.93106276     1.37035435
      6      O     1.22452257     2.67810318     1.06969735
      7      H     0.64393952     3.40152687     1.42386796
 
Total System Charge             2.00000
Bonding info available!
 
 *** GOStep19 ***

 Energy gradients wrt nuclear displacements
 ==========================================

     Atom      Cartesian (a.u./angstrom)
                 X         Y         Z
 ----------------------------------------
     1 Pb   -0.005774 -0.004456  0.001938
     2 H    -0.000406  0.001121  0.001256
     3 H    -0.001684  0.000827  0.001591
     4 O    -0.000230 -0.009195 -0.008133
     5 H    -0.001178  0.004221  0.003706
     6 O     0.009323  0.010180 -0.002958
     7 H    -0.000051 -0.002698  0.002599
 ----------------------------------------
 Mulliken charges used for AMS results%charges...

 dE(predicted):    -0.12272E-02, dE(actual):    -0.15292E-02, Trust radius:    0.250000, all in a.u.
 
----------------------------------------------------------------------
Geometry Convergence after Step  19       (Hartree/Angstrom,Angstrom)
----------------------------------------------------------------------
current energy                               -0.43222820 Hartree
energy change                      -0.00152925     0.00007000    F
constrained gradient max            0.01021228     0.00100000    F
constrained gradient rms            0.00469547     0.00066667    F
gradient max                        0.01021228
gradient rms                        0.00469547
cart. step max                      0.14935517     0.01000000    F
cart. step rms                      0.08134682     0.00666667    F
 
 
--------
Geometry
--------
Formula: H4O2Pb
Atoms
  Index Symbol   x (angstrom)   y (angstrom)   z (angstrom)
      1     Pb     0.23057544     0.27890631     0.91192250
      2      H    -0.55137919    -1.98641716    -1.03190810
      3      H    -0.75266374    -0.68392720    -1.90778023
      4      O    -0.33080059    -1.01705006    -1.07007087
      5      H     2.09685845     2.84449910     1.24001790
      6      O     1.16349746     2.56454870     1.03483527
      7      H     0.60155391     3.32934199     1.32954167
 
Total System Charge             2.00000
Bonding info available!
 
 *** GOStep20 ***

 Energy gradients wrt nuclear displacements
 ==========================================

     Atom      Cartesian (a.u./angstrom)
                 X         Y         Z
 ----------------------------------------
     1 Pb   -0.004529 -0.001331 -0.005444
     2 H    -0.000906  0.001102  0.001048
     3 H    -0.002450  0.000315  0.001911
     4 O     0.003835 -0.003927 -0.000313
     5 H    -0.000974  0.003528  0.002964
     6 O     0.005212  0.002371 -0.002411
     7 H    -0.000188 -0.002059  0.002244
 ----------------------------------------
 Mulliken charges used for AMS results%charges...

 dE(predicted):    -0.22207E-02, dE(actual):    -0.23860E-02, Trust radius:    0.500000, all in a.u.
 
----------------------------------------------------------------------
Geometry Convergence after Step  20       (Hartree/Angstrom,Angstrom)
----------------------------------------------------------------------
current energy                               -0.43461417 Hartree
energy change                      -0.00238597     0.00007000    F
constrained gradient max            0.00544357     0.00100000    F
constrained gradient rms            0.00280390     0.00066667    F
gradient max                        0.00544357
gradient rms                        0.00280390
cart. step max                      0.20738804     0.01000000    F
cart. step rms                      0.11397839     0.00666667    F
 
 
--------
Geometry
--------
Formula: H4O2Pb
Atoms
  Index Symbol   x (angstrom)   y (angstrom)   z (angstrom)
      1     Pb     0.21995917     0.17643368     1.09547324
      2      H    -0.55496375    -1.84934109    -1.02814551
      3      H    -0.61257064    -0.47653916    -1.81466390
      4      O    -0.25405171    -0.90093677    -0.98774303
      5      H     2.03187505     2.73354105     1.04326513
      6      O     1.08700751     2.42339629     0.98689293
      7      H     0.54038610     3.22334770     1.21147929
 
Total System Charge             2.00000
Bonding info available!
 
 *** GOStep21 ***

 Energy gradients wrt nuclear displacements
 ==========================================

     Atom      Cartesian (a.u./angstrom)
                 X         Y         Z
 ----------------------------------------
     1 Pb   -0.002558  0.003503 -0.011401
     2 H    -0.001200  0.001224  0.001248
     3 H    -0.002950  0.000388  0.001622
     4 O     0.005804 -0.001776  0.004922
     5 H    -0.001116  0.003371  0.002119
     6 O     0.001746 -0.005536  0.000070
     7 H     0.000273 -0.001173  0.001420
 ----------------------------------------
 Mulliken charges used for AMS results%charges...

 dE(predicted):    -0.27704E-02, dE(actual):    -0.21965E-02, Trust radius:    0.500000, all in a.u.
 
----------------------------------------------------------------------
Geometry Convergence after Step  21       (Hartree/Angstrom,Angstrom)
----------------------------------------------------------------------
current energy                               -0.43681070 Hartree
energy change                      -0.00219654     0.00007000    F
constrained gradient max            0.01138937     0.00100000    F
constrained gradient rms            0.00365196     0.00066667    F
gradient max                        0.01138937
gradient rms                        0.00365196
cart. step max                      0.20634970     0.01000000    F
cart. step rms                      0.11557077     0.00666667    F
 
 
--------
Geometry
--------
Formula: H4O2Pb
Atoms
  Index Symbol   x (angstrom)   y (angstrom)   z (angstrom)
      1     Pb     0.20542612     0.08224421     1.27473480
      2      H    -0.53930448    -1.70171523    -1.03168390
      3      H    -0.48151447    -0.27018947    -1.70350604
      4      O    -0.18082222    -0.78105413    -0.90238113
      5      H     1.95900073     2.60475188     0.85240283
      6      O     1.01809283     2.28713584     0.93368704
      7      H     0.47676321     3.10872858     1.08330455
 
Total System Charge             2.00000
Bonding info available!
 
 *** GOStep22 ***

 Energy gradients wrt nuclear displacements
 ==========================================

     Atom      Cartesian (a.u./angstrom)
                 X         Y         Z
 ----------------------------------------
     1 Pb   -0.000792  0.006942 -0.013136
     2 H    -0.001726  0.001088  0.001503
     3 H    -0.003196 -0.000271  0.001210
     4 O     0.006400  0.000279  0.006541
     5 H    -0.000948  0.003116  0.000965
     6 O     0.000027 -0.010410  0.002541
     7 H     0.000235 -0.000744  0.000376
 ----------------------------------------
 Mulliken charges used for AMS results%charges...
 Rebuilding optimization coordinates

 dE(predicted):    -0.28972E-02, dE(actual):    -0.16375E-02, Trust radius:    0.500000, all in a.u.
 
----------------------------------------------------------------------
Geometry Convergence after Step  22       (Hartree/Angstrom,Angstrom)
----------------------------------------------------------------------
current energy                               -0.43844816 Hartree
energy change                      -0.00163745     0.00007000    F
constrained gradient max            0.01312928     0.00100000    F
constrained gradient rms            0.00463139     0.00066667    F
gradient max                        0.01312928
gradient rms                        0.00463139
cart. step max                      0.21171740     0.01000000    F
cart. step rms                      0.10543138     0.00666667    F
 
 
--------
Geometry
--------
Formula: H4O2Pb
Atoms
  Index Symbol   x (angstrom)   y (angstrom)   z (angstrom)
      1     Pb     0.18985411     0.00813358     1.42293598
      2      H    -0.54528834    -1.56323837    -1.03238599
      3      H    -0.32215342    -0.09772279    -1.60401078
      4      O    -0.11872172    -0.68656530    -0.82603174
      5      H     1.87154462     2.47148319     0.64068543
      6      O     0.94966040     2.17947825     0.88113329
      7      H     0.43274608     3.01833313     1.02423196
 
Total System Charge             2.00000
Bonding info available!
 
 *** GOStep23 ***

 Energy gradients wrt nuclear displacements
 ==========================================

     Atom      Cartesian (a.u./angstrom)
                 X         Y         Z
 ----------------------------------------
     1 Pb    0.000348  0.007218 -0.010330
     2 H    -0.001896  0.000160  0.002989
     3 H    -0.002301  0.001116  0.000298
     4 O     0.005755  0.000083  0.003529
     5 H    -0.000375  0.002121 -0.000199
     6 O    -0.001337 -0.010414  0.004667
     7 H    -0.000193 -0.000284 -0.000953
 ----------------------------------------
 Mulliken charges used for AMS results%charges...

 dE(predicted):    -0.14667E-02, dE(actual):    -0.10013E-02, Trust radius:    0.500000, all in a.u.
 
----------------------------------------------------------------------
Geometry Convergence after Step  23       (Hartree/Angstrom,Angstrom)
----------------------------------------------------------------------
current energy                               -0.43944948 Hartree
energy change                      -0.00100133     0.00007000    F
constrained gradient max            0.01042986     0.00100000    F
constrained gradient rms            0.00414855     0.00066667    F
gradient max                        0.01042986
gradient rms                        0.00414855
cart. step max                      0.20183297     0.01000000    F
cart. step rms                      0.07410591     0.00666667    F
 
 
--------
Geometry
--------
Formula: H4O2Pb
Atoms
  Index Symbol   x (angstrom)   y (angstrom)   z (angstrom)
      1     Pb     0.14818115    -0.01705065     1.50393785
      2      H    -0.55087654    -1.49031073    -1.04216405
      3      H    -0.18870808    -0.02803649    -1.55551614
      4      O    -0.08320659    -0.64942831    -0.78432121
      5      H     1.77121117     2.37622488     0.43885246
      6      O     0.89669674     2.13748280     0.85137806
      7      H     0.46434389     3.00102019     1.09439117
 
Total System Charge             2.00000
Bonding info available!
 
 *** GOStep24 ***

 Energy gradients wrt nuclear displacements
 ==========================================

     Atom      Cartesian (a.u./angstrom)
                 X         Y         Z
 ----------------------------------------
     1 Pb    0.000808  0.004707 -0.005189
     2 H    -0.002070  0.000234  0.003269
     3 H    -0.000785  0.001397  0.000269
     4 O     0.003999 -0.000550 -0.000892
     5 H     0.000144  0.000257 -0.001004
     6 O    -0.001202 -0.006067  0.004805
     7 H    -0.000894  0.000022 -0.001258
 ----------------------------------------
 Mulliken charges used for AMS results%charges...

 dE(predicted):    -0.38055E-03, dE(actual):    -0.54298E-03, Trust radius:    0.500000, all in a.u.
 
----------------------------------------------------------------------
Geometry Convergence after Step  24       (Hartree/Angstrom,Angstrom)
----------------------------------------------------------------------
current energy                               -0.43999247 Hartree
energy change                      -0.00054298     0.00007000    F
constrained gradient max            0.00606744     0.00100000    F
constrained gradient rms            0.00266649     0.00066667    F
gradient max                        0.00606744
gradient rms                        0.00266649
cart. step max                      0.17761435     0.01000000    F
cart. step rms                      0.07911134     0.00666667    F
 
 
--------
Geometry
--------
Formula: H4O2Pb
Atoms
  Index Symbol   x (angstrom)   y (angstrom)   z (angstrom)
      1     Pb     0.02345625     0.01982185     1.52952036
      2      H    -0.45080342    -1.53979409    -1.08356098
      3      H    -0.19804741    -0.05714509    -1.56441874
      4      O    -0.08523049    -0.66380608    -0.78488620
      5      H     1.66665645     2.35160367     0.28331058
      6      O     0.87209256     2.17433320     0.85458762
      7      H     0.62951780     3.04488823     1.27200551
 
Total System Charge             2.00000
Bonding info available!
 
 *** GOStep25 ***

 Energy gradients wrt nuclear displacements
 ==========================================

     Atom      Cartesian (a.u./angstrom)
                 X         Y         Z
 ----------------------------------------
     1 Pb   -0.000882 -0.001432  0.004086
     2 H    -0.001005  0.002972 -0.000561
     3 H    -0.000735 -0.002076  0.000865
     4 O     0.001952 -0.002495 -0.004230
     5 H    -0.000561 -0.000993 -0.000728
     6 O     0.002317  0.003955  0.001022
     7 H    -0.001086  0.000070 -0.000453
 ----------------------------------------
 Mulliken charges used for AMS results%charges...

 dE(predicted):    -0.48954E-03, dE(actual):    -0.43034E-03, Trust radius:    1.000000, all in a.u.
 
----------------------------------------------------------------------
Geometry Convergence after Step  25       (Hartree/Angstrom,Angstrom)
----------------------------------------------------------------------
current energy                               -0.44042281 Hartree
energy change                      -0.00043034     0.00007000    F
constrained gradient max            0.00423560     0.00100000    F
constrained gradient rms            0.00205268     0.00066667    F
gradient max                        0.00423560
gradient rms                        0.00205268
cart. step max                      0.13317729     0.01000000    F
cart. step rms                      0.05542508     0.00666667    F
 
 
--------
Geometry
--------
Formula: H4O2Pb
Atoms
  Index Symbol   x (angstrom)   y (angstrom)   z (angstrom)
      1     Pb    -0.07150680     0.03971559     1.55405285
      2      H    -0.31762613    -1.53153114    -1.08074267
      3      H    -0.24310966    -0.01129693    -1.53598360
      4      O    -0.07261720    -0.61883785    -0.76731129
      5      H     1.59103256     2.29009867     0.19027108
      6      O     0.85359008     2.14585549     0.84099456
      7      H     0.71787889     3.01589786     1.30527722
 
Total System Charge             2.00000
Bonding info available!
 
 *** GOStep26 ***

 Energy gradients wrt nuclear displacements
 ==========================================

     Atom      Cartesian (a.u./angstrom)
                 X         Y         Z
 ----------------------------------------
     1 Pb   -0.001589 -0.001579  0.004484
     2 H    -0.000721  0.000575  0.001071
     3 H     0.000171  0.000684  0.001114
     4 O     0.000944 -0.002194 -0.005551
     5 H    -0.001478 -0.000712 -0.000276
     6 O     0.003837  0.003275 -0.000639
     7 H    -0.001163 -0.000050 -0.000203
 ----------------------------------------
 Mulliken charges used for AMS results%charges...

 dE(predicted):    -0.13434E-03, dE(actual):    -0.18336E-03, Trust radius:    1.000000, all in a.u.
 
----------------------------------------------------------------------
Geometry Convergence after Step  26       (Hartree/Angstrom,Angstrom)
----------------------------------------------------------------------
current energy                               -0.44060617 Hartree
energy change                      -0.00018336     0.00007000    F
constrained gradient max            0.00559326     0.00100000    F
constrained gradient rms            0.00213102     0.00066667    F
gradient max                        0.00559326
gradient rms                        0.00213102
cart. step max                      0.17592745     0.01000000    F
cart. step rms                      0.06023468     0.00666667    F
 
 
--------
Geometry
--------
Formula: H4O2Pb
Atoms
  Index Symbol   x (angstrom)   y (angstrom)   z (angstrom)
      1     Pb    -0.16836811     0.08586974     1.53451274
      2      H    -0.14169869    -1.53746533    -1.07036119
      3      H    -0.38160811    -0.03977803    -1.54458406
      4      O    -0.08171816    -0.58894991    -0.77087678
      5      H     1.56946702     2.26990849     0.16296730
      6      O     0.85448349     2.14327379     0.84263708
      7      H     0.80708429     2.99704292     1.35226306
 
Total System Charge             2.00000
Bonding info available!
 
 *** GOStep27 ***

 Energy gradients wrt nuclear displacements
 ==========================================

     Atom      Cartesian (a.u./angstrom)
                 X         Y         Z
 ----------------------------------------
     1 Pb   -0.001294 -0.001146  0.001922
     2 H    -0.000194 -0.001122  0.000623
     3 H    -0.000105  0.000649  0.000551
     4 O     0.000359  0.000221 -0.002174
     5 H    -0.000875  0.000518  0.000385
     6 O     0.002665  0.001332 -0.000906
     7 H    -0.000556 -0.000453 -0.000400
 ----------------------------------------
 Mulliken charges used for AMS results%charges...

 dE(predicted):    -0.14040E-03, dE(actual):    -0.21427E-03, Trust radius:    1.000000, all in a.u.
 
----------------------------------------------------------------------
Geometry Convergence after Step  27       (Hartree/Angstrom,Angstrom)
----------------------------------------------------------------------
current energy                               -0.44082043 Hartree
energy change                      -0.00021427     0.00007000    F
constrained gradient max            0.00263428     0.00100000    F
constrained gradient rms            0.00110266     0.00066667    F
gradient max                        0.00263428
gradient rms                        0.00110266
cart. step max                      0.10488774     0.01000000    F
cart. step rms                      0.04405685     0.00666667    F
 
 
--------
Geometry
--------
Formula: H4O2Pb
Atoms
  Index Symbol   x (angstrom)   y (angstrom)   z (angstrom)
      1     Pb    -0.24184560     0.11824187     1.52749710
      2      H    -0.03681095    -1.51633289    -1.05836665
      3      H    -0.43109985    -0.06017947    -1.54666802
      4      O    -0.07858183    -0.56530991    -0.76488529
      5      H     1.50541018     2.25052728     0.11100192
      6      O     0.83960971     2.13868585     0.84224188
      7      H     0.90096008     2.96426895     1.39573721
 
Total System Charge             2.00000
Bonding info available!
 
 *** GOStep28 ***

 Energy gradients wrt nuclear displacements
 ==========================================

     Atom      Cartesian (a.u./angstrom)
                 X         Y         Z
 ----------------------------------------
     1 Pb   -0.000674 -0.000707 -0.000002
     2 H     0.000021 -0.000067  0.000023
     3 H     0.000100  0.000014  0.000138
     4 O     0.000172  0.000342  0.000633
     5 H    -0.000090  0.000628 -0.000167
     6 O     0.000568  0.000148 -0.000479
     7 H    -0.000098 -0.000358 -0.000147
 ----------------------------------------
 Mulliken charges used for AMS results%charges...

 dE(predicted):    -0.39712E-04, dE(actual):    -0.27621E-04, Trust radius:    1.000000, all in a.u.
 
----------------------------------------------------------------------
Geometry Convergence after Step  28       (Hartree/Angstrom,Angstrom)
----------------------------------------------------------------------
current energy                               -0.44084805 Hartree
energy change                      -0.00002762     0.00007000    T
constrained gradient max            0.00074222     0.00100000    T
constrained gradient rms            0.00035703     0.00066667    T
gradient max                        0.00074222
gradient rms                        0.00035703
cart. step max                      0.18403255     0.01000000    F
cart. step rms                      0.07025791     0.00666667    F
 
 
--------
Geometry
--------
Formula: H4O2Pb
Atoms
  Index Symbol   x (angstrom)   y (angstrom)   z (angstrom)
      1     Pb    -0.15032334     0.11936636     1.50499136
      2      H    -0.04471218    -1.53412112    -1.07441739
      3      H    -0.52772688    -0.09888509    -1.55013435
      4      O    -0.10702674    -0.58200392    -0.78831955
      5      H     1.67353218     2.25357072     0.29503447
      6      O     0.79764190     2.18636040     0.76272506
      7      H     0.81625679     2.98561433     1.35667854
 
Total System Charge             2.00000
Bonding info available!
 
 *** GOStep29 ***

 Energy gradients wrt nuclear displacements
 ==========================================

     Atom      Cartesian (a.u./angstrom)
                 X         Y         Z
 ----------------------------------------
     1 Pb    0.001971  0.003413 -0.000456
     2 H     0.000476 -0.000373  0.000154
     3 H    -0.000599 -0.000840  0.000497
     4 O    -0.000080  0.000798 -0.000770
     5 H    -0.001211  0.006004  0.008532
     6 O    -0.008520 -0.006644 -0.004546
     7 H     0.007964 -0.002356 -0.003410
 ----------------------------------------
 Mulliken charges used for AMS results%charges...

 dE(predicted):    -0.19734E-03, dE(actual):     0.73241E-03, Trust radius:    0.127381, all in a.u.
 
----------------------------------------------------------------------
Geometry Convergence after Step  29       (Hartree/Angstrom,Angstrom)
----------------------------------------------------------------------
current energy                               -0.44011564 Hartree
energy change                       0.00073241     0.00007000    F
constrained gradient max            0.00852876     0.00100000    F
constrained gradient rms            0.00406473     0.00066667    F
gradient max                        0.00852876
gradient rms                        0.00406473
cart. step max                      0.04097526     0.01000000    F
cart. step rms                      0.01735416     0.00666667    F
 
 
--------
Geometry
--------
Formula: H4O2Pb
Atoms
  Index Symbol   x (angstrom)   y (angstrom)   z (angstrom)
      1     Pb    -0.15789605     0.10632476     1.52048474
      2      H    -0.05842951    -1.52556053    -1.07517237
      3      H    -0.49718211    -0.07526147    -1.54274542
      4      O    -0.09890374    -0.57536194    -0.77986111
      5      H     1.65690627     2.24167950     0.25405922
      6      O     0.81660661     2.16686042     0.78460604
      7      H     0.79654024     2.99122095     1.34518705
 
Total System Charge             2.00000
Bonding info available!
 
 *** GOStep30 ***

 Energy gradients wrt nuclear displacements
 ==========================================

     Atom      Cartesian (a.u./angstrom)
                 X         Y         Z
 ----------------------------------------
     1 Pb    0.000645  0.001426  0.000468
     2 H     0.000195  0.000157  0.000026
     3 H    -0.000512 -0.000994  0.000194
     4 O     0.000136  0.000584 -0.000613
     5 H     0.001300  0.001466  0.001924
     6 O    -0.003214 -0.002868 -0.002777
     7 H     0.001449  0.000228  0.000778
 ----------------------------------------
 Mulliken charges used for AMS results%charges...

 dE(predicted):    -0.58894E-03, dE(actual):    -0.53229E-03, Trust radius:    0.254763, all in a.u.
 
----------------------------------------------------------------------
Geometry Convergence after Step  30       (Hartree/Angstrom,Angstrom)
----------------------------------------------------------------------
current energy                               -0.44064793 Hartree
energy change                      -0.00053229     0.00007000    F
constrained gradient max            0.00318381     0.00100000    F
constrained gradient rms            0.00140227     0.00066667    F
gradient max                        0.00318381
gradient rms                        0.00140227
cart. step max                      0.11157642     0.01000000    F
cart. step rms                      0.04174272     0.00666667    F
 
 
--------
Geometry
--------
Formula: H4O2Pb
Atoms
  Index Symbol   x (angstrom)   y (angstrom)   z (angstrom)
      1     Pb    -0.16479125     0.09063491     1.53599332
      2      H    -0.12306440    -1.53132150    -1.06887410
      3      H    -0.38560568    -0.03407996    -1.53884662
      4      O    -0.07958283    -0.58311730    -0.76708175
      5      H     1.56868023     2.24308717     0.17231872
      6      O     0.80722901     2.15977826     0.80809892
      7      H     0.83477665     2.98492010     1.36494965
 
Total System Charge             2.00000
Bonding info available!
 
 *** GOStep31 ***

 Energy gradients wrt nuclear displacements
 ==========================================

     Atom      Cartesian (a.u./angstrom)
                 X         Y         Z
 ----------------------------------------
     1 Pb   -0.000156 -0.000287  0.000966
     2 H     0.000173 -0.000650  0.001004
     3 H    -0.000134  0.001274  0.000372
     4 O     0.000173 -0.001046 -0.002095
     5 H     0.000227 -0.000036  0.000385
     6 O    -0.001010  0.001588 -0.000184
     7 H     0.000727 -0.000843 -0.000447
 ----------------------------------------
 Mulliken charges used for AMS results%charges...

 dE(predicted):    -0.18150E-03, dE(actual):    -0.18698E-03, Trust radius:    0.509525, all in a.u.
 
----------------------------------------------------------------------
Geometry Convergence after Step  31       (Hartree/Angstrom,Angstrom)
----------------------------------------------------------------------
current energy                               -0.44083492 Hartree
energy change                      -0.00018698     0.00007000    F
constrained gradient max            0.00211190     0.00100000    F
constrained gradient rms            0.00084532     0.00066667    F
gradient max                        0.00211190
gradient rms                        0.00084532
cart. step max                      0.05573883     0.01000000    F
cart. step rms                      0.02691422     0.00666667    F
 
 
--------
Geometry
--------
Formula: H4O2Pb
Atoms
  Index Symbol   x (angstrom)   y (angstrom)   z (angstrom)
      1     Pb    -0.15620677     0.07009226     1.56415332
      2      H    -0.12893619    -1.49429581    -1.07409444
      3      H    -0.36729639     0.00591131    -1.51042202
      4      O    -0.06520350    -0.55580156    -0.74644314
      5      H     1.57713259     2.20758476     0.16759654
      6      O     0.81030029     2.12153144     0.79655707
      7      H     0.78785169     2.97487928     1.30921082
 
Total System Charge             2.00000
Bonding info available!
 
 *** GOStep32 ***

 Energy gradients wrt nuclear displacements
 ==========================================

     Atom      Cartesian (a.u./angstrom)
                 X         Y         Z
 ----------------------------------------
     1 Pb   -0.000216 -0.000171  0.000542
     2 H    -0.000685  0.000996 -0.001074
     3 H    -0.000052 -0.001720 -0.000415
     4 O     0.001036  0.001213  0.001542
     5 H     0.000118  0.000517  0.000023
     6 O    -0.000372 -0.000169 -0.000175
     7 H     0.000171 -0.000665 -0.000444
 ----------------------------------------
 Mulliken charges used for AMS results%charges...

 dE(predicted):    -0.35739E-04, dE(actual):     0.32649E-04, Trust radius:    0.026104, all in a.u.
 
----------------------------------------------------------------------
Geometry Convergence after Step  32       (Hartree/Angstrom,Angstrom)
----------------------------------------------------------------------
current energy                               -0.44080227 Hartree
energy change                       0.00003265     0.00007000    T
constrained gradient max            0.00169696     0.00100000    F
constrained gradient rms            0.00076171     0.00066667    F
gradient max                        0.00169696
gradient rms                        0.00076171
cart. step max                      0.02021517     0.01000000    F
cart. step rms                      0.01266210     0.00666667    F
 
 
--------
Geometry
--------
Formula: H4O2Pb
Atoms
  Index Symbol   x (angstrom)   y (angstrom)   z (angstrom)
      1     Pb    -0.15069306     0.07669129     1.54801617
      2      H    -0.13671472    -1.51416912    -1.07253196
      3      H    -0.37653481    -0.01314083    -1.52444986
      4      O    -0.07368452    -0.57115123    -0.75780385
      5      H     1.58572179     2.22779993     0.18028198
      6      O     0.81748582     2.13713522     0.80672272
      7      H     0.79206124     2.98673642     1.32632296
 
Total System Charge             2.00000
Bonding info available!
 
 *** GOStep33 ***

 Energy gradients wrt nuclear displacements
 ==========================================

     Atom      Cartesian (a.u./angstrom)
                 X         Y         Z
 ----------------------------------------
     1 Pb   -0.000034  0.000004  0.000116
     2 H    -0.000322  0.000065 -0.000055
     3 H    -0.000215 -0.000197 -0.000110
     4 O     0.000750  0.000226  0.000199
     5 H     0.000077  0.000039  0.000057
     6 O    -0.000305 -0.000098 -0.000201
     7 H     0.000050 -0.000039 -0.000007
 ----------------------------------------
 Mulliken charges used for AMS results%charges...

 dE(predicted):    -0.29263E-04, dE(actual):    -0.42472E-04, Trust radius:    0.052208, all in a.u.
 
----------------------------------------------------------------------
Geometry Convergence after Step  33       (Hartree/Angstrom,Angstrom)
----------------------------------------------------------------------
current energy                               -0.44084474 Hartree
energy change                      -0.00004247     0.00007000    T
constrained gradient max            0.00073297     0.00100000    T
constrained gradient rms            0.00022120     0.00066667    T
gradient max                        0.00073297
gradient rms                        0.00022120
cart. step max                      0.01676627     0.01000000    F
cart. step rms                      0.00880410     0.00666667    F
 
 
--------
Geometry
--------
Formula: H4O2Pb
Atoms
  Index Symbol   x (angstrom)   y (angstrom)   z (angstrom)
      1     Pb    -0.16276542     0.08424903     1.54136103
      2      H    -0.12077538    -1.51995831    -1.07136726
      3      H    -0.38954372    -0.02462101    -1.53069791
      4      O    -0.07781006    -0.57420214    -0.76158754
      5      H     1.57836931     2.23404437     0.17428686
      6      O     0.82133948     2.14241404     0.81393811
      7      H     0.80882751     2.98797571     1.34062485
 
Total System Charge             2.00000
Bonding info available!
 
 *** GOStep34 ***

 Energy gradients wrt nuclear displacements
 ==========================================

     Atom      Cartesian (a.u./angstrom)
                 X         Y         Z
 ----------------------------------------
     1 Pb   -0.000113 -0.000139 -0.000001
     2 H    -0.000145 -0.000151  0.000198
     3 H    -0.000201  0.000185  0.000056
     4 O     0.000495 -0.000011 -0.000099
     5 H    -0.000024 -0.000050  0.000072
     6 O    -0.000042  0.000142 -0.000276
     7 H     0.000031  0.000023  0.000050
 ----------------------------------------
 Mulliken charges used for AMS results%charges...

 dE(predicted):    -0.44479E-05, dE(actual):    -0.12788E-04, Trust radius:    0.104415, all in a.u.
 
----------------------------------------------------------------------
Geometry Convergence after Step  34       (Hartree/Angstrom,Angstrom)
----------------------------------------------------------------------
current energy                               -0.44085753 Hartree
energy change                      -0.00001279     0.00007000    T
constrained gradient max            0.00048704     0.00100000    T
constrained gradient rms            0.00016225     0.00066667    T
gradient max                        0.00048704
gradient rms                        0.00016225
cart. step max                      0.01211672     0.01000000    F
cart. step rms                      0.00680023     0.00666667    F
 
 
--------
Geometry
--------
Formula: H4O2Pb
Atoms
  Index Symbol   x (angstrom)   y (angstrom)   z (angstrom)
      1     Pb    -0.16839898     0.08983686     1.53470311
      2      H    -0.11383447    -1.52662084    -1.07135321
      3      H    -0.39914415    -0.03673772    -1.53789627
      4      O    -0.08258413    -0.57911407    -0.76576017
      5      H     1.57649222     2.24328753     0.17369154
      6      O     0.82796113     2.14727832     0.82257353
      7      H     0.81715012     2.99197160     1.35059963
 
Total System Charge             2.00000
Bonding info available!
 
 *** GOStep35 ***

 Energy gradients wrt nuclear displacements
 ==========================================

     Atom      Cartesian (a.u./angstrom)
                 X         Y         Z
 ----------------------------------------
     1 Pb   -0.000144 -0.000176 -0.000103
     2 H    -0.000109 -0.000077  0.000171
     3 H    -0.000185  0.000107  0.000140
     4 O     0.000380 -0.000102 -0.000119
     5 H    -0.000052 -0.000058  0.000052
     6 O     0.000115  0.000266 -0.000104
     7 H    -0.000005  0.000041 -0.000038
 ----------------------------------------
 Mulliken charges used for AMS results%charges...

 dE(predicted):    -0.21509E-05, dE(actual):    -0.89088E-05, Trust radius:    0.104415, all in a.u.
 
---------------------------------------------------------
Geometry Convergence after Step  35       ** CONVERGED **
---------------------------------------------------------
current energy                               -0.44086643 Hartree
energy change                      -0.00000891     0.00007000    T
constrained gradient max            0.00037424     0.00100000    T
constrained gradient rms            0.00014519     0.00066667    T
gradient max                        0.00037424
gradient rms                        0.00014519
cart. step max                      0.00951112     0.01000000    T
cart. step rms                      0.00439651     0.00666667    T
 
Geometry optimization converged

Optimized geometry:
 
--------
Geometry
--------
Formula: H4O2Pb
Atoms
  Index Symbol   x (angstrom)   y (angstrom)   z (angstrom)
      1     Pb    -0.16839898     0.08983686     1.53470311
      2      H    -0.11383447    -1.52662084    -1.07135321
      3      H    -0.39914415    -0.03673772    -1.53789627
      4      O    -0.08258413    -0.57911407    -0.76576017
      5      H     1.57649222     2.24328753     0.17369154
      6      O     0.82796113     2.14727832     0.82257353
      7      H     0.81715012     2.99197160     1.35059963
 
Total System Charge             2.00000
Bonding info available!
 
Performing a single point calculation on the final geometry ...

 *** adf ***



 ===========================
 A T T A C H E D   F I L E S
 ===========================
  
 Restart/tmp/amstmp_ams_kid0.1655164550/GOStep35.rkf*** GOStep35 ***



 ===============================
 M O D E L   P A R A M E T E R S
 ===============================
  
 DENSITY FUNCTIONAL POTENTIAL (scf)
    LDA:                               VWN                                      
    Gradient Corrections:              Becke88 Perdew86                        == Not Default ==

 SPIN  (restricted / unrestr.)
    Molecule:                          Restricted                               
    Fragments:                         Restricted                               

 OTHER ASPECTS
    Relativistic Corrections:          scalar (ZORA,MAPA)                       

    Nuclear Charge Density Model:      Point Charge Nuclei                      
    Core Treatment:                    Frozen Orbital(s)                        

    Hyperfine or Zeeman Interaction:   ---                                      



 ===============
 G E O M E T R Y  ***  3D  Molecule  ***
 ===============
  

 ATOMS
 =====                            X Y Z                    CHARGE
                                (Angstrom)             Nucl     +Core       At.Mass
                       --------------------------    ----------------       -------
    1  Pb             -0.1684    0.0898    1.5347     82.00     36.00      207.9766
    2  H              -0.1138   -1.5266   -1.0714      1.00      1.00        1.0078
    3  H              -0.3991   -0.0367   -1.5379      1.00      1.00        1.0078
    4  O              -0.0826   -0.5791   -0.7658      8.00      6.00       15.9949
    5  H               1.5765    2.2433    0.1737      1.00      1.00        1.0078
    6  O               0.8280    2.1473    0.8226      8.00      6.00       15.9949
    7  H               0.8172    2.9920    1.3506      1.00      1.00        1.0078


 FRAGMENTS
 =========                                     Atoms in this Fragment     Cart. coord.s (Angstrom)
[...]
    3       2          1       0.18199090D-01
    3       2          2       0.19912560D-02
    3       2          3       0.59179525D-03
    3       2          4       0.55828080D-04
    3       2          5       0.27332988D-04
    3       2          6       0.11043201D-04
    3       2          7       0.14696276D-05
*** CPKS converged.
----------------------------------------------
    3       3          1       0.22541004D-01
    3       3          2       0.33025976D-02
    3       3          3       0.78569855D-03
    3       3          4       0.95418397D-04
    3       3          5       0.42511572D-04
    3       3          6       0.12975809D-04
    3       3          7       0.19295340D-05
*** CPKS converged.
----------------------------------------------

====================  end of solving CPKS equations  ====================

==========================
###### NUCLEUS:     5  H  
==========================

====================  solving CPKS equations  ====================

NUCLEUS  COORD.    ITERATION   ACCURACY
-------  ------    ---------   --------
    5       1          1       0.23029422D-01
    5       1          2       0.29561716D-02
    5       1          3       0.82153052D-03
    5       1          4       0.75432859D-04
    5       1          5       0.47436145D-04
    5       1          6       0.11236412D-04
    5       1          7       0.21545015D-05
*** CPKS converged.
----------------------------------------------
    5       2          1       0.29570557D-02
    5       2          2       0.20209709D-02
    5       2          3       0.27018161D-03
    5       2          4       0.48314871D-04
    5       2          5       0.64935311D-05
*** CPKS converged.
----------------------------------------------
    5       3          1       0.24153932D-01
    5       3          2       0.22911822D-02
    5       3          3       0.73062253D-03
    5       3          4       0.89222837D-04
    5       3          5       0.33950220D-04
    5       3          6       0.12239782D-04
    5       3          7       0.17613937D-05
*** CPKS converged.
----------------------------------------------

====================  end of solving CPKS equations  ====================

==========================
###### NUCLEUS:     7  H  
==========================

====================  solving CPKS equations  ====================

NUCLEUS  COORD.    ITERATION   ACCURACY
-------  ------    ---------   --------
    7       1          1       0.34735291D-02
    7       1          2       0.55083774D-03
    7       1          3       0.41194298D-03
    7       1          4       0.52277151D-04
    7       1          5       0.73036038D-05
*** CPKS converged.
----------------------------------------------
    7       2          1       0.27915320D-01
    7       2          2       0.34467886D-02
    7       2          3       0.89166457D-03
    7       2          4       0.12666586D-03
    7       2          5       0.62068644D-04
    7       2          6       0.93764342D-05
*** CPKS converged.
----------------------------------------------
    7       3          1       0.18698151D-01
    7       3          2       0.18843618D-02
    7       3          3       0.51261502D-03
    7       3          4       0.79792919D-04
    7       3          5       0.44546265D-04
    7       3          6       0.61973936D-05
*** CPKS converged.
----------------------------------------------

====================  end of solving CPKS equations  ====================

==========================
###### NUCLEUS:     4  O  
==========================

====================  solving CPKS equations  ====================

NUCLEUS  COORD.    ITERATION   ACCURACY
-------  ------    ---------   --------
    4       1          1       0.13547649D-01
    4       1          2       0.36305275D-02
    4       1          3       0.67970301D-03
    4       1          4       0.85672329D-04
    4       1          5       0.20579271D-04
    4       1          6       0.79235873D-05
*** CPKS converged.
----------------------------------------------
    4       2          1       0.13745222D-01
    4       2          2       0.34923842D-02
    4       2          3       0.43384807D-03
    4       2          4       0.83527348D-04
    4       2          5       0.25002711D-04
    4       2          6       0.73277990D-05
*** CPKS converged.
----------------------------------------------
    4       3          1       0.24437735D-01
    4       3          2       0.24948048D-02
    4       3          3       0.53335417D-03
    4       3          4       0.13354806D-03
    4       3          5       0.29160569D-04
    4       3          6       0.16406345D-04
    4       3          7       0.24860649D-05
*** CPKS converged.
----------------------------------------------

====================  end of solving CPKS equations  ====================

==========================
###### NUCLEUS:     6  O  
==========================

====================  solving CPKS equations  ====================

NUCLEUS  COORD.    ITERATION   ACCURACY
-------  ------    ---------   --------
    6       1          1       0.19634802D-01
    6       1          2       0.36474074D-02
    6       1          3       0.69813493D-03
    6       1          4       0.12811792D-03
    6       1          5       0.27544088D-04
    6       1          6       0.12940171D-04
    6       1          7       0.22160329D-05
*** CPKS converged.
----------------------------------------------
    6       2          1       0.24774837D-01
    6       2          2       0.23735773D-02
    6       2          3       0.68206607D-03
    6       2          4       0.14500107D-03
    6       2          5       0.38810027D-04
    6       2          6       0.15993466D-04
    6       2          7       0.32786470D-05
*** CPKS converged.
----------------------------------------------
    6       3          1       0.10993400D-01
    6       3          2       0.15922746D-02
    6       3          3       0.74247755D-03
    6       3          4       0.19415936D-03
    6       3          5       0.24994896D-04
    6       3          6       0.48836869D-05
*** CPKS converged.
----------------------------------------------

====================  end of solving CPKS equations  ====================


====================================================================
*** DONE CALCULATING ANALYTICAL SECOND DERIVATIVES OF THE ENERGY ***
====================================================================

 Mulliken charges used for AMS results%charges...
Scanning modes in range provided by user.


    =====================
     CALCULATION RESULTS
    =====================

Energy (hartree)            -0.44086643

Gradients (hartree/bohr)
  Index   Atom            d/dx            d/dy            d/dz
      1     Pb   -0.0000760435   -0.0000933801   -0.0000544947
      2      H   -0.0000578479   -0.0000406877    0.0000903837
      3      H   -0.0000976801    0.0000565221    0.0000742595
      4      O    0.0002008408   -0.0000538461   -0.0000628357
      5      H   -0.0000273721   -0.0000306647    0.0000275621
      6      O    0.0000607935    0.0001405860   -0.0000549111
      7      H   -0.0000026907    0.0000214704   -0.0000199638

 -----------------------
 Normal Mode Frequencies
 -----------------------

 Index   Frequency (cm-1)   Intensity (km/mol)
     7            45.9832              11.2756
     8            60.2534               1.5343
     9           204.3849               4.4057
    10           291.1932             109.9043
    11           305.7219             116.2778
    12           322.5659              58.6123
    13           337.4058             249.7870
    14           550.6950              50.1766
    15           567.1376              33.7871
    16          1589.8929              96.6041
    17          1595.0109              36.5904
    18          3451.2419             499.0883
    19          3459.9222             219.5085
    20          3536.4876             401.0108
    21          3537.5114             251.4756

 Zero-point energy (Hartree):     0.0452

 ------------
 Normal Modes
 ------------

 Number of removed rigid normal modes: 6
 
 Mode:     7      Frequency (cm-1):       45.9832     Intensity (km/mol):       11.2756
 Index  Atom      ---- Displacements (x/y/z) ----
     1    Pb      -0.001455   0.003717  -0.002163
     2     H       0.419644  -0.053601   0.051165
     3     H      -0.524209  -0.246206   0.040390
     4     O       0.013547  -0.017715  -0.018649
     5     H      -0.382040   0.068041  -0.391115
     6     O       0.013780  -0.009901   0.053098
     7     H       0.353151  -0.096984   0.199283
 
 Mode:     8      Frequency (cm-1):       60.2534     Intensity (km/mol):        1.5343
 Index  Atom      ---- Displacements (x/y/z) ----
     1    Pb      -0.011853  -0.013342   0.031062
     2     H       0.382242   0.321570  -0.174674
     3     H      -0.212047   0.283158   0.081377
     4     O       0.151621   0.292685  -0.060373
     5     H      -0.031551  -0.303151  -0.337874
     6     O      -0.014401  -0.133197  -0.292706
     7     H       0.129662  -0.079428  -0.375267
 
 Mode:     9      Frequency (cm-1):      204.3849     Intensity (km/mol):        4.4057
 Index  Atom      ---- Displacements (x/y/z) ----
     1    Pb       0.000695   0.000808  -0.001530
     2     H       0.472319  -0.012220  -0.015547
     3     H      -0.462127  -0.163736   0.055239
     4     O      -0.030733   0.000257  -0.005589
     5     H       0.347327  -0.069787   0.376254
     6     O       0.025553  -0.005133   0.015269
     7     H      -0.418660   0.156369  -0.253789
 
 Mode:    10      Frequency (cm-1):      291.1932     Intensity (km/mol):      109.9043
 Index  Atom      ---- Displacements (x/y/z) ----
     1    Pb      -0.006828  -0.021518  -0.012130
     2     H       0.468583   0.069008   0.111608
     3     H       0.098402   0.038147   0.146967
     4     O      -0.048489   0.052198   0.219266
     5     H       0.336985   0.023955   0.196020
     6     O       0.044237   0.223360  -0.112698
     7     H       0.572614  -0.063904   0.357197
 
 Mode:    11      Frequency (cm-1):      305.7219     Intensity (km/mol):      116.2778
 Index  Atom      ---- Displacements (x/y/z) ----
     1    Pb      -0.003207  -0.001765   0.018081
     2     H      -0.365574  -0.087449  -0.085556
     3     H      -0.407796  -0.108056  -0.044197
     4     O       0.060317  -0.063658  -0.202973
     5     H       0.397550  -0.168543   0.369228
     6     O      -0.020971   0.116629  -0.066890
     7     H       0.413230  -0.112493   0.312283
 
 Mode:    12      Frequency (cm-1):      322.5659     Intensity (km/mol):       58.6123
 Index  Atom      ---- Displacements (x/y/z) ----
     1    Pb       0.010146   0.015785  -0.015043
     2     H      -0.060768   0.001590   0.166534
     3     H      -0.154459  -0.031258   0.119520
     4     O       0.007840   0.023563   0.094657
     5     H       0.242325  -0.406565   0.444590
     6     O      -0.157438  -0.174599   0.026903
     7     H       0.253437  -0.424122   0.444425
 
 Mode:    13      Frequency (cm-1):      337.4058     Intensity (km/mol):      249.7870
 Index  Atom      ---- Displacements (x/y/z) ----
     1    Pb       0.002470   0.005813   0.009663
     2     H       0.645835   0.007263  -0.284621
     3     H       0.557994   0.007117  -0.319254
     4     O      -0.086289  -0.036007  -0.092279
     5     H       0.039999  -0.109662   0.064809
     6     O      -0.033970  -0.026885  -0.007369
     7     H       0.155115  -0.106171   0.126585
 
 Mode:    14      Frequency (cm-1):      550.6950     Intensity (km/mol):       50.1766
 Index  Atom      ---- Displacements (x/y/z) ----
     1    Pb       0.001180  -0.003184  -0.001550
     2     H      -0.050194  -0.092014   0.445088
     3     H       0.110988  -0.305770  -0.312322
     4     O      -0.008120   0.048578  -0.007333
     5     H      -0.028634  -0.535544  -0.032989
     6     O      -0.025738   0.032779   0.044320
     7     H       0.261613   0.299213  -0.366977
 
 Mode:    15      Frequency (cm-1):      567.1376     Intensity (km/mol):       33.7871
 Index  Atom      ---- Displacements (x/y/z) ----
     1    Pb      -0.000900  -0.001737   0.003078
     2     H      -0.012919  -0.109720   0.525178
     3     H       0.081287  -0.381392  -0.379538
     4     O      -0.007867   0.060789  -0.024575
     5     H       0.058958   0.449331   0.052648
     6     O       0.027136  -0.020568  -0.045988
     7     H      -0.247508  -0.238201   0.286482
 
 Mode:    16      Frequency (cm-1):     1589.8929     Intensity (km/mol):       96.6041
 Index  Atom      ---- Displacements (x/y/z) ----
     1    Pb      -0.000043   0.000080   0.000024
     2     H       0.144510  -0.143391   0.440299
     3     H       0.038425   0.391299   0.261388
     4     O      -0.010846  -0.015578  -0.045556
     5     H       0.092120   0.472335   0.173796
     6     O      -0.030788  -0.042751   0.008261
     7     H       0.394666   0.189026  -0.288468
 
 Mode:    17      Frequency (cm-1):     1595.0109     Intensity (km/mol):       36.5904
 Index  Atom      ---- Displacements (x/y/z) ----
     1    Pb      -0.000046  -0.000052   0.000109
     2     H       0.154011  -0.154930   0.472165
     3     H       0.049678   0.427724   0.283640
     4     O      -0.012098  -0.017240  -0.048444
     5     H      -0.090850  -0.438091  -0.166218
     6     O       0.028328   0.039214  -0.006832
     7     H      -0.361016  -0.172699   0.265196
 
 Mode:    18      Frequency (cm-1):     3451.2419     Intensity (km/mol):      499.0883
 Index  Atom      ---- Displacements (x/y/z) ----
     1    Pb      -0.000031  -0.000077  -0.000038
     2     H       0.004401   0.459833   0.121421
     3     H       0.133636  -0.259672   0.321946
     4     O      -0.008695  -0.012378  -0.027192
     5     H       0.371773   0.019504  -0.341131
     6     O      -0.020993  -0.030332   0.001138
     7     H      -0.032293   0.473980   0.319152
 
 Mode:    19      Frequency (cm-1):     3459.9222     Intensity (km/mol):      219.5085
 Index  Atom      ---- Displacements (x/y/z) ----
     1    Pb      -0.000020  -0.000023   0.000067
     2     H      -0.005062  -0.548211  -0.144591
     3     H      -0.156059   0.304980  -0.379101
     4     O       0.010132   0.015187   0.032331
     5     H       0.309962   0.017171  -0.285315
     6     O      -0.017517  -0.026063   0.000661
     7     H      -0.027588   0.403421   0.271656
 
 Mode:    20      Frequency (cm-1):     3536.4876     Intensity (km/mol):      401.0108
 Index  Atom      ---- Displacements (x/y/z) ----
     1    Pb       0.000009  -0.000032  -0.000016
     2     H      -0.013464  -0.397979  -0.125078
     3     H       0.146159  -0.252968   0.351098
     4     O      -0.008397   0.041224  -0.014222
     5     H       0.442273   0.049775  -0.385366
     6     O      -0.028390   0.024494   0.041833
     7     H       0.006970  -0.435220  -0.275644
 
 Mode:    21      Frequency (cm-1):     3537.5114     Intensity (km/mol):      251.4756
 Index  Atom      ---- Displacements (x/y/z) ----
     1    Pb       0.000006   0.000013  -0.000022
     2     H       0.017125   0.497587   0.156660
     3     H      -0.184712   0.323996  -0.447825
     4     O       0.010627  -0.052055   0.018444
     5     H       0.350844   0.039173  -0.308113
     6     O      -0.022573   0.019147   0.033219
     7     H       0.005163  -0.341262  -0.216204

PES point character: Geometry corresponds to a local minimum on the PES.




 ============================
 Statistical Thermal Analysis  ***  ideal gas assumed  ***
 ============================
  
 Pressure:                  1.000000 atm.
 Temperature:             298.150000 K



 Moments of Inertia [amu*bohr^2] and principal axis
 ==================================================

         356.1263        378.5398        728.7005
 ------------------------------------------------
           0.2759         -0.3146          0.9083
           0.8215         -0.4134         -0.3927
           0.4991          0.8545          0.1444


 The rotational contribution to the molecular entropy includes
 a term, dependent on the symmetry number sigma. The results 
 reported below were computed using sigma = 1, determined from
 the point group symmetry of the input geometry (NOSYM). 
 If this is not the correct symmetry, try symmetrizing the molecule before
 running the calculation (note: linear molecules should be aligned along one
 of the Cartesian axes).
 Contributions from frequencies below 20 1/cm are not included in vibrational sums.
 Their contributions, if any, are reported separately.


     Temp                                                        Transl      Rotat     Vibrat     Total
     ----                                                        ------      -----     ------     -----

     298.15   Entropy (cal/mol-K):                               42.377     26.088     17.967     86.432
              Nuclear Internal Energy (kcal/mol):                 0.889      0.889     31.019     32.797
              Constant Volume Heat Capacity (cal/mol-K):          2.981      2.981     14.719     20.680
          (c) Constant Volume Heat Capacity (cal/mol-K):          2.981      2.981     12.836     18.798

       Summary of energy terms
                                                   hartree              eV         kcal/mol           kJ/mol
                                      --------------------     -----------       ----------      -----------
      Energy from Engine:               -0.440866434237857        -11.9966          -276.65         -1157.49
      Nuclear Internal Energy:           0.052264601842502          1.4222            32.80           137.22
  (c) Nuclear Internal Energy:           0.051327314271310          1.3967            32.21           134.76
      Internal Energy U:                -0.388601832395356        -10.5744          -243.85         -1020.27
      pV/n = RT:                         0.000944186013486          0.0257             0.59             2.48
      Enthalpy H:                       -0.387657646381870        -10.5487          -243.26         -1017.80
      -T*S:                             -0.041066850230446         -1.1175           -25.77          -107.82
  (c) -T*S:                             -0.040001026336443         -1.0885           -25.10          -105.02
      Gibbs free energy:                -0.428724496612316        -11.6662          -269.03         -1125.62
 
 
 
  (c) The properties marked with this symbol have been corrected using 'low vibrational frequency free rotor
      interpolation corrections'. For those terms all positive frequencies are used (also ones below 20 1/cm),
      but the contribution to the partition function of small vibrational frequencies is modified as described
      in the following paper:
      S. Grimme, 'Supramolecular Binding Thermodynamics by Dispersion-Corrected Density Functional Theory'
      (Chem. Eur. J. 2012, 18, 9955-9964)
      Configuration: Dampener Frequency          :   100.000 1/cm
                     Dampener Alpha              :     4.000
                     Averaging Moment of Inertia : 1.000E-44 kg m2

--------------
Atomic charges
--------------
  Index   Atom    Charge
      1     Pb    1.6315
      2      H    0.4358
      3      H    0.4307
      4      O   -0.6826
      5      H    0.4312
      6      O   -0.6824
      7      H    0.4358


Dipole moment vector    (Debye):     0.59514387    3.76599328    8.39140475
              magnitude (Debye):     9.21697213


Final PES point is a local minimum. Geometry optimization successful!


AMS application finished. Exiting.
NORMAL TERMINATION
     Total cpu time:     137.53
  Total system time:       6.83
 Total elapsed time:     147.36
