

 Parallel Execution: Process Information
 ==============================================================================
 Rank   Node Name                              NodeID   MyNodeRank  NodeMaster
    0   adf1                                      0          0          0
    1   adf1                                      0          1         -1
    2   adf1                                      0          2         -1
    3   adf1                                      0          3         -1
    4   adf1                                      0          4         -1
    5   adf1                                      0          5         -1
    6   adf1                                      1          0          1
    7   adf1                                      1          1         -1
    8   adf1                                      1          2         -1
    9   adf1                                      1          3         -1
   10   adf1                                      1          4         -1
   11   adf1                                      1          5         -1
 ==============================================================================


May use up to 11697MB of RAM as shared memory on node 0
May use up to 11718MB of RAM as shared memory on node 1

 *******************************************************************************
 *                                                                             *
 *  --------------------------------                                           *
 *   Amsterdam Modeling Suite (AMS)              2021.102                      *
 *  --------------------------------                                           *
 *                                               r95042 2021-06-07             *
 *                                                                             *
 *                                                                             *
 *                              =================                              *
 *                              |               |                              *
 *                              |     A M S     |                              *
 *                              |               |                              *
 *                              =================                              *
 *                                                                             *
 *                                                                             *
 *   Online information and documentation:  https://www.scm.com/support/       *
 *   E-mail:  support@scm.com   info@scm.com                                   *
 *                                                                             *
 *   Scientific publications using AMS results must be properly referenced     *
 *   See the User Manuals (or the web site) for recommended citations          *
 *   The terms and conditions of the End User License Agreement apply to       *
 *   the use of AMS, https://www.scm.com/license-terms/                        *
 *                                                                             *
 **********************  x86_64_linux_intel / intelmpi  ************************
 
 Licensed to: Dr. Miroslav Ilias / Matej Bel University, Department Chemistry, Fac. Natural Sciences / Banska Bystrica / SLOVAKIA
 SCM User ID: u17848
  
 AMS 2021.102  RunTime: Jul10-2021 19:28:59  ShM Nodes: 2  Procs: 12

 AMS jobname: ams
 AMS jobid  : 1256013881

 Start   directory: /home/milias/Work/projects/open-collection/theoretical_chemistry/projects/nmr_diplomovky/vanovci/CTMP/tmp.milias.15445.0.noindex/
 Results directory: /home/milias/Work/projects/open-collection/theoretical_chemistry/projects/nmr_diplomovky/vanovci/CTMP/CTMP.geopt_freq_nmr_pbe0_tz2p_good_cosmo-chcl3.results/
 Scratch directory: /tmp/amstmp_ams_kid0.1256013881/


 Communication costs MPI_COMM_WORLD:      2.822 usec per message,   0.0270 usec per 8-byte item
 Communication costs for intra-node:      1.622 usec per message,   0.0146 usec per 8-byte item

 RNG seed: 1562758276 -781933398 853600430 1359105144 81603903 -1321126306 -1665221325 -1813968970



                     *************************************************************************
                     *  ADF 2021.102  RunTime: Jul10-2021 19:28:59  ShM Nodes: 2  Procs: 12  *
                     *************************************************************************
  
       ***************************
       *  GEOMETRY OPTIMIZATION  *
       ***************************

Optimization Method                    Quasi Newton
Optimization Coordinates               Delocalized Coordinates
Optimize lattice                       F
 
 ------------------------------------------------------
 Convergence criteria (Hartree,Angstrom)
 ------------------------------------------------------
 Maximum gradient               0.001000000000
 Maximum rms gradient           0.000666666667
 Maximum step allowed           0.001000000000
 Maximum rms step allowed       0.000666666667
 Maximum energy change allowe   0.000220000000
 Maximum stress energy allowe   0.000500000000
 
Initial model Hessian                  Automatic Hessian
 
------------------------------------
Quasi-Newton Optimizer Parameters
------------------------------------
Hessian Update Method                  BFGS
Maximum number of steps                  250
First GDIIS cycle                          0
Maximum GDIIS vectors                      0
Trust radius (bohr)                        0.200000
Trust radius varies                        T
Constraints converged at all steps         T
Use projector                              T
 
 Rigid motions settings for: old optimizer
 Atomic rotations (x,y,z):     T T T
 Atomic translations (x,y,z):  T T T
 Tolerance:                   1.000000000000000E-006
 
--------
Geometry
--------
Formula: C6H12ClO2P
Atoms
  Index Symbol   x (angstrom)   y (angstrom)   z (angstrom)
      1     Cl     3.07720000    -0.06290000     0.48500000       adf.R=1.725
      2      P     1.54350000    -0.54910000    -0.86250000       adf.R=1.850
      3      O     0.72460000     0.85950000    -0.89670000       adf.R=1.517
      4      O     0.51790000    -1.31780000     0.14460000       adf.R=1.517
      5      C    -0.42930000     0.83280000    -0.02950000       adf.R=1.700
      6      C    -0.77070000    -0.67240000     0.13650000       adf.R=1.700
      7      C    -0.04680000     1.55270000     1.27810000       adf.R=1.700
      8      C    -1.53720000     1.64810000    -0.70750000       adf.R=1.700
      9      C    -1.61030000    -1.28080000    -1.00740000       adf.R=1.700
     10      C    -1.46900000    -1.01010000     1.45940000       adf.R=1.700
     11      H    -0.91730000     1.70210000     1.92550000       adf.R=1.350
     12      H     0.70570000     0.99950000     1.84800000       adf.R=1.350
     13      H     0.39180000     2.53460000     1.06410000       adf.R=1.350
     14      H    -1.72140000     1.30770000    -1.73200000       adf.R=1.350
     15      H    -2.47400000     1.60170000    -0.14330000       adf.R=1.350
     16      H    -1.24260000     2.70060000    -0.79830000       adf.R=1.350
     17      H    -2.64120000    -0.91200000    -0.99040000       adf.R=1.350
     18      H    -1.18650000    -1.06240000    -1.99340000       adf.R=1.350
     19      H    -1.63780000    -2.37390000    -0.92400000       adf.R=1.350
     20      H    -2.41500000    -0.46970000     1.56430000       adf.R=1.350
     21      H    -1.67870000    -2.08460000     1.52250000       adf.R=1.350
     22      H    -0.83360000    -0.78720000     2.32300000       adf.R=1.350
 
Total System Charge             0.00000
Bonding info available!
 
 
----------------
ADF Engine Input
----------------
 
 Basis
 Type TZ2P
 Core None
 End
 Save TAPE10
 XC
 Hybrid PBE0
 End
 Relativity
 Level None
 End
 Symmetry NOSYM
 Solvation
 Surf Delley
 Solv name=Chloroform cav0=0.0 cav1=0.0067639
 Charged method=CONJ
 C-Mat POT
 SCF VAR ALL
 CSMRSP
 End
 NumericalQuality Good
 UseSPCode Yes
 

 Title: *** (NO TITLE) ***

 Using automatic Hessian for delocalized coordinates.
 *** GOStep1 ***

 SOLVATION
-------------------------------------------

  The Delley construction of COSMO surface surface is calculated

       Division Level for Surface Triangles (NDIV)                  3
       Final Division Level for Triangles (NFDIV)                   1
       Radius of the Solvent (RSOL)                           3.17000 angstr
  Dielectric Constant (EPSL)                                  4.80000

       COSMO equation is solved iteratively-               conjugate-gradient

       Maximun of Iterations for Charges (NCIX)                  1000
       Criterion for Charge convergence (CCNV)                1.0E-08

  COSMO charges included variationally in SCF

       COSMO included at every SCF cycle

  Geometry-dependent empirical factor                         0.00000

  C-Matrix calculated in cspmtx

  In cspmtx, C-Matrix calculated using fitted potential

-------------------------------------------



 -------------------------------------------
  COSMO surface
  Area             =          647.507
  Volume           =         1320.985
  Number of Points =         1533
 -------------------------------------------



 ======================
 RI Hartree-Fock Scheme
 ======================
  
 Fit Set Quality     : GOOD
 Integration Quality : GOOD
 Threshold Quality   : GOOD
 Response Quality    : DEFAULT
 Is Range Separated  :  F
 
 RIHartreeFock Dependency: number of modified vectors:          22
 cosmo_calcen: 0.5 (esolb+esolc) (Hartrees) =   -0.007373

 Solvation energy (screening term,uncorrected) =     -4.626722 kcal/mol

 Solvation energy (dispersion and cavitation terms) =      0.970927 kcal/mol
 Solvation Energy Contributions (Hartrees)
          esola   esolb+esolc
     0.00737315   -0.01474630
 esol last cycle   -0.00737315
  
 Hartree-Fock exchange energy:   -102.060173507825     
 cosmo_calcen: 0.5 (esolb+esolc) (Hartrees) =   -0.007373

 Solvation energy (screening term,uncorrected) =     -4.626722 kcal/mol

 Solvation energy (dispersion and cavitation terms) =      0.970927 kcal/mol
 Solvation Energy Contributions (Hartrees)
          esola   esolb+esolc
     0.00737315   -0.01474630
 esol last cycle   -0.00737315
  pauli hf:                              1.067732530334521         29.0545           670.01          2803.33
  elstat hf:                            -2.197800253446875        -59.8052         -1379.14         -5770.32

 Energy gradients wrt nuclear displacements
 ==========================================

     Atom      Cartesian (a.u./angstrom)
                 X         Y         Z
 ----------------------------------------
     1 Cl   -0.009132  0.002103 -0.007571
     2 P    -0.004567 -0.007255  0.003451
     3 O     0.004059  0.027490  0.008524
     4 O    -0.006534 -0.006264  0.011898
     5 C     0.023932 -0.043484 -0.014882
     6 C     0.036102  0.017817 -0.015505
     7 C    -0.006155  0.011686 -0.005186
     8 C    -0.006989  0.002293  0.014722
     9 C    -0.009574 -0.007124  0.005331
    10 C    -0.013747  0.002821 -0.007240
    11 H    -0.002721  0.001778  0.006398
    12 H     0.004490  0.001386  0.003242
    13 H     0.007417  0.007268  0.006627
    14 H     0.000986  0.004498 -0.007765
    15 H    -0.006157  0.001924  0.000585
    16 H    -0.001364  0.007452 -0.008575
    17 H    -0.007225  0.000481 -0.002008
    18 H     0.000580 -0.004112 -0.003396
    19 H    -0.002331 -0.008871 -0.008180
    20 H    -0.005290  0.001178  0.003474
    21 H     0.000895 -0.007073  0.008999
    22 H     0.003325 -0.005992  0.007057
 ----------------------------------------
 Mulliken charges used for AMS results%charges...
 
----------------------------------------------------------------------
Geometry Convergence after Step   1       (Hartree/Angstrom,Angstrom)
----------------------------------------------------------------------
current energy                               -5.46651035 Hartree
energy change                      -5.46651035     0.00022000    F
constrained gradient max            0.04348584     0.00100000    F
constrained gradient rms            0.01082508     0.00066667    F
gradient max                        0.04348584
gradient rms                        0.01082508
cart. step max                      0.07355136     0.00100000    F
cart. step rms                      0.02254087     0.00066667    F
 
 
--------
Geometry
--------
Formula: C6H12ClO2P
Atoms
  Index Symbol   x (angstrom)   y (angstrom)   z (angstrom)
      1     Cl     3.08928974    -0.09707702     0.51396898       adf.R=1.725
      2      P     1.55949920    -0.55121683    -0.85837967       adf.R=1.850
      3      O     0.70124044     0.82965529    -0.90740988       adf.R=1.517
      4      O     0.51507330    -1.30848741     0.13500999       adf.R=1.517
      5      C    -0.44959882     0.83546952    -0.02785318       adf.R=1.700
      6      C    -0.78021276    -0.66507179     0.14986343       adf.R=1.700
      7      C    -0.05738421     1.52921352     1.27816291       adf.R=1.700
      8      C    -1.55409418     1.62300233    -0.72150821       adf.R=1.700
      9      C    -1.60030216    -1.23505072    -1.01062955       adf.R=1.700
     10      C    -1.45223168    -0.99589920     1.47622665       adf.R=1.700
     11      H    -0.92771243     1.67802435     1.92033378       adf.R=1.350
     12      H     0.69052922     0.96258499     1.83657672       adf.R=1.350
     13      H     0.37509019     2.50530379     1.04817505       adf.R=1.350
     14      H    -1.73842905     1.25325427    -1.73247555       adf.R=1.350
     15      H    -2.48261370     1.57297191    -0.14969202       adf.R=1.350
     16      H    -1.25976697     2.67140403    -0.81203408       adf.R=1.350
     17      H    -2.62587501    -0.86275021    -0.98868029       adf.R=1.350
     18      H    -1.16454236    -0.98884864    -1.98332158       adf.R=1.350
     19      H    -1.62344227    -2.32398166    -0.92961290       adf.R=1.350
     20      H    -2.39270969    -0.45157791     1.57992278       adf.R=1.350
     21      H    -1.66518356    -2.06652122     1.52498453       adf.R=1.350
     22      H    -0.80732322    -0.75800139     2.32437208       adf.R=1.350
 
Total System Charge             0.00000
Bonding info available!
 
 *** GOStep2 ***

 SOLVATION
-------------------------------------------

  The Delley construction of COSMO surface surface is calculated

       Division Level for Surface Triangles (NDIV)                  3
       Final Division Level for Triangles (NFDIV)                   1
       Radius of the Solvent (RSOL)                           3.17000 angstr
  Dielectric Constant (EPSL)                                  4.80000

       COSMO equation is solved iteratively-               conjugate-gradient

       Maximun of Iterations for Charges (NCIX)                  1000
       Criterion for Charge convergence (CCNV)                1.0E-08

  COSMO charges included variationally in SCF

       COSMO included at every SCF cycle

  Geometry-dependent empirical factor                         0.00000

  C-Matrix calculated in cspmtx

  In cspmtx, C-Matrix calculated using fitted potential

-------------------------------------------



 -------------------------------------------
  COSMO surface
  Area             =          644.968
  Volume           =         1312.713
  Number of Points =         1535
 -------------------------------------------



 ======================
 RI Hartree-Fock Scheme
 ======================
  
 Fit Set Quality     : GOOD
 Integration Quality : GOOD
 Threshold Quality   : GOOD
 Response Quality    : DEFAULT
 Is Range Separated  :  F
 
 RIHartreeFock Dependency: number of modified vectors:          22
 cosmo_calcen: 0.5 (esolb+esolc) (Hartrees) =   -0.007565

 Solvation energy (screening term,uncorrected) =     -4.747182 kcal/mol

 Solvation energy (dispersion and cavitation terms) =      0.967120 kcal/mol
 Solvation Energy Contributions (Hartrees)
          esola   esolb+esolc
     0.00756512   -0.01513023
 esol last cycle   -0.00756512
  
 Hartree-Fock exchange energy:   -102.094079646985     
 cosmo_calcen: 0.5 (esolb+esolc) (Hartrees) =   -0.007565

 Solvation energy (screening term,uncorrected) =     -4.747181 kcal/mol

 Solvation energy (dispersion and cavitation terms) =      0.967120 kcal/mol
 Solvation Energy Contributions (Hartrees)
          esola   esolb+esolc
     0.00756511   -0.01513023
 esol last cycle   -0.00756511
  pauli hf:                              0.974158277775764         26.5082           611.29          2557.65
  elstat hf:                            -2.220604122112160        -60.4257         -1393.45         -5830.20

 Energy gradients wrt nuclear displacements
 ==========================================

     Atom      Cartesian (a.u./angstrom)
                 X         Y         Z
 ----------------------------------------
     1 Cl   -0.005868 -0.000749 -0.006393
     2 P     0.010671 -0.008335 -0.001344
     3 O    -0.004264  0.010360  0.009431
     4 O    -0.005312  0.002957  0.005769
     5 C     0.008855 -0.017567 -0.012277
     6 C     0.018377  0.007076 -0.002873
     7 C    -0.004737  0.002963  0.003117
     8 C    -0.008398 -0.001042  0.006624
     9 C    -0.005234  0.001897 -0.001668
    10 C    -0.008855  0.004885  0.000440
    11 H    -0.000873  0.000155  0.002918
    12 H     0.002437  0.000284  0.002574
    13 H     0.003036  0.001376  0.001087
    14 H     0.000188  0.001015 -0.005066
    15 H    -0.001832  0.000422 -0.000352
    16 H     0.000434  0.002264 -0.004062
    17 H    -0.002186  0.001156 -0.000717
    18 H     0.000219 -0.001577 -0.003344
    19 H     0.000661 -0.002543 -0.002353
    20 H    -0.001195  0.000385  0.001417
    21 H     0.001582 -0.002870  0.003091
    22 H     0.002290 -0.002511  0.003982
 ----------------------------------------
 Mulliken charges used for AMS results%charges...

 dE(predicted):    -0.33873E-02, dE(actual):    -0.35693E-02, Trust radius:    0.400000, all in a.u.
 
----------------------------------------------------------------------
Geometry Convergence after Step   2       (Hartree/Angstrom,Angstrom)
----------------------------------------------------------------------
current energy                               -5.47007963 Hartree
energy change                      -0.00356928     0.00022000    F
constrained gradient max            0.01837229     0.00100000    F
constrained gradient rms            0.00542525     0.00066667    F
gradient max                        0.01837229
gradient rms                        0.00542525
cart. step max                      0.15651575     0.00100000    F
cart. step rms                      0.03596431     0.00066667    F
 
 
--------
Geometry
--------
Formula: C6H12ClO2P
Atoms
  Index Symbol   x (angstrom)   y (angstrom)   z (angstrom)
      1     Cl     2.99201623    -0.00991068     0.67048473       adf.R=1.725
      2      P     1.57545890    -0.52502150    -0.81006255       adf.R=1.850
      3      O     0.65834190     0.80157845    -0.95583274       adf.R=1.517
      4      O     0.49892642    -1.31286981     0.11933773       adf.R=1.517
      5      C    -0.46746626     0.83541464    -0.03908015       adf.R=1.700
      6      C    -0.80156371    -0.66897780     0.14350534       adf.R=1.700
      7      C    -0.01418235     1.51608873     1.24138474       adf.R=1.700
      8      C    -1.55983732     1.64306270    -0.70693297       adf.R=1.700
      9      C    -1.60413725    -1.24761998    -1.01057258       adf.R=1.700
     10      C    -1.45321378    -1.01085617     1.46521603       adf.R=1.700
     11      H    -0.86101669     1.67769419     1.90688261       adf.R=1.350
     12      H     0.74189358     0.93346781     1.76606801       adf.R=1.350
     13      H     0.41224697     2.48433966     0.98233290       adf.R=1.350
     14      H    -1.77828865     1.27432330    -1.70712437       adf.R=1.350
     15      H    -2.46915378     1.60428177    -0.10753942       adf.R=1.350
     16      H    -1.24305391     2.68299661    -0.78094959       adf.R=1.350
     17      H    -2.63121586    -0.88797668    -0.98938666       adf.R=1.350
     18      H    -1.16447617    -0.99254334    -1.97658526       adf.R=1.350
     19      H    -1.61349771    -2.33223437    -0.91090144       adf.R=1.350
     20      H    -2.39527878    -0.47221170     1.56501393       adf.R=1.350
     21      H    -1.66430099    -2.07941190     1.49641057       adf.R=1.350
     22      H    -0.80890082    -0.75721391     2.30433117       adf.R=1.350
 
Total System Charge             0.00000
Bonding info available!
 
 *** GOStep3 ***

 SOLVATION
-------------------------------------------

  The Delley construction of COSMO surface surface is calculated

       Division Level for Surface Triangles (NDIV)                  3
       Final Division Level for Triangles (NFDIV)                   1
       Radius of the Solvent (RSOL)                           3.17000 angstr
  Dielectric Constant (EPSL)                                  4.80000

       COSMO equation is solved iteratively-               conjugate-gradient

       Maximun of Iterations for Charges (NCIX)                  1000
       Criterion for Charge convergence (CCNV)                1.0E-08

  COSMO charges included variationally in SCF

       COSMO included at every SCF cycle

  Geometry-dependent empirical factor                         0.00000

  C-Matrix calculated in cspmtx

  In cspmtx, C-Matrix calculated using fitted potential

-------------------------------------------



 -------------------------------------------
  COSMO surface
  Area             =          641.502
  Volume           =         1305.176
  Number of Points =         1535
 -------------------------------------------



 ======================
 RI Hartree-Fock Scheme
 ======================
  
 Fit Set Quality     : GOOD
 Integration Quality : GOOD
 Threshold Quality   : GOOD
 Response Quality    : DEFAULT
 Is Range Separated  :  F
 
 RIHartreeFock Dependency: number of modified vectors:          22
 cosmo_calcen: 0.5 (esolb+esolc) (Hartrees) =   -0.007514

 Solvation energy (screening term,uncorrected) =     -4.714913 kcal/mol

 Solvation energy (dispersion and cavitation terms) =      0.961922 kcal/mol
 Solvation Energy Contributions (Hartrees)
          esola   esolb+esolc
     0.00751369   -0.01502738
 esol last cycle   -0.00751369
  
 Hartree-Fock exchange energy:   -102.124517570725     
 cosmo_calcen: 0.5 (esolb+esolc) (Hartrees) =   -0.007514

 Solvation energy (screening term,uncorrected) =     -4.714913 kcal/mol

 Solvation energy (dispersion and cavitation terms) =      0.961922 kcal/mol
 Solvation Energy Contributions (Hartrees)
          esola   esolb+esolc
     0.00751369   -0.01502738
 esol last cycle   -0.00751369
  pauli hf:                              0.934822612502526         25.4378           586.61          2454.38
  elstat hf:                            -2.239221554149903        -60.9323         -1405.13         -5879.08

 Energy gradients wrt nuclear displacements
 ==========================================

     Atom      Cartesian (a.u./angstrom)
                 X         Y         Z
 ----------------------------------------
     1 Cl   -0.007999 -0.001450 -0.004069
     2 P     0.010907 -0.000998  0.001808
     3 O    -0.009651  0.003906  0.006265
     4 O    -0.007317  0.002000  0.004363
     5 C     0.001504 -0.002266 -0.004461
     6 C     0.004392  0.000954  0.000026
     7 C     0.001293  0.002087 -0.000039
     8 C    -0.002528  0.001916 -0.000209
     9 C    -0.001480 -0.001018 -0.000518
    10 C    -0.001999 -0.000998  0.001544
    11 H     0.001224 -0.000741 -0.000928
    12 H     0.002208 -0.001822 -0.000162
    13 H    -0.000556 -0.001356 -0.001376
    14 H     0.000538  0.000056  0.000087
    15 H     0.001905 -0.000478 -0.000471
    16 H     0.000872 -0.000791  0.000248
    17 H     0.002102 -0.000017  0.000345
    18 H     0.000443  0.000226 -0.000669
    19 H     0.001147  0.001029  0.001021
    20 H     0.001963 -0.000364 -0.000995
    21 H     0.000624  0.000297 -0.001147
    22 H     0.000408 -0.000172 -0.000664
 ----------------------------------------
 Mulliken charges used for AMS results%charges...

 dE(predicted):    -0.12486E-02, dE(actual):    -0.10455E-02, Trust radius:    0.800000, all in a.u.
 
----------------------------------------------------------------------
Geometry Convergence after Step   3       (Hartree/Angstrom,Angstrom)
----------------------------------------------------------------------
current energy                               -5.47112514 Hartree
energy change                      -0.00104551     0.00022000    F
constrained gradient max            0.01090377     0.00100000    F
constrained gradient rms            0.00286478     0.00066667    F
gradient max                        0.01090377
gradient rms                        0.00286478
cart. step max                      0.05986413     0.00100000    F
cart. step rms                      0.01986606     0.00066667    F
 
 
--------
Geometry
--------
Formula: C6H12ClO2P
Atoms
  Index Symbol   x (angstrom)   y (angstrom)   z (angstrom)
      1     Cl     3.05188036    -0.06688856     0.62322038       adf.R=1.725
      2      P     1.57810583    -0.52714144    -0.82637139       adf.R=1.850
      3      O     0.67788149     0.81036055    -0.94430957       adf.R=1.517
      4      O     0.50508273    -1.31967331     0.10016091       adf.R=1.517
      5      C    -0.46034953     0.83821938    -0.03485958       adf.R=1.700
      6      C    -0.79563724    -0.66929028     0.14268101       adf.R=1.700
      7      C    -0.04689737     1.52399638     1.25541865       adf.R=1.700
      8      C    -1.54690846     1.63825030    -0.71813651       adf.R=1.700
      9      C    -1.61267359    -1.24148106    -1.00333266       adf.R=1.700
     10      C    -1.43708765    -1.00938456     1.46874947       adf.R=1.700
     11      H    -0.91593419     1.68292408     1.89293076       adf.R=1.350
     12      H     0.69299987     0.94749998     1.80626762       adf.R=1.350
     13      H     0.38034831     2.49565421     1.01015302       adf.R=1.350
     14      H    -1.74957909     1.26738934    -1.72029739       adf.R=1.350
     15      H    -2.46518304     1.59234306    -0.13198251       adf.R=1.350
     16      H    -1.23916692     2.68120176    -0.78528522       adf.R=1.350
     17      H    -2.63887350    -0.87874955    -0.97005968       adf.R=1.350
     18      H    -1.18262172    -0.98280917    -1.97187311       adf.R=1.350
     19      H    -1.62767951    -2.32659720    -0.90911890       adf.R=1.350
     20      H    -2.37840883    -0.46936164     1.57509512       adf.R=1.350
     21      H    -1.65203421    -2.07684859     1.50412660       adf.R=1.350
     22      H    -0.78796375    -0.75321367     2.30282298       adf.R=1.350
 
Total System Charge             0.00000
Bonding info available!
 
 *** GOStep4 ***

 SOLVATION
-------------------------------------------

  The Delley construction of COSMO surface surface is calculated

       Division Level for Surface Triangles (NDIV)                  3
       Final Division Level for Triangles (NFDIV)                   1
       Radius of the Solvent (RSOL)                           3.17000 angstr
  Dielectric Constant (EPSL)                                  4.80000

       COSMO equation is solved iteratively-               conjugate-gradient

       Maximun of Iterations for Charges (NCIX)                  1000
       Criterion for Charge convergence (CCNV)                1.0E-08

  COSMO charges included variationally in SCF

       COSMO included at every SCF cycle

  Geometry-dependent empirical factor                         0.00000

  C-Matrix calculated in cspmtx

  In cspmtx, C-Matrix calculated using fitted potential

-------------------------------------------



 -------------------------------------------
  COSMO surface
  Area             =          642.621
  Volume           =         1307.426
  Number of Points =         1533
 -------------------------------------------



 ======================
 RI Hartree-Fock Scheme
 ======================
  
 Fit Set Quality     : GOOD
 Integration Quality : GOOD
 Threshold Quality   : GOOD
 Response Quality    : DEFAULT
 Is Range Separated  :  F
 
 RIHartreeFock Dependency: number of modified vectors:          22
 cosmo_calcen: 0.5 (esolb+esolc) (Hartrees) =   -0.007713

 Solvation energy (screening term,uncorrected) =     -4.840036 kcal/mol

 Solvation energy (dispersion and cavitation terms) =      0.963600 kcal/mol
 Solvation Energy Contributions (Hartrees)
          esola   esolb+esolc
     0.00771309   -0.01542617
 esol last cycle   -0.00771309
  
 Hartree-Fock exchange energy:   -102.119284119548     
 cosmo_calcen: 0.5 (esolb+esolc) (Hartrees) =   -0.007713

 Solvation energy (screening term,uncorrected) =     -4.840038 kcal/mol

 Solvation energy (dispersion and cavitation terms) =      0.963600 kcal/mol
 Solvation Energy Contributions (Hartrees)
          esola   esolb+esolc
     0.00771309   -0.01542618
 esol last cycle   -0.00771309
  pauli hf:                              0.926673042643380         25.2161           581.50          2432.98
  elstat hf:                            -2.235511707648524        -60.8314         -1402.80         -5869.34

 Energy gradients wrt nuclear displacements
 ==========================================

     Atom      Cartesian (a.u./angstrom)
                 X         Y         Z
 ----------------------------------------
     1 Cl   -0.002237 -0.002813 -0.005300
     2 P     0.007935  0.002137  0.005584
     3 O    -0.005558  0.001509 -0.000793
     4 O    -0.004610 -0.000555  0.001531
     5 C     0.002034 -0.000509 -0.001767
     6 C     0.001822  0.000238  0.000577
     7 C    -0.002000  0.001294  0.002300
     8 C    -0.000171  0.001161 -0.000013
     9 C    -0.000827 -0.000953 -0.000164
    10 C    -0.001217 -0.000518  0.000651
    11 H     0.000589 -0.000118 -0.000664
    12 H    -0.000969 -0.000374 -0.000929
    13 H    -0.000725 -0.000964 -0.000949
    14 H     0.000487 -0.000364  0.000783
    15 H     0.001369 -0.000380 -0.000200
    16 H     0.000461 -0.000800  0.000676
    17 H     0.001356 -0.000223  0.000232
    18 H     0.000204  0.000559  0.000388
    19 H     0.000491  0.000860  0.000804
    20 H     0.001224 -0.000260 -0.000574
    21 H     0.000142  0.000604 -0.001048
    22 H     0.000200  0.000468 -0.001125
 ----------------------------------------
 Mulliken charges used for AMS results%charges...

 dE(predicted):    -0.35595E-03, dE(actual):    -0.21639E-03, Trust radius:    0.800000, all in a.u.
 
----------------------------------------------------------------------
Geometry Convergence after Step   4       (Hartree/Angstrom,Angstrom)
----------------------------------------------------------------------
current energy                               -5.47134153 Hartree
energy change                      -0.00021639     0.00022000    T
constrained gradient max            0.00792643     0.00100000    F
constrained gradient rms            0.00191960     0.00066667    F
gradient max                        0.00792643
gradient rms                        0.00191960
cart. step max                      0.03198579     0.00100000    F
cart. step rms                      0.00824241     0.00066667    F
 
 
--------
Geometry
--------
Formula: C6H12ClO2P
Atoms
  Index Symbol   x (angstrom)   y (angstrom)   z (angstrom)
      1     Cl     3.02849330    -0.04943983     0.65520617       adf.R=1.725
      2      P     1.58567601    -0.52590587    -0.82547057       adf.R=1.850
      3      O     0.68698696     0.81030718    -0.94437829       adf.R=1.517
      4      O     0.50786624    -1.32566704     0.08675036       adf.R=1.517
      5      C    -0.45550926     0.83637740    -0.03682325       adf.R=1.700
      6      C    -0.79304249    -0.67195881     0.13837079       adf.R=1.700
      7      C    -0.04292986     1.52194831     1.25502895       adf.R=1.700
      8      C    -1.54576306     1.63135619    -0.72298969       adf.R=1.700
      9      C    -1.62240569    -1.23534263    -1.00479440       adf.R=1.700
     10      C    -1.42801978    -1.01027537     1.46957509       adf.R=1.700
     11      H    -0.91364102     1.67948786     1.89180325       adf.R=1.350
     12      H     0.69641032     0.94768510     1.80923951       adf.R=1.350
     13      H     0.38464016     2.49576813     1.01604515       adf.R=1.350
     14      H    -1.74747670     1.25798117    -1.72490039       adf.R=1.350
     15      H    -2.46623072     1.58483518    -0.13870682       adf.R=1.350
     16      H    -1.24442979     2.67632050    -0.79521184       adf.R=1.350
     17      H    -2.64697579    -0.86590770    -0.96426082       adf.R=1.350
     18      H    -1.19814941    -0.97698711    -1.97597060       adf.R=1.350
     19      H    -1.64654050    -2.32149098    -0.91793353       adf.R=1.350
     20      H    -2.36938641    -0.46985661     1.58257067       adf.R=1.350
     21      H    -1.64465458    -2.07763224     1.51086681       adf.R=1.350
     22      H    -0.77561792    -0.75520284     2.30198343       adf.R=1.350
 
Total System Charge             0.00000
Bonding info available!
 
 *** GOStep5 ***

 SOLVATION
-------------------------------------------

  The Delley construction of COSMO surface surface is calculated

       Division Level for Surface Triangles (NDIV)                  3
       Final Division Level for Triangles (NFDIV)                   1
       Radius of the Solvent (RSOL)                           3.17000 angstr
  Dielectric Constant (EPSL)                                  4.80000

       COSMO equation is solved iteratively-               conjugate-gradient

       Maximun of Iterations for Charges (NCIX)                  1000
       Criterion for Charge convergence (CCNV)                1.0E-08

  COSMO charges included variationally in SCF

       COSMO included at every SCF cycle

  Geometry-dependent empirical factor                         0.00000

  C-Matrix calculated in cspmtx

  In cspmtx, C-Matrix calculated using fitted potential

-------------------------------------------



 -------------------------------------------
  COSMO surface
  Area             =          642.349
  Volume           =         1307.424
  Number of Points =         1538
 -------------------------------------------



 ======================
 RI Hartree-Fock Scheme
 ======================
  
 Fit Set Quality     : GOOD
 Integration Quality : GOOD
 Threshold Quality   : GOOD
 Response Quality    : DEFAULT
 Is Range Separated  :  F
 
 RIHartreeFock Dependency: number of modified vectors:          22
 cosmo_calcen: 0.5 (esolb+esolc) (Hartrees) =   -0.007816

 Solvation energy (screening term,uncorrected) =     -4.904311 kcal/mol

 Solvation energy (dispersion and cavitation terms) =      0.963193 kcal/mol
 Solvation Energy Contributions (Hartrees)
          esola   esolb+esolc
     0.00781552   -0.01563103
 esol last cycle   -0.00781552
  
 Hartree-Fock exchange energy:   -102.113351776946     
 cosmo_calcen: 0.5 (esolb+esolc) (Hartrees) =   -0.007816

 Solvation energy (screening term,uncorrected) =     -4.904312 kcal/mol

 Solvation energy (dispersion and cavitation terms) =      0.963193 kcal/mol
 Solvation Energy Contributions (Hartrees)
          esola   esolb+esolc
     0.00781552   -0.01563104
 esol last cycle   -0.00781552
  pauli hf:                              0.931719433547777         25.3534           584.66          2446.23
  elstat hf:                            -2.231569972408760        -60.7241         -1400.33         -5858.99

 Energy gradients wrt nuclear displacements
 ==========================================

     Atom      Cartesian (a.u./angstrom)
                 X         Y         Z
 ----------------------------------------
     1 Cl   -0.003519 -0.001602 -0.003869
     2 P     0.006197  0.000973  0.002347
     3 O    -0.001802  0.000926 -0.000103
     4 O    -0.000937  0.000102  0.002211
     5 C     0.001612 -0.000824 -0.001150
     6 C     0.001377 -0.000175 -0.000280
     7 C    -0.000541  0.000252  0.001473
     8 C    -0.000606 -0.000398  0.000059
     9 C    -0.001004  0.000385 -0.000560
    10 C    -0.000761  0.000225  0.000301
    11 H     0.000188 -0.000017 -0.000074
    12 H    -0.000421 -0.000023 -0.000135
    13 H    -0.000127 -0.000132 -0.000062
    14 H     0.000026 -0.000310  0.000090
    15 H     0.000083 -0.000028 -0.000114
    16 H     0.000074 -0.000283  0.000120
    17 H    -0.000010 -0.000017 -0.000158
    18 H    -0.000095  0.000275  0.000166
    19 H     0.000074  0.000222  0.000083
    20 H     0.000150 -0.000012  0.000059
    21 H    -0.000034  0.000262 -0.000157
    22 H     0.000072  0.000199 -0.000245
 ----------------------------------------
 Mulliken charges used for AMS results%charges...

 dE(predicted):    -0.11544E-03, dE(actual):    -0.14981E-03, Trust radius:    0.800000, all in a.u.
 
----------------------------------------------------------------------
Geometry Convergence after Step   5       (Hartree/Angstrom,Angstrom)
----------------------------------------------------------------------
current energy                               -5.47149134 Hartree
energy change                      -0.00014981     0.00022000    T
constrained gradient max            0.00618791     0.00100000    F
constrained gradient rms            0.00121504     0.00066667    F
gradient max                        0.00618791
gradient rms                        0.00121504
cart. step max                      0.02589934     0.00100000    F
cart. step rms                      0.00579787     0.00066667    F
 
 
--------
Geometry
--------
Formula: C6H12ClO2P
Atoms
  Index Symbol   x (angstrom)   y (angstrom)   z (angstrom)
      1     Cl     3.01439641    -0.03988125     0.68110551       adf.R=1.725
      2      P     1.58775488    -0.52299015    -0.82181596       adf.R=1.850
      3      O     0.68879037     0.80987832    -0.94469294       adf.R=1.517
      4      O     0.50465732    -1.33069713     0.07324632       adf.R=1.517
      5      C    -0.45730108     0.83705478    -0.03850925       adf.R=1.700
      6      C    -0.79559622    -0.67321517     0.13567463       adf.R=1.700
      7      C    -0.04152246     1.52168081     1.25196138       adf.R=1.700
      8      C    -1.54350857     1.63628293    -0.72626822       adf.R=1.700
      9      C    -1.62826848    -1.23723500    -1.00395107       adf.R=1.700
     10      C    -1.42112227    -1.01512529     1.47034761       adf.R=1.700
     11      H    -0.91234565     1.68123302     1.88863824       adf.R=1.350
     12      H     0.69707562     0.94770694     1.80732407       adf.R=1.350
     13      H     0.38722353     2.49535536     1.01362826       adf.R=1.350
     14      H    -1.74517132     1.26570315    -1.72919244       adf.R=1.350
     15      H    -2.46584098     1.59196911    -0.14407624       adf.R=1.350
     16      H    -1.24029428     2.68100658    -0.79638624       adf.R=1.350
     17      H    -2.65260081    -0.86666509    -0.96055424       adf.R=1.350
     18      H    -1.20690085    -0.98165548    -1.97702351       adf.R=1.350
     19      H    -1.65459420    -2.32343364    -0.91593927       adf.R=1.350
     20      H    -2.36424770    -0.47823259     1.58928853       adf.R=1.350
     21      H    -1.63492464    -2.08316137     1.51253058       adf.R=1.350
     22      H    -0.76635866    -0.75917883     2.30066423       adf.R=1.350
 
Total System Charge             0.00000
Bonding info available!
 
 *** GOStep6 ***

 SOLVATION
-------------------------------------------

  The Delley construction of COSMO surface surface is calculated

       Division Level for Surface Triangles (NDIV)                  3
       Final Division Level for Triangles (NFDIV)                   1
       Radius of the Solvent (RSOL)                           3.17000 angstr
  Dielectric Constant (EPSL)                                  4.80000

       COSMO equation is solved iteratively-               conjugate-gradient

       Maximun of Iterations for Charges (NCIX)                  1000
       Criterion for Charge convergence (CCNV)                1.0E-08

  COSMO charges included variationally in SCF

       COSMO included at every SCF cycle

  Geometry-dependent empirical factor                         0.00000

  C-Matrix calculated in cspmtx

  In cspmtx, C-Matrix calculated using fitted potential

-------------------------------------------



 -------------------------------------------
  COSMO surface
  Area             =          640.870
  Volume           =         1304.517
  Number of Points =         1529
 -------------------------------------------



 ======================
 RI Hartree-Fock Scheme
 ======================
  
 Fit Set Quality     : GOOD
 Integration Quality : GOOD
 Threshold Quality   : GOOD
 Response Quality    : DEFAULT
 Is Range Separated  :  F
 
 RIHartreeFock Dependency: number of modified vectors:          22
 cosmo_calcen: 0.5 (esolb+esolc) (Hartrees) =   -0.007910

 Solvation energy (screening term,uncorrected) =     -4.963328 kcal/mol

 Solvation energy (dispersion and cavitation terms) =      0.960975 kcal/mol
 Solvation Energy Contributions (Hartrees)
          esola   esolb+esolc
     0.00790957   -0.01581913
 esol last cycle   -0.00790957
  
 Hartree-Fock exchange energy:   -102.111280625137     
 cosmo_calcen: 0.5 (esolb+esolc) (Hartrees) =   -0.007910

 Solvation energy (screening term,uncorrected) =     -4.963328 kcal/mol

 Solvation energy (dispersion and cavitation terms) =      0.960975 kcal/mol
 Solvation Energy Contributions (Hartrees)
          esola   esolb+esolc
     0.00790957   -0.01581913
 esol last cycle   -0.00790957
  pauli hf:                              0.934546104993473         25.4303           586.44          2453.65
  elstat hf:                            -2.229521309889730        -60.6684         -1399.05         -5853.61

 Energy gradients wrt nuclear displacements
 ==========================================

     Atom      Cartesian (a.u./angstrom)
                 X         Y         Z
 ----------------------------------------
     1 Cl   -0.003063 -0.000851 -0.002636
     2 P     0.003789  0.001102  0.001524
     3 O     0.000178 -0.000093  0.000110
     4 O    -0.000272 -0.000480  0.001124
     5 C    -0.000552  0.000220 -0.000064
     6 C    -0.000114  0.000097 -0.000049
     7 C     0.000737 -0.000425  0.000012
     8 C     0.000224 -0.000000 -0.000309
     9 C     0.000504 -0.000084 -0.000468
    10 C     0.000452 -0.000101  0.000055
    11 H    -0.000052  0.000028 -0.000093
    12 H    -0.000136  0.000131  0.000122
    13 H     0.000007  0.000170  0.000214
    14 H    -0.000098  0.000030  0.000137
    15 H    -0.000282  0.000101  0.000010
    16 H    -0.000220  0.000047  0.000011
    17 H    -0.000179 -0.000061  0.000021
    18 H    -0.000192 -0.000018  0.000079
    19 H    -0.000127 -0.000069 -0.000113
    20 H    -0.000229  0.000080  0.000116
    21 H    -0.000214  0.000128  0.000132
    22 H    -0.000160  0.000049  0.000064
 ----------------------------------------
 Mulliken charges used for AMS results%charges...

 dE(predicted):    -0.46709E-04, dE(actual):    -0.65913E-04, Trust radius:    0.800000, all in a.u.
 
----------------------------------------------------------------------
Geometry Convergence after Step   6       (Hartree/Angstrom,Angstrom)
----------------------------------------------------------------------
current energy                               -5.47155725 Hartree
energy change                      -0.00006591     0.00022000    T
constrained gradient max            0.00378068     0.00100000    F
constrained gradient rms            0.00076982     0.00066667    F
gradient max                        0.00378068
gradient rms                        0.00076982
cart. step max                      0.01649906     0.00100000    F
cart. step rms                      0.00479077     0.00066667    F
 
 
--------
Geometry
--------
Formula: C6H12ClO2P
Atoms
  Index Symbol   x (angstrom)   y (angstrom)   z (angstrom)
      1     Cl     3.01175154    -0.03962841     0.69760457       adf.R=1.725
      2      P     1.58960946    -0.52072817    -0.81936851       adf.R=1.850
      3      O     0.69181946     0.81091347    -0.94292865       adf.R=1.517
      4      O     0.50289432    -1.33459978     0.06206947       adf.R=1.517
      5      C    -0.45709559     0.83727633    -0.03839195       adf.R=1.700
      6      C    -0.79633752    -0.67398506     0.13436758       adf.R=1.700
      7      C    -0.04420187     1.52397839     1.25105734       adf.R=1.700
      8      C    -1.54057235     1.63582518    -0.73025941       adf.R=1.700
      9      C    -1.63498096    -1.23410270    -1.00181171       adf.R=1.700
     10      C    -1.41453691    -1.02016586     1.47088573       adf.R=1.700
     11      H    -0.91631478     1.68340160     1.88627903       adf.R=1.350
     12      H     0.69477848     0.95251610     1.80842014       adf.R=1.350
     13      H     0.38317762     2.49797963     1.01157963       adf.R=1.350
     14      H    -1.73930286     1.26462176    -1.73357204       adf.R=1.350
     15      H    -2.46471647     1.59210374    -0.15081211       adf.R=1.350
     16      H    -1.23682235     2.68044686    -0.79999975       adf.R=1.350
     17      H    -2.65777547    -0.85952343    -0.95485956       adf.R=1.350
     18      H    -1.21550936    -0.98017545    -1.97611791       adf.R=1.350
     19      H    -1.66533763    -2.32021552    -0.91381294       adf.R=1.350
     20      H    -2.35832930    -0.48553290     1.59539339       adf.R=1.350
     21      H    -1.62609559    -2.08878592     1.51116142       adf.R=1.350
     22      H    -0.75680185    -0.76521988     2.29911623       adf.R=1.350
 
Total System Charge             0.00000
Bonding info available!
 
 *** GOStep7 ***

 SOLVATION
-------------------------------------------

  The Delley construction of COSMO surface surface is calculated

       Division Level for Surface Triangles (NDIV)                  3
       Final Division Level for Triangles (NFDIV)                   1
       Radius of the Solvent (RSOL)                           3.17000 angstr
  Dielectric Constant (EPSL)                                  4.80000

       COSMO equation is solved iteratively-               conjugate-gradient

       Maximun of Iterations for Charges (NCIX)                  1000
       Criterion for Charge convergence (CCNV)                1.0E-08

  COSMO charges included variationally in SCF

       COSMO included at every SCF cycle

  Geometry-dependent empirical factor                         0.00000

  C-Matrix calculated in cspmtx

  In cspmtx, C-Matrix calculated using fitted potential

-------------------------------------------



 -------------------------------------------
  COSMO surface
  Area             =          641.210
  Volume           =         1305.293
  Number of Points =         1530
 -------------------------------------------



 ======================
 RI Hartree-Fock Scheme
 ======================
  
 Fit Set Quality     : GOOD
 Integration Quality : GOOD
 Threshold Quality   : GOOD
 Response Quality    : DEFAULT
 Is Range Separated  :  F
 
 RIHartreeFock Dependency: number of modified vectors:          22
 cosmo_calcen: 0.5 (esolb+esolc) (Hartrees) =   -0.008003

 Solvation energy (screening term,uncorrected) =     -5.021970 kcal/mol

 Solvation energy (dispersion and cavitation terms) =      0.961485 kcal/mol
 Solvation Energy Contributions (Hartrees)
          esola   esolb+esolc
     0.00800302   -0.01600604
 esol last cycle   -0.00800302
  
 Hartree-Fock exchange energy:   -102.110592101126     
 cosmo_calcen: 0.5 (esolb+esolc) (Hartrees) =   -0.008003

 Solvation energy (screening term,uncorrected) =     -5.021971 kcal/mol

 Solvation energy (dispersion and cavitation terms) =      0.961485 kcal/mol
 Solvation Energy Contributions (Hartrees)
          esola   esolb+esolc
     0.00800302   -0.01600604
 esol last cycle   -0.00800302
  pauli hf:                              0.931915237862729         25.3587           584.79          2446.74
  elstat hf:                            -2.228889754682335        -60.6512         -1398.65         -5851.95

 Energy gradients wrt nuclear displacements
 ==========================================

     Atom      Cartesian (a.u./angstrom)
                 X         Y         Z
 ----------------------------------------
     1 Cl   -0.001705 -0.000412 -0.001545
     2 P     0.001282  0.001325  0.001484
     3 O     0.001106 -0.000527 -0.000637
     4 O     0.000411 -0.000667  0.000231
     5 C    -0.000972  0.000722  0.000899
     6 C    -0.001009 -0.000221  0.000046
     7 C     0.000802 -0.000436 -0.000613
     8 C     0.000766 -0.000292 -0.000315
     9 C     0.000706  0.000225  0.000028
    10 C     0.000758 -0.000322 -0.000303
    11 H    -0.000185  0.000123 -0.000024
    12 H    -0.000098  0.000173  0.000087
    13 H     0.000014  0.000185  0.000186
    14 H    -0.000121 -0.000012  0.000043
    15 H    -0.000280  0.000041  0.000077
    16 H    -0.000187  0.000092  0.000027
    17 H    -0.000295 -0.000019  0.000023
    18 H    -0.000092 -0.000005  0.000092
    19 H    -0.000122 -0.000079 -0.000053
    20 H    -0.000314  0.000107  0.000073
    21 H    -0.000235  0.000027  0.000144
    22 H    -0.000232 -0.000029  0.000049
 ----------------------------------------
 Mulliken charges used for AMS results%charges...

 dE(predicted):    -0.18900E-04, dE(actual):    -0.23591E-04, Trust radius:    0.800000, all in a.u.
 
----------------------------------------------------------------------
Geometry Convergence after Step   7       (Hartree/Angstrom,Angstrom)
----------------------------------------------------------------------
current energy                               -5.47158084 Hartree
energy change                      -0.00002359     0.00022000    T
constrained gradient max            0.00170028     0.00100000    F
constrained gradient rms            0.00056362     0.00066667    T
gradient max                        0.00170028
gradient rms                        0.00056362
cart. step max                      0.00807225     0.00100000    F
cart. step rms                      0.00323273     0.00066667    F
 
 
--------
Geometry
--------
Formula: C6H12ClO2P
Atoms
  Index Symbol   x (angstrom)   y (angstrom)   z (angstrom)
      1     Cl     3.01343753    -0.04389132     0.70385438       adf.R=1.725
      2      P     1.58997083    -0.51980146    -0.82047913       adf.R=1.850
      3      O     0.69423454     0.81316380    -0.94022704       adf.R=1.517
      4      O     0.50179154    -1.33541758     0.05517944       adf.R=1.517
      5      C    -0.45754674     0.83772317    -0.03921217       adf.R=1.700
      6      C    -0.79664404    -0.67377679     0.13243628       adf.R=1.700
      7      C    -0.04890579     1.52317127     1.25201854       adf.R=1.700
      8      C    -1.53880333     1.63772139    -0.73295357       adf.R=1.700
      9      C    -1.63884221    -1.23467855    -1.00057938       adf.R=1.700
     10      C    -1.40968935    -1.01993038     1.47122133       adf.R=1.700
     11      H    -0.92211351     1.67973562     1.88643782       adf.R=1.350
     12      H     0.69075983     0.95224740     1.80925947       adf.R=1.350
     13      H     0.37714968     2.49808376     1.01409494       adf.R=1.350
     14      H    -1.73460643     1.26821049    -1.73752126       adf.R=1.350
     15      H    -2.46443386     1.59405279    -0.15614393       adf.R=1.350
     16      H    -1.23331412     2.68199091    -0.80067110       adf.R=1.350
     17      H    -2.66054660    -0.85761758    -0.95272048       adf.R=1.350
     18      H    -1.22026352    -0.98441607    -1.97631199       adf.R=1.350
     19      H    -1.67104084    -2.32049904    -0.90970321       adf.R=1.350
     20      H    -2.35406633    -0.48730043     1.59862869       adf.R=1.350
     21      H    -1.61802335    -2.08917900     1.51256818       adf.R=1.350
     22      H    -0.74920394    -0.76319239     2.29682419       adf.R=1.350
 
Total System Charge             0.00000
Bonding info available!
 
 *** GOStep8 ***

 SOLVATION
-------------------------------------------

  The Delley construction of COSMO surface surface is calculated

       Division Level for Surface Triangles (NDIV)                  3
       Final Division Level for Triangles (NFDIV)                   1
       Radius of the Solvent (RSOL)                           3.17000 angstr
  Dielectric Constant (EPSL)                                  4.80000

       COSMO equation is solved iteratively-               conjugate-gradient

       Maximun of Iterations for Charges (NCIX)                  1000
       Criterion for Charge convergence (CCNV)                1.0E-08

  COSMO charges included variationally in SCF

       COSMO included at every SCF cycle

  Geometry-dependent empirical factor                         0.00000

  C-Matrix calculated in cspmtx

  In cspmtx, C-Matrix calculated using fitted potential

-------------------------------------------



 -------------------------------------------
  COSMO surface
  Area             =          641.546
  Volume           =         1305.977
  Number of Points =         1532
 -------------------------------------------



 ======================
 RI Hartree-Fock Scheme
 ======================
  
 Fit Set Quality     : GOOD
 Integration Quality : GOOD
 Threshold Quality   : GOOD
 Response Quality    : DEFAULT
 Is Range Separated  :  F
 
 RIHartreeFock Dependency: number of modified vectors:          22
 cosmo_calcen: 0.5 (esolb+esolc) (Hartrees) =   -0.008076

 Solvation energy (screening term,uncorrected) =     -5.067549 kcal/mol

 Solvation energy (dispersion and cavitation terms) =      0.961987 kcal/mol
 Solvation Energy Contributions (Hartrees)
          esola   esolb+esolc
     0.00807565   -0.01615130
 esol last cycle   -0.00807565
  
 Hartree-Fock exchange energy:   -102.110076355843     
 cosmo_calcen: 0.5 (esolb+esolc) (Hartrees) =   -0.008076

 Solvation energy (screening term,uncorrected) =     -5.067549 kcal/mol

 Solvation energy (dispersion and cavitation terms) =      0.961987 kcal/mol
 Solvation Energy Contributions (Hartrees)
          esola   esolb+esolc
     0.00807565   -0.01615131
 esol last cycle   -0.00807565
  pauli hf:                              0.929747288357035         25.2997           583.43          2441.05
  elstat hf:                            -2.228463616454448        -60.6396         -1398.38         -5850.83

 Energy gradients wrt nuclear displacements
 ==========================================

     Atom      Cartesian (a.u./angstrom)
                 X         Y         Z
 ----------------------------------------
     1 Cl   -0.000613 -0.000117 -0.000585
     2 P     0.000084  0.000547  0.000740
     3 O     0.001190 -0.000565 -0.000440
     4 O     0.000532 -0.000261 -0.000230
     5 C    -0.001012  0.000710  0.000835
     6 C    -0.000846 -0.000167  0.000000
     7 C     0.000168 -0.000502 -0.000624
     8 C     0.000513 -0.000054  0.000001
     9 C     0.000447 -0.000025  0.000200
    10 C     0.000539  0.000160 -0.000389
    11 H    -0.000218  0.000086  0.000082
    12 H    -0.000059  0.000044  0.000088
    13 H     0.000027  0.000071  0.000052
    14 H    -0.000020  0.000088 -0.000003
    15 H    -0.000165  0.000020  0.000040
    16 H    -0.000070  0.000099 -0.000013
    17 H    -0.000145 -0.000043  0.000024
    18 H    -0.000005 -0.000084  0.000024
    19 H    -0.000051 -0.000095 -0.000026
    20 H    -0.000190  0.000084  0.000033
    21 H    -0.000075 -0.000044  0.000066
    22 H    -0.000033  0.000049  0.000124
 ----------------------------------------
 Mulliken charges used for AMS results%charges...

 dE(predicted):    -0.87008E-05, dE(actual):    -0.68045E-05, Trust radius:    0.800000, all in a.u.
 
----------------------------------------------------------------------
Geometry Convergence after Step   8       (Hartree/Angstrom,Angstrom)
----------------------------------------------------------------------
current energy                               -5.47158765 Hartree
energy change                      -0.00000680     0.00022000    T
constrained gradient max            0.00117907     0.00100000    F
constrained gradient rms            0.00036466     0.00066667    T
gradient max                        0.00117907
gradient rms                        0.00036466
cart. step max                      0.00356940     0.00100000    F
cart. step rms                      0.00129089     0.00066667    F
 
 
--------
Geometry
--------
Formula: C6H12ClO2P
Atoms
  Index Symbol   x (angstrom)   y (angstrom)   z (angstrom)
      1     Cl     3.01566435    -0.04643239     0.70417097       adf.R=1.725
      2      P     1.58934562    -0.52026987    -0.82069571       adf.R=1.850
      3      O     0.69406736     0.81358612    -0.93901158       adf.R=1.517
      4      O     0.50129732    -1.33542591     0.05519349       adf.R=1.517
      5      C    -0.45723438     0.83765558    -0.03851987       adf.R=1.700
      6      C    -0.79645281    -0.67352861     0.13316951       adf.R=1.700
      7      C    -0.04910125     1.52495574     1.25223221       adf.R=1.700
      8      C    -1.53911810     1.63630778    -0.73317998       adf.R=1.700
      9      C    -1.63898569    -1.23298499    -1.00052807       adf.R=1.700
     10      C    -1.41017832    -1.02118384     1.47150770       adf.R=1.700
     11      H    -0.92155013     1.67981663     1.88786246       adf.R=1.350
     12      H     0.69285305     0.95581680     1.80841210       adf.R=1.350
     13      H     0.37472392     2.50042542     1.01279028       adf.R=1.350
     14      H    -1.73463487     1.26505035    -1.73721705       adf.R=1.350
     15      H    -2.46444854     1.59330718    -0.15614661       adf.R=1.350
     16      H    -1.23332049     2.68033931    -0.80282540       adf.R=1.350
     17      H    -2.65994258    -0.85421622    -0.95324472       adf.R=1.350
     18      H    -1.21928910    -0.98303844    -1.97594517       adf.R=1.350
     19      H    -1.67249108    -2.31874853    -0.90988774       adf.R=1.350
     20      H    -2.35448776    -0.48887401     1.59926003       adf.R=1.350
     21      H    -1.61785034    -2.09060985     1.51125704       adf.R=1.350
     22      H    -0.74956619    -0.76554824     2.29734613       adf.R=1.350
 
Total System Charge             0.00000
Bonding info available!
 
 *** GOStep9 ***

 SOLVATION
-------------------------------------------

  The Delley construction of COSMO surface surface is calculated

       Division Level for Surface Triangles (NDIV)                  3
       Final Division Level for Triangles (NFDIV)                   1
       Radius of the Solvent (RSOL)                           3.17000 angstr
  Dielectric Constant (EPSL)                                  4.80000

       COSMO equation is solved iteratively-               conjugate-gradient

       Maximun of Iterations for Charges (NCIX)                  1000
       Criterion for Charge convergence (CCNV)                1.0E-08

  COSMO charges included variationally in SCF

       COSMO included at every SCF cycle

  Geometry-dependent empirical factor                         0.00000

  C-Matrix calculated in cspmtx

  In cspmtx, C-Matrix calculated using fitted potential

-------------------------------------------



 -------------------------------------------
  COSMO surface
  Area             =          641.587
  Volume           =         1305.991
  Number of Points =         1532
 -------------------------------------------



 ======================
 RI Hartree-Fock Scheme
 ======================
  
 Fit Set Quality     : GOOD
 Integration Quality : GOOD
 Threshold Quality   : GOOD
 Response Quality    : DEFAULT
 Is Range Separated  :  F
 
 RIHartreeFock Dependency: number of modified vectors:          22
 cosmo_calcen: 0.5 (esolb+esolc) (Hartrees) =   -0.008090

 Solvation energy (screening term,uncorrected) =     -5.076328 kcal/mol

 Solvation energy (dispersion and cavitation terms) =      0.962049 kcal/mol
 Solvation Energy Contributions (Hartrees)
          esola   esolb+esolc
     0.00808964   -0.01617928
 esol last cycle   -0.00808964
  
 Hartree-Fock exchange energy:   -102.109956122345     
 cosmo_calcen: 0.5 (esolb+esolc) (Hartrees) =   -0.008090

 Solvation energy (screening term,uncorrected) =     -5.076325 kcal/mol

 Solvation energy (dispersion and cavitation terms) =      0.962049 kcal/mol
 Solvation Energy Contributions (Hartrees)
          esola   esolb+esolc
     0.00808964   -0.01617928
 esol last cycle   -0.00808964
  pauli hf:                              0.929314345498977         25.2879           583.15          2439.91
  elstat hf:                            -2.228398980514513        -60.6378         -1398.34         -5850.66

 Energy gradients wrt nuclear displacements
 ==========================================

     Atom      Cartesian (a.u./angstrom)
                 X         Y         Z
 ----------------------------------------
     1 Cl   -0.000109 -0.000037 -0.000173
     2 P    -0.000122  0.000096  0.000402
     3 O     0.000481 -0.000111 -0.000229
     4 O     0.000173 -0.000035 -0.000302
     5 C    -0.000397  0.000187  0.000469
     6 C    -0.000335 -0.000036  0.000083
     7 C    -0.000051 -0.000011 -0.000341
     8 C     0.000152 -0.000151  0.000114
     9 C     0.000166  0.000091  0.000196
    10 C     0.000023  0.000064 -0.000160
    11 H    -0.000072  0.000059  0.000044
    12 H     0.000004  0.000030  0.000038
    13 H     0.000040  0.000008 -0.000011
    14 H     0.000024 -0.000004 -0.000100
    15 H    -0.000008 -0.000019 -0.000023
    16 H     0.000029  0.000033 -0.000048
    17 H    -0.000001  0.000017  0.000007
    18 H     0.000047 -0.000047 -0.000043
    19 H     0.000013 -0.000049 -0.000003
    20 H    -0.000043  0.000016 -0.000000
    21 H     0.000004 -0.000060  0.000032
    22 H    -0.000019 -0.000039  0.000047
 ----------------------------------------
 Mulliken charges used for AMS results%charges...

 dE(predicted):    -0.28784E-05, dE(actual):    -0.25330E-05, Trust radius:    0.800000, all in a.u.
 
----------------------------------------------------------------------
Geometry Convergence after Step   9       (Hartree/Angstrom,Angstrom)
----------------------------------------------------------------------
current energy                               -5.47159018 Hartree
energy change                      -0.00000253     0.00022000    T
constrained gradient max            0.00047240     0.00100000    T
constrained gradient rms            0.00015096     0.00066667    T
gradient max                        0.00047240
gradient rms                        0.00015096
cart. step max                      0.00208335     0.00100000    F
cart. step rms                      0.00068674     0.00066667    F
 
 
--------
Geometry
--------
Formula: C6H12ClO2P
Atoms
  Index Symbol   x (angstrom)   y (angstrom)   z (angstrom)
      1     Cl     3.01608886    -0.04577204     0.70379467       adf.R=1.725
      2      P     1.58928405    -0.52035428    -0.82060575       adf.R=1.850
      3      O     0.69351509     0.81345078    -0.93952051       adf.R=1.517
      4      O     0.50156032    -1.33489317     0.05661047       adf.R=1.517
      5      C    -0.45709751     0.83748760    -0.03891090       adf.R=1.700
      6      C    -0.79625688    -0.67346441     0.13304498       adf.R=1.700
      7      C    -0.04865609     1.52418326     1.25230889       adf.R=1.700
      8      C    -1.53955371     1.63631602    -0.73277388       adf.R=1.700
      9      C    -1.63851737    -1.23333235    -1.00090039       adf.R=1.700
     10      C    -1.41086566    -1.02024727     1.47131530       adf.R=1.700
     11      H    -0.92070479     1.67773329     1.88865664       adf.R=1.350
     12      H     0.69411305     0.95494616     1.80730793       adf.R=1.350
     13      H     0.37427048     2.50012409     1.01329926       adf.R=1.350
     14      H    -1.73594391     1.26484642    -1.73653073       adf.R=1.350
     15      H    -2.46431845     1.59356608    -0.15490896       adf.R=1.350
     16      H    -1.23352149     2.68022009    -0.80282735       adf.R=1.350
     17      H    -2.65948241    -0.85465168    -0.95408289       adf.R=1.350
     18      H    -1.21852031    -0.98342723    -1.97619063       adf.R=1.350
     19      H    -1.67184695    -2.31904408    -0.90997973       adf.R=1.350
     20      H    -2.35506501    -0.48765180     1.59816583       adf.R=1.350
     21      H    -1.61867060    -2.08958647     1.51156001       adf.R=1.350
     22      H    -0.75051074    -0.76404903     2.29716772       adf.R=1.350
 
Total System Charge             0.00000
Bonding info available!
 
 *** GOStep10 ***

 SOLVATION
-------------------------------------------

  The Delley construction of COSMO surface surface is calculated

       Division Level for Surface Triangles (NDIV)                  3
       Final Division Level for Triangles (NFDIV)                   1
       Radius of the Solvent (RSOL)                           3.17000 angstr
  Dielectric Constant (EPSL)                                  4.80000

       COSMO equation is solved iteratively-               conjugate-gradient

       Maximun of Iterations for Charges (NCIX)                  1000
       Criterion for Charge convergence (CCNV)                1.0E-08

  COSMO charges included variationally in SCF

       COSMO included at every SCF cycle

  Geometry-dependent empirical factor                         0.00000

  C-Matrix calculated in cspmtx

  In cspmtx, C-Matrix calculated using fitted potential

-------------------------------------------



 -------------------------------------------
  COSMO surface
  Area             =          641.548
  Volume           =         1305.890
  Number of Points =         1533
 -------------------------------------------



 ======================
 RI Hartree-Fock Scheme
 ======================
  
 Fit Set Quality     : GOOD
 Integration Quality : GOOD
 Threshold Quality   : GOOD
 Response Quality    : DEFAULT
 Is Range Separated  :  F
 
 RIHartreeFock Dependency: number of modified vectors:          22
 cosmo_calcen: 0.5 (esolb+esolc) (Hartrees) =   -0.008084

 Solvation energy (screening term,uncorrected) =     -5.072921 kcal/mol

 Solvation energy (dispersion and cavitation terms) =      0.961990 kcal/mol
 Solvation Energy Contributions (Hartrees)
          esola   esolb+esolc
     0.00808421   -0.01616843
 esol last cycle   -0.00808421
  
 Hartree-Fock exchange energy:   -102.110016192922     
 cosmo_calcen: 0.5 (esolb+esolc) (Hartrees) =   -0.008084

 Solvation energy (screening term,uncorrected) =     -5.072921 kcal/mol

 Solvation energy (dispersion and cavitation terms) =      0.961990 kcal/mol
 Solvation Energy Contributions (Hartrees)
          esola   esolb+esolc
     0.00808421   -0.01616843
 esol last cycle   -0.00808421
  pauli hf:                              0.929308334938721         25.2878           583.15          2439.90
  elstat hf:                            -2.228510458933911        -60.6409         -1398.41         -5850.95

 Energy gradients wrt nuclear displacements
 ==========================================

     Atom      Cartesian (a.u./angstrom)
                 X         Y         Z
 ----------------------------------------
     1 Cl   -0.000057 -0.000026 -0.000066
     2 P    -0.000008 -0.000021  0.000263
     3 O     0.000086  0.000060 -0.000097
     4 O     0.000031  0.000015 -0.000072
     5 C    -0.000049 -0.000003  0.000124
     6 C     0.000027 -0.000037 -0.000027
     7 C    -0.000107  0.000018 -0.000080
     8 C    -0.000035 -0.000054  0.000057
     9 C    -0.000076  0.000051  0.000089
    10 C    -0.000085  0.000080 -0.000027
    11 H    -0.000005  0.000015  0.000011
    12 H     0.000014 -0.000008  0.000018
    13 H     0.000010 -0.000022 -0.000032
    14 H     0.000037 -0.000014 -0.000053
    15 H     0.000038 -0.000016 -0.000046
    16 H     0.000035 -0.000004 -0.000038
    17 H     0.000031  0.000002 -0.000028
    18 H     0.000040 -0.000025 -0.000017
    19 H     0.000024 -0.000004  0.000016
    20 H     0.000023 -0.000001 -0.000017
    21 H     0.000020 -0.000013  0.000006
    22 H     0.000005  0.000007  0.000014
 ----------------------------------------
 Mulliken charges used for AMS results%charges...

 dE(predicted):    -0.61712E-06, dE(actual):    -0.13650E-05, Trust radius:    0.800000, all in a.u.
 
----------------------------------------------------------------------
Geometry Convergence after Step  10       (Hartree/Angstrom,Angstrom)
----------------------------------------------------------------------
current energy                               -5.47159155 Hartree
energy change                      -0.00000137     0.00022000    T
constrained gradient max            0.00023841     0.00100000    T
constrained gradient rms            0.00005394     0.00066667    T
gradient max                        0.00023841
gradient rms                        0.00005394
cart. step max                      0.00103556     0.00100000    F
cart. step rms                      0.00043223     0.00066667    T
 
 
--------
Geometry
--------
Formula: C6H12ClO2P
Atoms
  Index Symbol   x (angstrom)   y (angstrom)   z (angstrom)
      1     Cl     3.01641688    -0.04560346     0.70287206       adf.R=1.725
      2      P     1.58907378    -0.52064944    -0.82094083       adf.R=1.850
      3      O     0.69316925     0.81315176    -0.93977036       adf.R=1.517
      4      O     0.50167480    -1.33459647     0.05743587       adf.R=1.517
      5      C    -0.45707829     0.83747483    -0.03896074       adf.R=1.700
      6      C    -0.79626083    -0.67342457     0.13320111       adf.R=1.700
      7      C    -0.04830590     1.52410755     1.25230850       adf.R=1.700
      8      C    -1.53972012     1.63650523    -0.73243292       adf.R=1.700
      9      C    -1.63792230    -1.23368272    -1.00109089       adf.R=1.700
     10      C    -1.41150158    -1.02001702     1.47128903       adf.R=1.700
     11      H    -0.92025234     1.67734412     1.88883227       adf.R=1.350
     12      H     0.69466168     0.95487788     1.80700556       adf.R=1.350
     13      H     0.37431477     2.50021555     1.01342330       adf.R=1.350
     14      H    -1.73682409     1.26486391    -1.73596356       adf.R=1.350
     15      H    -2.46417547     1.59414078    -0.15402098       adf.R=1.350
     16      H    -1.23348977     2.68031622    -0.80281050       adf.R=1.350
     17      H    -2.65908385    -0.85549634    -0.95448600       adf.R=1.350
     18      H    -1.21782130    -0.98343997    -1.97623278       adf.R=1.350
     19      H    -1.67081139    -2.31940983    -0.91025757       adf.R=1.350
     20      H    -2.35569684    -0.48726901     1.59762147       adf.R=1.350
     21      H    -1.61955358    -2.08928717     1.51159334       adf.R=1.350
     22      H    -0.75151350    -0.76372183     2.29738461       adf.R=1.350
 
Total System Charge             0.00000
Bonding info available!
 
 *** GOStep11 ***

 SOLVATION
-------------------------------------------

  The Delley construction of COSMO surface surface is calculated

       Division Level for Surface Triangles (NDIV)                  3
       Final Division Level for Triangles (NFDIV)                   1
       Radius of the Solvent (RSOL)                           3.17000 angstr
  Dielectric Constant (EPSL)                                  4.80000

       COSMO equation is solved iteratively-               conjugate-gradient

       Maximun of Iterations for Charges (NCIX)                  1000
       Criterion for Charge convergence (CCNV)                1.0E-08

  COSMO charges included variationally in SCF

       COSMO included at every SCF cycle

  Geometry-dependent empirical factor                         0.00000

  C-Matrix calculated in cspmtx

  In cspmtx, C-Matrix calculated using fitted potential

-------------------------------------------



 -------------------------------------------
  COSMO surface
  Area             =          641.550
  Volume           =         1305.894
  Number of Points =         1531
 -------------------------------------------



 ======================
 RI Hartree-Fock Scheme
 ======================
  
 Fit Set Quality     : GOOD
 Integration Quality : GOOD
 Threshold Quality   : GOOD
 Response Quality    : DEFAULT
 Is Range Separated  :  F
 
 RIHartreeFock Dependency: number of modified vectors:          22
 cosmo_calcen: 0.5 (esolb+esolc) (Hartrees) =   -0.008085

 Solvation energy (screening term,uncorrected) =     -5.073125 kcal/mol

 Solvation energy (dispersion and cavitation terms) =      0.961994 kcal/mol
 Solvation Energy Contributions (Hartrees)
          esola   esolb+esolc
     0.00808454   -0.01616908
 esol last cycle   -0.00808454
  
 Hartree-Fock exchange energy:   -102.109934039110     
 cosmo_calcen: 0.5 (esolb+esolc) (Hartrees) =   -0.008085

 Solvation energy (screening term,uncorrected) =     -5.073124 kcal/mol

 Solvation energy (dispersion and cavitation terms) =      0.961994 kcal/mol
 Solvation Energy Contributions (Hartrees)
          esola   esolb+esolc
     0.00808454   -0.01616907
 esol last cycle   -0.00808454
  pauli hf:                              0.929729837378627         25.2992           583.41          2441.01
  elstat hf:                            -2.228444361941957        -60.6391         -1398.37         -5850.78

 Energy gradients wrt nuclear displacements
 ==========================================

     Atom      Cartesian (a.u./angstrom)
                 X         Y         Z
 ----------------------------------------
     1 Cl   -0.000061 -0.000015 -0.000015
     2 P     0.000121 -0.000079  0.000072
     3 O    -0.000040  0.000020  0.000027
     4 O    -0.000042  0.000074 -0.000025
     5 C     0.000030 -0.000040 -0.000004
     6 C     0.000071  0.000004  0.000000
     7 C    -0.000063  0.000042  0.000015
     8 C    -0.000048  0.000011  0.000005
     9 C    -0.000041 -0.000019  0.000012
    10 C    -0.000083  0.000029  0.000040
    11 H     0.000010  0.000006 -0.000015
    12 H    -0.000005  0.000005  0.000007
    13 H    -0.000001 -0.000007 -0.000017
    14 H     0.000032 -0.000013 -0.000020
    15 H     0.000025 -0.000004 -0.000041
    16 H     0.000018 -0.000012 -0.000026
    17 H     0.000036 -0.000005 -0.000018
    18 H     0.000027 -0.000020  0.000000
    19 H     0.000009 -0.000002  0.000011
    20 H     0.000011 -0.000002 -0.000012
    21 H     0.000003  0.000011  0.000005
    22 H    -0.000011  0.000016  0.000000
 ----------------------------------------
 Mulliken charges used for AMS results%charges...
 
---------------------------------------------------------
Geometry Convergence after Step  11       ** CONVERGED **
---------------------------------------------------------
current energy                               -5.47159156 Hartree
energy change                      -0.00000001     0.00022000    T
constrained gradient max            0.00011315     0.00100000    T
constrained gradient rms            0.00003224     0.00066667    T
gradient max                        0.00011315
gradient rms                        0.00003224
cart. step max                      0.00038238     0.00100000    T
cart. step rms                      0.00014329     0.00066667    T
 
Geometry optimization converged

Optimized geometry:
 
--------
Geometry
--------
Formula: C6H12ClO2P
Atoms
  Index Symbol   x (angstrom)   y (angstrom)   z (angstrom)
      1     Cl     3.01641688    -0.04560346     0.70287206       adf.R=1.725
      2      P     1.58907378    -0.52064944    -0.82094083       adf.R=1.850
      3      O     0.69316925     0.81315176    -0.93977036       adf.R=1.517
      4      O     0.50167480    -1.33459647     0.05743587       adf.R=1.517
      5      C    -0.45707829     0.83747483    -0.03896074       adf.R=1.700
      6      C    -0.79626083    -0.67342457     0.13320111       adf.R=1.700
      7      C    -0.04830590     1.52410755     1.25230850       adf.R=1.700
      8      C    -1.53972012     1.63650523    -0.73243292       adf.R=1.700
      9      C    -1.63792230    -1.23368272    -1.00109089       adf.R=1.700
     10      C    -1.41150158    -1.02001702     1.47128903       adf.R=1.700
     11      H    -0.92025234     1.67734412     1.88883227       adf.R=1.350
     12      H     0.69466168     0.95487788     1.80700556       adf.R=1.350
     13      H     0.37431477     2.50021555     1.01342330       adf.R=1.350
     14      H    -1.73682409     1.26486391    -1.73596356       adf.R=1.350
     15      H    -2.46417547     1.59414078    -0.15402098       adf.R=1.350
     16      H    -1.23348977     2.68031622    -0.80281050       adf.R=1.350
     17      H    -2.65908385    -0.85549634    -0.95448600       adf.R=1.350
     18      H    -1.21782130    -0.98343997    -1.97623278       adf.R=1.350
     19      H    -1.67081139    -2.31940983    -0.91025757       adf.R=1.350
     20      H    -2.35569684    -0.48726901     1.59762147       adf.R=1.350
     21      H    -1.61955358    -2.08928717     1.51159334       adf.R=1.350
     22      H    -0.75151350    -0.76372183     2.29738461       adf.R=1.350
 
Total System Charge             0.00000
Bonding info available!
 
Performing a single point calculation on the final geometry ...

 *** adf ***



 ===========================
 A T T A C H E D   F I L E S
 ===========================
  
 Restart/tmp/amstmp_ams_kid0.1256013881/GOStep11.rkf*** GOStep11 ***



 ===============================
 M O D E L   P A R A M E T E R S
 ===============================
  
 DENSITY FUNCTIONAL POTENTIAL (scf)
    Hybrid:                            PBE0                                    == Not Default ==

 SPIN  (restricted / unrestr.)
    Molecule:                          Restricted                               
    Fragments:                         Restricted                               

 OTHER ASPECTS
    Relativistic Corrections:          ---                                     == Not Default ==

    Nuclear Charge Density Model:      Point Charge Nuclei                      
    Core Treatment:                    Frozen Orbital(s)                        

    Hyperfine or Zeeman Interaction:   ---                                      

 SOLVATION
-------------------------------------------

  The Delley construction of COSMO surface surface is calculated

       Division Level for Surface Triangles (NDIV)                  3
       Final Division Level for Triangles (NFDIV)                   1
       Radius of the Solvent (RSOL)                           3.17000 angstr
  Dielectric Constant (EPSL)                                  4.80000

       COSMO equation is solved iteratively-               conjugate-gradient

       Maximun of Iterations for Charges (NCIX)                  1000
       Criterion for Charge convergence (CCNV)                1.0E-08

  COSMO charges included variationally in SCF

       COSMO included at every SCF cycle

  Geometry-dependent empirical factor                         0.00000

  C-Matrix calculated in cspmtx

  In cspmtx, C-Matrix calculated using fitted potential

-------------------------------------------




 ===============
 G E O M E T R Y  ***  3D  Molecule  ***
 ===============
  

 ATOMS
[...]
       0.000       0.000       0.023              0.000       0.000       0.271
 
 Principal Axis System (u,v,w) expressed in Cartesians:
 (taken as eigenvectors of the symmetric part of the coupling tensor,
  sorted in ascending order of eigenvalues = principal values)
        u         v         w
        1.000     0.000     0.000
        0.000     1.000     0.000
        0.000     0.000     1.000



 =========================================
  Nucleus 22 (H) perturbing nucleus 14 (H)
 =========================================
  
 Internal CPL numbering of atoms:  H(22) perturbing  H(14)
 ADF-GUI atoms:  H(22) perturbing  H(14)
  
 ---------------------------------
   Cartesian Axis Representation  
 ---------------------------------

 ----- k (10^19 kg m-2 s-2 A-2) ----         ------------- j (hz) -------------

 fermi-contact contribution:             
  isotropic    k=      -0.000                              j=      -0.004
      -0.000       0.000       0.000             -0.004       0.000       0.000
       0.000      -0.000       0.000              0.000      -0.004       0.000
       0.000       0.000      -0.000              0.000       0.000      -0.004

 total calculated spin-spin coupling:    
  isotropic    k=      -0.000                              j=      -0.004
      -0.000       0.000       0.000             -0.004       0.000       0.000
       0.000      -0.000       0.000              0.000      -0.004       0.000
       0.000       0.000      -0.000              0.000       0.000      -0.004
 
 ---------------------------------
   Principal Axis Representation  
 ---------------------------------

 ----- k (10^19 kg m-2 s-2 A-2) ----         ------------- j (hz) -------------
 WARNING: coupling tensor not diagonalizable (Det < 1e-10)
 Skipping this coupling ...



 =========================================
  Nucleus 22 (H) perturbing nucleus 15 (H)
 =========================================
  
 Internal CPL numbering of atoms:  H(22) perturbing  H(15)
 ADF-GUI atoms:  H(22) perturbing  H(15)
  
 ---------------------------------
   Cartesian Axis Representation  
 ---------------------------------

 ----- k (10^19 kg m-2 s-2 A-2) ----         ------------- j (hz) -------------

 fermi-contact contribution:             
  isotropic    k=       0.001                              j=       0.014
       0.001       0.000       0.000              0.014       0.000       0.000
       0.000       0.001       0.000              0.000       0.014       0.000
       0.000       0.000       0.001              0.000       0.000       0.014

 total calculated spin-spin coupling:    
  isotropic    k=       0.001                              j=       0.014
       0.001       0.000       0.000              0.014       0.000       0.000
       0.000       0.001       0.000              0.000       0.014       0.000
       0.000       0.000       0.001              0.000       0.000       0.014
 
 ---------------------------------
   Principal Axis Representation  
 ---------------------------------

 ----- k (10^19 kg m-2 s-2 A-2) ----         ------------- j (hz) -------------

 fermi-contact contribution:             
  isotropic    k=       0.001                              j=       0.014
       0.001       0.000       0.000              0.014       0.000       0.000
       0.000       0.001       0.000              0.000       0.014       0.000
       0.000       0.000       0.001              0.000       0.000       0.014

 total calculated spin-spin coupling:    
  isotropic    k=       0.001                              j=       0.014
       0.001       0.000       0.000              0.014       0.000       0.000
       0.000       0.001       0.000              0.000       0.014       0.000
       0.000       0.000       0.001              0.000       0.000       0.014
 
 Principal Axis System (u,v,w) expressed in Cartesians:
 (taken as eigenvectors of the symmetric part of the coupling tensor,
  sorted in ascending order of eigenvalues = principal values)
        u         v         w
        1.000     0.000     0.000
        0.000     1.000     0.000
        0.000     0.000     1.000



 =========================================
  Nucleus 22 (H) perturbing nucleus 16 (H)
 =========================================
  
 Internal CPL numbering of atoms:  H(22) perturbing  H(16)
 ADF-GUI atoms:  H(22) perturbing  H(16)
  
 ---------------------------------
   Cartesian Axis Representation  
 ---------------------------------

 ----- k (10^19 kg m-2 s-2 A-2) ----         ------------- j (hz) -------------

 fermi-contact contribution:             
  isotropic    k=       0.012                              j=       0.140
       0.012       0.000       0.000              0.140       0.000       0.000
       0.000       0.012       0.000              0.000       0.140       0.000
       0.000       0.000       0.012              0.000       0.000       0.140

 total calculated spin-spin coupling:    
  isotropic    k=       0.012                              j=       0.140
       0.012       0.000       0.000              0.140       0.000       0.000
       0.000       0.012       0.000              0.000       0.140       0.000
       0.000       0.000       0.012              0.000       0.000       0.140
 
 ---------------------------------
   Principal Axis Representation  
 ---------------------------------

 ----- k (10^19 kg m-2 s-2 A-2) ----         ------------- j (hz) -------------

 fermi-contact contribution:             
  isotropic    k=       0.012                              j=       0.140
       0.012       0.000       0.000              0.140       0.000       0.000
       0.000       0.012       0.000              0.000       0.140       0.000
       0.000       0.000       0.012              0.000       0.000       0.140

 total calculated spin-spin coupling:    
  isotropic    k=       0.012                              j=       0.140
       0.012       0.000       0.000              0.140       0.000       0.000
       0.000       0.012       0.000              0.000       0.140       0.000
       0.000       0.000       0.012              0.000       0.000       0.140
 
 Principal Axis System (u,v,w) expressed in Cartesians:
 (taken as eigenvectors of the symmetric part of the coupling tensor,
  sorted in ascending order of eigenvalues = principal values)
        u         v         w
        1.000     0.000     0.000
        0.000     1.000     0.000
        0.000     0.000     1.000



 =========================================
  Nucleus 22 (H) perturbing nucleus 17 (H)
 =========================================
  
 Internal CPL numbering of atoms:  H(22) perturbing  H(17)
 ADF-GUI atoms:  H(22) perturbing  H(17)
  
 ---------------------------------
   Cartesian Axis Representation  
 ---------------------------------

 ----- k (10^19 kg m-2 s-2 A-2) ----         ------------- j (hz) -------------

 fermi-contact contribution:             
  isotropic    k=       0.038                              j=       0.456
       0.038       0.000       0.000              0.456       0.000       0.000
       0.000       0.038       0.000              0.000       0.456       0.000
       0.000       0.000       0.038              0.000       0.000       0.456

 total calculated spin-spin coupling:    
  isotropic    k=       0.038                              j=       0.456
       0.038       0.000       0.000              0.456       0.000       0.000
       0.000       0.038       0.000              0.000       0.456       0.000
       0.000       0.000       0.038              0.000       0.000       0.456
 
 ---------------------------------
   Principal Axis Representation  
 ---------------------------------

 ----- k (10^19 kg m-2 s-2 A-2) ----         ------------- j (hz) -------------

 fermi-contact contribution:             
  isotropic    k=       0.038                              j=       0.456
       0.038       0.000       0.000              0.456       0.000       0.000
       0.000       0.038       0.000              0.000       0.456       0.000
       0.000       0.000       0.038              0.000       0.000       0.456

 total calculated spin-spin coupling:    
  isotropic    k=       0.038                              j=       0.456
       0.038       0.000       0.000              0.456       0.000       0.000
       0.000       0.038       0.000              0.000       0.456       0.000
       0.000       0.000       0.038              0.000       0.000       0.456
 
 Principal Axis System (u,v,w) expressed in Cartesians:
 (taken as eigenvectors of the symmetric part of the coupling tensor,
  sorted in ascending order of eigenvalues = principal values)
        u         v         w
        1.000     0.000     0.000
        0.000     1.000     0.000
        0.000     0.000     1.000



 =========================================
  Nucleus 22 (H) perturbing nucleus 18 (H)
 =========================================
  
 Internal CPL numbering of atoms:  H(22) perturbing  H(18)
 ADF-GUI atoms:  H(22) perturbing  H(18)
  
 ---------------------------------
   Cartesian Axis Representation  
 ---------------------------------

 ----- k (10^19 kg m-2 s-2 A-2) ----         ------------- j (hz) -------------

 fermi-contact contribution:             
  isotropic    k=       0.375                              j=       4.503
       0.375       0.000       0.000              4.503       0.000       0.000
       0.000       0.375       0.000              0.000       4.503       0.000
       0.000       0.000       0.375              0.000       0.000       4.503

 total calculated spin-spin coupling:    
  isotropic    k=       0.375                              j=       4.503
       0.375       0.000       0.000              4.503       0.000       0.000
       0.000       0.375       0.000              0.000       4.503       0.000
       0.000       0.000       0.375              0.000       0.000       4.503
 
 ---------------------------------
   Principal Axis Representation  
 ---------------------------------

 ----- k (10^19 kg m-2 s-2 A-2) ----         ------------- j (hz) -------------

 fermi-contact contribution:             
  isotropic    k=       0.375                              j=       4.503
       0.375       0.000       0.000              4.503       0.000       0.000
       0.000       0.375       0.000              0.000       4.503       0.000
       0.000       0.000       0.375              0.000       0.000       4.503

 total calculated spin-spin coupling:    
  isotropic    k=       0.375                              j=       4.503
       0.375       0.000       0.000              4.503       0.000       0.000
       0.000       0.375       0.000              0.000       4.503       0.000
       0.000       0.000       0.375              0.000       0.000       4.503
 
 Principal Axis System (u,v,w) expressed in Cartesians:
 (taken as eigenvectors of the symmetric part of the coupling tensor,
  sorted in ascending order of eigenvalues = principal values)
        u         v         w
        1.000     0.000     0.000
        0.000     1.000     0.000
        0.000     0.000     1.000



 =========================================
  Nucleus 22 (H) perturbing nucleus 19 (H)
 =========================================
  
 Internal CPL numbering of atoms:  H(22) perturbing  H(19)
 ADF-GUI atoms:  H(22) perturbing  H(19)
  
 ---------------------------------
   Cartesian Axis Representation  
 ---------------------------------

 ----- k (10^19 kg m-2 s-2 A-2) ----         ------------- j (hz) -------------

 fermi-contact contribution:             
  isotropic    k=      -0.021                              j=      -0.248
      -0.021       0.000       0.000             -0.248       0.000       0.000
       0.000      -0.021       0.000              0.000      -0.248       0.000
       0.000       0.000      -0.021              0.000       0.000      -0.248

 total calculated spin-spin coupling:    
  isotropic    k=      -0.021                              j=      -0.248
      -0.021       0.000       0.000             -0.248       0.000       0.000
       0.000      -0.021       0.000              0.000      -0.248       0.000
       0.000       0.000      -0.021              0.000       0.000      -0.248
 
 ---------------------------------
   Principal Axis Representation  
 ---------------------------------

 ----- k (10^19 kg m-2 s-2 A-2) ----         ------------- j (hz) -------------

 fermi-contact contribution:             
  isotropic    k=      -0.021                              j=      -0.248
      -0.021       0.000       0.000             -0.248       0.000       0.000
       0.000      -0.021       0.000              0.000      -0.248       0.000
       0.000       0.000      -0.021              0.000       0.000      -0.248

 total calculated spin-spin coupling:    
  isotropic    k=      -0.021                              j=      -0.248
      -0.021       0.000       0.000             -0.248       0.000       0.000
       0.000      -0.021       0.000              0.000      -0.248       0.000
       0.000       0.000      -0.021              0.000       0.000      -0.248
 
 Principal Axis System (u,v,w) expressed in Cartesians:
 (taken as eigenvectors of the symmetric part of the coupling tensor,
  sorted in ascending order of eigenvalues = principal values)
        u         v         w
        1.000     0.000     0.000
        0.000     1.000     0.000
        0.000     0.000     1.000



 =========================================
  Nucleus 22 (H) perturbing nucleus 20 (H)
 =========================================
  
 Internal CPL numbering of atoms:  H(22) perturbing  H(20)
 ADF-GUI atoms:  H(22) perturbing  H(20)
  
 ---------------------------------
   Cartesian Axis Representation  
 ---------------------------------

 ----- k (10^19 kg m-2 s-2 A-2) ----         ------------- j (hz) -------------

 fermi-contact contribution:             
  isotropic    k=      -1.259                              j=     -15.128
      -1.259       0.000       0.000            -15.128       0.000       0.000
       0.000      -1.259       0.000              0.000     -15.128       0.000
       0.000       0.000      -1.259              0.000       0.000     -15.128

 total calculated spin-spin coupling:    
  isotropic    k=      -1.259                              j=     -15.128
      -1.259       0.000       0.000            -15.128       0.000       0.000
       0.000      -1.259       0.000              0.000     -15.128       0.000
       0.000       0.000      -1.259              0.000       0.000     -15.128
 
 ---------------------------------
   Principal Axis Representation  
 ---------------------------------

 ----- k (10^19 kg m-2 s-2 A-2) ----         ------------- j (hz) -------------

 fermi-contact contribution:             
  isotropic    k=      -1.259                              j=     -15.128
      -1.259       0.000       0.000            -15.128       0.000       0.000
       0.000      -1.259       0.000              0.000     -15.128       0.000
       0.000       0.000      -1.259              0.000       0.000     -15.128

 total calculated spin-spin coupling:    
  isotropic    k=      -1.259                              j=     -15.128
      -1.259       0.000       0.000            -15.128       0.000       0.000
       0.000      -1.259       0.000              0.000     -15.128       0.000
       0.000       0.000      -1.259              0.000       0.000     -15.128
 
 Principal Axis System (u,v,w) expressed in Cartesians:
 (taken as eigenvectors of the symmetric part of the coupling tensor,
  sorted in ascending order of eigenvalues = principal values)
        u         v         w
        1.000     0.000     0.000
        0.000     1.000     0.000
        0.000     0.000     1.000



 =========================================
  Nucleus 22 (H) perturbing nucleus 21 (H)
 =========================================
  
 Internal CPL numbering of atoms:  H(22) perturbing  H(21)
 ADF-GUI atoms:  H(22) perturbing  H(21)
  
 ---------------------------------
   Cartesian Axis Representation  
 ---------------------------------

 ----- k (10^19 kg m-2 s-2 A-2) ----         ------------- j (hz) -------------

 fermi-contact contribution:             
  isotropic    k=      -1.195                              j=     -14.349
      -1.195       0.000       0.000            -14.349       0.000       0.000
       0.000      -1.195       0.000              0.000     -14.349       0.000
       0.000       0.000      -1.195              0.000       0.000     -14.349

 total calculated spin-spin coupling:    
  isotropic    k=      -1.195                              j=     -14.349
      -1.195       0.000       0.000            -14.349       0.000       0.000
       0.000      -1.195       0.000              0.000     -14.349       0.000
       0.000       0.000      -1.195              0.000       0.000     -14.349
 
 ---------------------------------
   Principal Axis Representation  
 ---------------------------------

 ----- k (10^19 kg m-2 s-2 A-2) ----         ------------- j (hz) -------------

 fermi-contact contribution:             
  isotropic    k=      -1.195                              j=     -14.349
      -1.195       0.000       0.000            -14.349       0.000       0.000
       0.000      -1.195       0.000              0.000     -14.349       0.000
       0.000       0.000      -1.195              0.000       0.000     -14.349

 total calculated spin-spin coupling:    
  isotropic    k=      -1.195                              j=     -14.349
      -1.195       0.000       0.000            -14.349       0.000       0.000
       0.000      -1.195       0.000              0.000     -14.349       0.000
       0.000       0.000      -1.195              0.000       0.000     -14.349
 
 Principal Axis System (u,v,w) expressed in Cartesians:
 (taken as eigenvectors of the symmetric part of the coupling tensor,
  sorted in ascending order of eigenvalues = principal values)
        u         v         w
        1.000     0.000     0.000
        0.000     1.000     0.000
        0.000     0.000     1.000
 *******************************************************************************

                             N M R   E X I T
 NORMAL TERMINATION



 =================
 Timing Statistics
 =================
  
 Total Used :                     CPU=     5266.84      System=       30.60     Elapsed=     5456.05

 Calls  Section                     ( Mean, Percentage )
 ---------------------------------------------------------------------------------------------------
     3  ><      ................      0.00    0.00             0.00    0.01             0.00    0.00
     1  GENPT   ................      0.86    0.02             0.09    0.29             0.95    0.02
   361  CALFC   ................      3.93   26.97             0.02   27.96             4.09   27.05
    19  FCPT1   ................    202.40   73.01             1.15   71.68           209.44   72.94
    19  FCCPL   ................      0.00    0.00             0.00    0.00             0.00    0.00
     1  JCOUPL  ................      0.01    0.00             0.00    0.01             0.03    0.00
     1  EXIT PROCEDURE .........      0.00    0.00             0.02    0.06             0.02    0.00


 Currently Open Files (EXIT00)
 ====================

 Unit    Access Format  Status   Type       Ident (file)
 -------------------------------------------------------
   3      SEQ    FORM   TRANSP  NORMAL      LOGFILE
                                          ( /home/milias/Work/projects/open-collection/theoretical_chemistry/projects/nmr_diplomovky/vanovci/CTMP/CTMP.geopt_freq_nmr_pbe0_tz2p_good_cosmo-chcl3.logfile )
