 *******************************************************************************
 **                                                                           **
 **                              MOPAC v22.1.1                                **
 **                                                                           **
 *******************************************************************************
 **          Digital Object Identifier (DOI): 10.5281/zenodo.6511958          **
 **    Visit the DOI location for information on how to cite this program.    **
 *******************************************************************************

                              PM7 CALCULATION RESULTS

 *******************************************************************************
 *  CALCULATION DONE:                                Thu Oct 10 22:01:20 2024  *
 *  PM7        - The PM7 Hamiltonian to be used
 *  SINGLET    - SPIN STATE DEFINED AS A SINGLET
 *
 *
 *
 *                 CHARGE ON SYSTEM = 0
 *
 *
 *
 *  T=         - A TIME OF 172800.0 SECONDS REQUESTED
 *  DUMP=N     - RESTART FILE WRITTEN EVERY 7200.0 SECONDS REQUESTED
 *  AUX        - OUTPUT AUXILIARY INFORMATION
 *  LARGE      - EXPANDED OUTPUT TO BE PRINTED
 *******************************************************************************
 AUX LARGE CHARGE=0 SINGLET  PM7
 trifenylamin

   ATOM   CHEMICAL          X               Y               Z
  NUMBER   SYMBOL      (ANGSTROMS)     (ANGSTROMS)     (ANGSTROMS)
 
     1       C         -1.10729000  *   0.00735000  *  -0.32237000  *
     2       C         -0.47535000  *   1.03157000  *  -1.02658000  *
     3       C          0.91998000  *   1.10005000  *  -1.06636000  *
     4       C          1.71471000  *   0.13820000  *  -0.40095000  *
     5       C          1.05084000  *  -0.89115000  *   0.30543000  *
     6       C         -0.34506000  *  -0.95210000  *   0.34321000  *
     7       N          3.16017000  *   0.20624000  *  -0.44186000  *
     8       C          3.81970000  *   1.49279000  *  -0.51899000  *
     9       C          3.25107000  *   2.64098000  *   0.07943000  *
    10       C          3.88982000  *   3.88180000  *   0.00492000  *
    11       C          5.10470000  *   4.00569000  *  -0.66802000  *
    12       C          5.68464000  *   2.88826000  *  -1.26759000  *
    13       C          5.05246000  *   1.64373000  *  -1.19494000  *
    14       C          3.94440000  *  -1.01066000  *  -0.40574000  *
    15       C          5.22851000  *  -1.03597000  *   0.18634000  *
    16       C          5.98203000  *  -2.21271000  *   0.21993000  *
    17       C          5.47463000  *  -3.38657000  *  -0.33565000  *
    18       C          4.21140000  *  -3.38697000  *  -0.92576000  *
    19       C          3.45175000  *  -2.21431000  *  -0.96142000  *
    20       H         -2.18806000  *  -0.04276000  *  -0.29238000  *
    21       H         -1.06748000  *   1.77408000  *  -1.54592000  *
    22       H          1.37440000  *   1.90053000  *  -1.63463000  *
    23       H          1.60819000  *  -1.64442000  *   0.84583000  *
    24       H         -0.83637000  *  -1.74473000  *   0.89271000  *
    25       H          2.31734000  *   2.58126000  *   0.62232000  *
    26       H          3.44170000  *   4.74882000  *   0.47303000  *
    27       H          5.59678000  *   4.96803000  *  -0.72497000  *
    28       H          6.62594000  *   2.98605000  *  -1.79295000  *
    29       H          5.52548000  *   0.80337000  *  -1.68488000  *
    30       H          5.65015000  *  -0.14983000  *   0.64113000  *
    31       H          6.96139000  *  -2.21396000  *   0.68091000  *
    32       H          6.06052000  *  -4.29626000  *  -0.30885000  *
    33       H          3.81942000  *  -4.29780000  *  -1.35983000  *
    34       H          2.48305000  *  -2.25122000  *  -1.44115000  *
 


          CARTESIAN COORDINATES 

    NO.       ATOM           X           Y           Z

     1         C         -1.1073      0.0073     -0.3224
     2         C         -0.4754      1.0316     -1.0266
     3         C          0.9200      1.1000     -1.0664
     4         C          1.7147      0.1382     -0.4010
     5         C          1.0508     -0.8911      0.3054
     6         C         -0.3451     -0.9521      0.3432
     7         N          3.1602      0.2062     -0.4419
     8         C          3.8197      1.4928     -0.5190
     9         C          3.2511      2.6410      0.0794
    10         C          3.8898      3.8818      0.0049
    11         C          5.1047      4.0057     -0.6680
    12         C          5.6846      2.8883     -1.2676
    13         C          5.0525      1.6437     -1.1949
    14         C          3.9444     -1.0107     -0.4057
    15         C          5.2285     -1.0360      0.1863
    16         C          5.9820     -2.2127      0.2199
    17         C          5.4746     -3.3866     -0.3357
    18         C          4.2114     -3.3870     -0.9258
    19         C          3.4518     -2.2143     -0.9614
    20         H         -2.1881     -0.0428     -0.2924
    21         H         -1.0675      1.7741     -1.5459
    22         H          1.3744      1.9005     -1.6346
    23         H          1.6082     -1.6444      0.8458
    24         H         -0.8364     -1.7447      0.8927
    25         H          2.3173      2.5813      0.6223
    26         H          3.4417      4.7488      0.4730
    27         H          5.5968      4.9680     -0.7250
    28         H          6.6259      2.9861     -1.7930
    29         H          5.5255      0.8034     -1.6849
    30         H          5.6502     -0.1498      0.6411
    31         H          6.9614     -2.2140      0.6809
    32         H          6.0605     -4.2963     -0.3089
    33         H          3.8194     -4.2978     -1.3598
    34         H          2.4830     -2.2512     -1.4411

 General Reference for PM7:
 "Optimization of Parameters for Semiempirical Methods VI: More Modifications to the 
 NDDO Approximations and Re-optimization of Parameters", J. J. P. Stewart, J. Mol. Mod., 1:32, 19 (2013)
 https://link.springer.com/article/10.1007/s00894-012-1667-x

           Empirical Formula: C18 H15 N  =    34 atoms



      MOLECULAR POINT GROUP   :   D3  


 SINGLET STATE CALCULATION


      RHF CALCULATION, NO. OF DOUBLY OCCUPIED LEVELS = 46


          Geometry optimization using L-BFGS
 CYCLE:     1 TIME:   0.133 TIME LEFT:  2.00D  GRAD.:    47.471 HEAT:  84.50553
 CYCLE:     2 TIME:   0.008 TIME LEFT:  2.00D  GRAD.:    46.889 HEAT:  84.48313
 CYCLE:     3 TIME:   0.008 TIME LEFT:  2.00D  GRAD.:    21.197 HEAT:  83.16390
 CYCLE:     4 TIME:   0.008 TIME LEFT:  2.00D  GRAD.:    46.824 HEAT:  84.48316
 CYCLE:     5 TIME:   0.008 TIME LEFT:  2.00D  GRAD.:    40.188 HEAT:  83.78062
 CYCLE:     6 TIME:   0.008 TIME LEFT:  2.00D  GRAD.:    43.561 HEAT:  82.83754
 CYCLE:     7 TIME:   0.008 TIME LEFT:  2.00D  GRAD.:    29.410 HEAT:  82.22570
 CYCLE:     8 TIME:   0.008 TIME LEFT:  2.00D  GRAD.:    22.174 HEAT:  81.87574
 CYCLE:     9 TIME:   0.008 TIME LEFT:  2.00D  GRAD.:    22.335 HEAT:  81.11124
 CYCLE:    10 TIME:   0.008 TIME LEFT:  2.00D  GRAD.:    26.646 HEAT:  80.84429
 CYCLE:    11 TIME:   0.000 TIME LEFT:  2.00D  GRAD.:    24.242 HEAT:  80.65971
 CYCLE:    12 TIME:   0.008 TIME LEFT:  2.00D  GRAD.:    26.187 HEAT:  80.57460
 CYCLE:    13 TIME:   0.008 TIME LEFT:  2.00D  GRAD.:    25.380 HEAT:  80.55219
 CYCLE:    14 TIME:   0.008 TIME LEFT:  2.00D  GRAD.:    24.281 HEAT:  80.53956
 CYCLE:    15 TIME:   0.008 TIME LEFT:  2.00D  GRAD.:    24.406 HEAT:  80.52787
 CYCLE:    16 TIME:   0.008 TIME LEFT:  2.00D  GRAD.:    24.611 HEAT:  80.51281
 CYCLE:    17 TIME:   0.008 TIME LEFT:  2.00D  GRAD.:    32.485 HEAT:  80.49460
 CYCLE:    18 TIME:   0.000 TIME LEFT:  2.00D  GRAD.:     5.042 HEAT:  80.26472
 CYCLE:    19 TIME:   0.008 TIME LEFT:  2.00D  GRAD.:     4.221 HEAT:  80.25142
 CYCLE:    20 TIME:   0.008 TIME LEFT:  2.00D  GRAD.:     6.025 HEAT:  80.21080
 CYCLE:    21 TIME:   0.008 TIME LEFT:  2.00D  GRAD.:     8.399 HEAT:  80.18494
 CYCLE:    22 TIME:   0.008 TIME LEFT:  2.00D  GRAD.:     6.550 HEAT:  80.14362
 CYCLE:    23 TIME:   0.008 TIME LEFT:  2.00D  GRAD.:    10.295 HEAT:  80.07294
 CYCLE:    24 TIME:   0.008 TIME LEFT:  2.00D  GRAD.:    12.683 HEAT:  80.01323
 CYCLE:    25 TIME:   0.008 TIME LEFT:  2.00D  GRAD.:    14.245 HEAT:  79.91616
 CYCLE:    26 TIME:   0.008 TIME LEFT:  2.00D  GRAD.:    16.891 HEAT:  79.83516
 CYCLE:    27 TIME:   0.008 TIME LEFT:  2.00D  GRAD.:    11.609 HEAT:  79.75027
 CYCLE:    28 TIME:   0.008 TIME LEFT:  2.00D  GRAD.:    11.179 HEAT:  79.70969
 CYCLE:    29 TIME:   0.000 TIME LEFT:  2.00D  GRAD.:    12.636 HEAT:  79.65975
 CYCLE:    30 TIME:   0.008 TIME LEFT:  2.00D  GRAD.:     9.321 HEAT:  79.60464
 CYCLE:    31 TIME:   0.008 TIME LEFT:  2.00D  GRAD.:     3.961 HEAT:  79.58059
 CYCLE:    32 TIME:   0.008 TIME LEFT:  2.00D  GRAD.:     4.215 HEAT:  79.55964
 CYCLE:    33 TIME:   0.000 TIME LEFT:  2.00D  GRAD.:     7.675 HEAT:  79.54356
 CYCLE:    34 TIME:   0.008 TIME LEFT:  2.00D  GRAD.:    11.595 HEAT:  79.52698
 CYCLE:    35 TIME:   0.008 TIME LEFT:  2.00D  GRAD.:     3.830 HEAT:  79.49614
 CYCLE:    36 TIME:   0.008 TIME LEFT:  2.00D  GRAD.:     4.136 HEAT:  79.47827
 CYCLE:    37 TIME:   0.008 TIME LEFT:  2.00D  GRAD.:    11.487 HEAT:  79.46726
 CYCLE:    38 TIME:   0.008 TIME LEFT:  2.00D  GRAD.:     5.759 HEAT:  79.43632
 CYCLE:    39 TIME:   0.008 TIME LEFT:  2.00D  GRAD.:     5.048 HEAT:  79.43287
 CYCLE:    40 TIME:   0.008 TIME LEFT:  2.00D  GRAD.:     2.956 HEAT:  79.41824
 CYCLE:    41 TIME:   0.008 TIME LEFT:  2.00D  GRAD.:     7.306 HEAT:  79.42723
 CYCLE:    42 TIME:   0.008 TIME LEFT:  2.00D  GRAD.:    17.875 HEAT:  79.48686
 CYCLE:    43 TIME:   0.008 TIME LEFT:  2.00D  GRAD.:    39.512 HEAT:  79.77408
 CYCLE:    44 TIME:   0.008 TIME LEFT:  2.00D  GRAD.:    25.712 HEAT:  79.54963
 CYCLE:    45 TIME:   0.008 TIME LEFT:  2.00D  GRAD.:     8.676 HEAT:  79.46321
 CYCLE:    46 TIME:   0.008 TIME LEFT:  2.00D  GRAD.:     9.609 HEAT:  79.43013
 CYCLE:    47 TIME:   0.008 TIME LEFT:  2.00D  GRAD.:     2.188 HEAT:  79.40162
 CYCLE:    48 TIME:   0.008 TIME LEFT:  2.00D  GRAD.:     1.611 HEAT:  79.39862
 CYCLE:    49 TIME:   0.008 TIME LEFT:  2.00D  GRAD.:     3.601 HEAT:  79.40079
 CYCLE:    50 TIME:   0.000 TIME LEFT:  2.00D  GRAD.:     0.565 HEAT:  79.39853

 -------------------------------------------------------------------------------
 AUX LARGE CHARGE=0 SINGLET  PM7
 trifenylamin



     HERBERTS TEST WAS SATISFIED IN BFGS                      
     SCF FIELD WAS ACHIEVED                                   


                              PM7 CALCULATION
                                                       MOPAC v22.1.1 Linux
                                                       Thu Oct 10 22:01:21 2024




          FINAL HEAT OF FORMATION =         79.39853 KCAL/MOL =     332.20344 KJ/MOL


          COSMO AREA              =        272.06 SQUARE ANGSTROMS
          COSMO VOLUME            =        307.66 CUBIC ANGSTROMS

          GRADIENT NORM           =          0.56455          =       0.09682 PER ATOM
          IONIZATION POTENTIAL    =          7.964832 EV
          HOMO LUMO ENERGIES (EV) =         -7.965 -0.048
          NO. OF FILLED LEVELS    =         46
          MOLECULAR WEIGHT        =        245.3232         POINT GROUP:  D3  

          MOLECULAR DIMENSIONS (Angstroms)

            Atom       Atom       Distance
            H    31    H    20     9.28740
            H    33    H    27     9.27947
            H    24    H    28     4.30062


          SCF CALCULATIONS        =         51
 
          WALL-CLOCK TIME         =      0.531 SECONDS
          COMPUTATION TIME        =      2.687 SECONDS




   ATOM   CHEMICAL          X               Y               Z
  NUMBER   SYMBOL      (ANGSTROMS)     (ANGSTROMS)     (ANGSTROMS)
 
     1       C         -1.03844309  *   0.00947571  *  -0.32320054  *
     2       C         -0.40616628  *   0.96626851  *  -1.11574370  *
     3       C          0.98136429  *   1.03760108  *  -1.16376476  *
     4       C          1.74574163  *   0.13979879  *  -0.40132971  *
     5       C          1.11248328  *  -0.82374647  *   0.39983805  *
     6       C         -0.27614814  *  -0.88248658  *   0.42977229  *
     7       N          3.15943298  *   0.20689591  *  -0.44047662  *
     8       C          3.80541698  *   1.46444080  *  -0.51675527  *
     9       C          3.28319114  *   2.56261159  *   0.18537139  *
    10       C          3.92258396  *   3.79413004  *   0.10203715  *
    11       C          5.07644991  *   3.94178673  *  -0.66635771  *
    12       C          5.59328357  *   2.84853272  *  -1.36011568  *
    13       C          4.96530343  *   1.61010797  *  -1.29451118  *
    14       C          3.92608548  *  -0.98248821  *  -0.40601470  *
    15       C          5.14188516  *  -1.01142947  *   0.29585397  *
    16       C          5.88921188  *  -2.18343970  *   0.32093198  *
    17       C          5.43604947  *  -3.32589027  *  -0.33695893  *
    18       C          4.22661718  *  -3.29451936  *  -1.02941622  *
    19       C          3.46841662  *  -2.13007275  *  -1.07326121  *
    20       H         -2.12329372  *  -0.04124624  *  -0.29259771  *
    21       H         -1.00170231  *   1.66111134  *  -1.70675555  *
    22       H          1.47357887  *   1.77710501  *  -1.79267448  *
    23       H          1.70599608  *  -1.51280195  *   0.99790208  *
    24       H         -0.77011987  *  -1.62861771  *   1.05106351  *
    25       H          2.38905852  *   2.44607540  *   0.79499835  *
    26       H          3.51946540  *   4.64778540  *   0.64573321  *
    27       H          5.57174624  *   4.90702057  *  -0.72462937  *
    28       H          6.49296572  *   2.96460637  *  -1.96339705  *
    29       H          5.36282055  *   0.76077794  *  -1.84702515  *
    30       H          5.49036204  *  -0.12461497  *   0.82198889  *
    31       H          6.83342405  *  -2.20820379  *   0.86380357  *
    32       H          6.02417088  *  -4.23902709  *  -0.30989536  *
    33       H          3.87303031  *  -4.18668780  *  -1.54492901  *
    34       H          2.53129511  *  -2.10348223  *  -1.62608265  *

                             CARTESIAN COORDINATES

   1    C       -1.038443092     0.009475706    -0.323200544
   2    C       -0.406166281     0.966268506    -1.115743699
   3    C        0.981364294     1.037601080    -1.163764756
   4    C        1.745741628     0.139798794    -0.401329711
   5    C        1.112483278    -0.823746473     0.399838046
   6    C       -0.276148141    -0.882486580     0.429772288
   7    N        3.159432980     0.206895914    -0.440476621
   8    C        3.805416979     1.464440800    -0.516755275
   9    C        3.283191137     2.562611589     0.185371394
  10    C        3.922583956     3.794130039     0.102037147
  11    C        5.076449905     3.941786733    -0.666357707
  12    C        5.593283573     2.848532719    -1.360115678
  13    C        4.965303427     1.610107973    -1.294511185
  14    C        3.926085483    -0.982488206    -0.406014703
  15    C        5.141885159    -1.011429469     0.295853966
  16    C        5.889211880    -2.183439698     0.320931985
  17    C        5.436049467    -3.325890272    -0.336958930
  18    C        4.226617183    -3.294519363    -1.029416218
  19    C        3.468416619    -2.130072754    -1.073261211
  20    H       -2.123293718    -0.041246239    -0.292597710
  21    H       -1.001702307     1.661111343    -1.706755553
  22    H        1.473578865     1.777105014    -1.792674479
  23    H        1.705996079    -1.512801949     0.997902082
  24    H       -0.770119871    -1.628617706     1.051063506
  25    H        2.389058525     2.446075395     0.794998352
  26    H        3.519465399     4.647785403     0.645733212
  27    H        5.571746235     4.907020565    -0.724629373
  28    H        6.492965715     2.964606372    -1.963397049
  29    H        5.362820549     0.760777942    -1.847025147
  30    H        5.490362039    -0.124614972     0.821988891
  31    H        6.833424054    -2.208203791     0.863803568
  32    H        6.024170883    -4.239027086    -0.309895361
  33    H        3.873030313    -4.186687804    -1.544929007
  34    H        2.531295107    -2.103482234    -1.626082649


           Empirical Formula: C18 H15 N  =    34 atoms



      MOLECULAR POINT GROUP   :   D3  


                  EIGENVALUES  
 -36.98774 -30.51748 -30.51532 -30.15362 -26.51185 -26.51020 -25.75179 -25.51700
 -25.51399 -24.61073 -21.82151 -21.81827 -20.85631 -20.65288 -20.65133 -19.87405
 -18.27946 -18.27917 -17.20772 -16.05130 -16.04791 -15.83223 -15.16967 -15.16874
 -14.88943 -14.51025 -14.50798 -14.41153 -14.32722 -14.32574 -13.60209 -13.35087
 -13.34930 -12.73840 -12.30202 -12.29953 -12.23742 -11.84985 -11.84778 -11.31752
  -9.99818  -9.91304  -9.91153  -9.78590  -9.78427  -7.96483  -0.04845  -0.04669
   0.13907   0.22409   0.22580   0.72434   1.66451   2.43476   2.43690   2.69872
   4.01298   4.01507   4.35842   4.35916   4.41654   4.43635   4.83249   4.83287
   4.97549   4.97625   5.01440   5.03486   5.19402   5.19512   5.31654   5.46177
   5.46208   5.72533   5.79987   5.80257   5.87111   5.93308   5.93487   6.11429
   6.11641   6.11856   6.28149   6.28224   6.28567   6.29502   6.29585   6.29916
   6.31629   6.34675   6.34708


              NET ATOMIC CHARGES AND DIPOLE CONTRIBUTIONS

  ATOM NO.   TYPE          CHARGE      No. of ELECS.   s-Pop       p-Pop       
    1          C          -0.197980        4.1980     1.07890     3.11908
    2          C          -0.096073        4.0961     1.08326     3.01281
    3          C          -0.233127        4.2331     1.08133     3.15180
    4          C           0.219711        3.7803     1.05644     2.72384
    5          C          -0.233086        4.2331     1.08129     3.15179
    6          C          -0.096060        4.0961     1.08328     3.01278
    7          N          -0.448930        5.4489     1.53034     3.91859
    8          C           0.219744        3.7803     1.05646     2.72380
    9          C          -0.233051        4.2331     1.08132     3.15173
   10          C          -0.096075        4.0961     1.08327     3.01280
   11          C          -0.197974        4.1980     1.07892     3.11905
   12          C          -0.096062        4.0961     1.08326     3.01280
   13          C          -0.233180        4.2332     1.08128     3.15190
   14          C           0.220510        3.7795     1.05644     2.72305
   15          C          -0.233915        4.2339     1.08121     3.15271
   16          C          -0.095561        4.0956     1.08329     3.01228
   17          C          -0.198609        4.1986     1.07881     3.11980
   18          C          -0.095566        4.0956     1.08326     3.01230
   19          C          -0.234032        4.2340     1.08120     3.15283
   20          H           0.149699        0.8503     0.85030
   21          H           0.148875        0.8511     0.85112
   22          H           0.169504        0.8305     0.83050
   23          H           0.169563        0.8304     0.83044
   24          H           0.148868        0.8511     0.85113
   25          H           0.169518        0.8305     0.83048
   26          H           0.148877        0.8511     0.85112
   27          H           0.149700        0.8503     0.85030
   28          H           0.148867        0.8511     0.85113
   29          H           0.169542        0.8305     0.83046
   30          H           0.169514        0.8305     0.83049
   31          H           0.148800        0.8512     0.85120
   32          H           0.149707        0.8503     0.85029
   33          H           0.148790        0.8512     0.85121
   34          H           0.169492        0.8305     0.83051
 DIPOLE           X         Y         Z       TOTAL
 POINT-CHG.    -0.009     0.011    -0.003     0.014
 HYBRID        -0.000     0.000    -0.001     0.001
 SUM           -0.009     0.011    -0.004     0.015


          ATOMIC ORBITAL ELECTRON POPULATIONS

     Atom    s        px        py        pz   
    1  C   1.07890   1.08034   1.01190   1.02684
    2  C   1.08326   1.00276   1.01164   0.99841
    3  C   1.08133   1.01068   1.08251   1.05862
    4  C   1.05644   0.78653   0.98393   0.95339
    5  C   1.08129   1.02199   1.07570   1.05410
    6  C   1.08328   0.99404   1.01746   1.00128
    7  N   1.53034   1.09804   1.09895   1.72160
    8  C   1.05646   0.94338   0.82820   0.95222
    9  C   1.08132   1.09582   0.99431   1.06160
   10  C   1.08327   0.98687   1.03266   0.99328
   11  C   1.07892   1.02527   1.06433   1.02946
   12  C   1.08326   1.03798   0.97619   0.99863
   13  C   1.08128   1.03579   1.06287   1.05325
   14  C   1.05644   0.92695   0.84470   0.95140
   15  C   1.08121   1.02308   1.07171   1.05791
   16  C   1.08329   1.04531   0.97522   0.99174
   17  C   1.07881   1.02863   1.05812   1.03304
   18  C   1.08326   0.98487   1.03792   0.98951
   19  C   1.08120   1.09560   0.99562   1.06160
   20  H   0.85030
   21  H   0.85112
   22  H   0.83050
   23  H   0.83044
   24  H   0.85113
   25  H   0.83048
   26  H   0.85112
   27  H   0.85030
   28  H   0.85113
   29  H   0.83046
   30  H   0.83049
   31  H   0.85120
   32  H   0.85029
   33  H   0.85121
   34  H   0.83051

 **********************
 *                    *
 * JOB ENDED NORMALLY *
 *                    *
 **********************



 TOTAL JOB TIME:             0.54 SECONDS

 == MOPAC DONE ==
