

 Parallel Execution: Process Information
 ==============================================================================
 Rank   Node Name                              NodeID   MyNodeRank  NodeMaster
    0   adf1                                      0          0          0
    1   adf1                                      0          1         -1
    2   adf1                                      0          2         -1
    3   adf1                                      0          3         -1
    4   adf1                                      0          4         -1
    5   adf1                                      0          5         -1
    6   adf1                                      0          6         -1
    7   adf1                                      0          7         -1
    8   adf1                                      0          8         -1
    9   adf1                                      0          9         -1
   10   adf1                                      0         10         -1
   11   adf1                                      0         11         -1
 ==============================================================================


May use up to 22932MB of RAM as shared memory on node 0

 *******************************************************************************
 *                                                                             *
 *  --------------------------------                                           *
 *   Amsterdam Modeling Suite (AMS)              2020.202                      *
 *  --------------------------------                                           *
 *                                               r89741 2020-11-17             *
 *                                                                             *
 *                                                                             *
 *                              =================                              *
 *                              |               |                              *
 *                              |     A M S     |                              *
 *                              |               |                              *
 *                              =================                              *
 *                                                                             *
 *                                                                             *
 *   Online information and documentation:  https://www.scm.com/support/       *
 *   E-mail:  support@scm.com   info@scm.com                                   *
 *                                                                             *
 *   Scientific publications using AMS results must be properly referenced     *
 *   See the User Manuals (or the web site) for recommended citations          *
 *   The terms and conditions of the End User License Agreement apply to       *
 *   the use of AMS, https://www.scm.com/license-terms/                        *
 *                                                                             *
 **********************  x86_64_linux_intel / intelmpi  ************************
 
 Licensed to: Dr. Miroslav Ilias / Matej Bel University, Department Chemistry, Fac. Natural Sciences / Banska Bystrica / SLOVAKIA
 SCM User ID: u17848
  
 AMS 2020.202  RunTime: Mar22-2021 16:25:13  Nodes: 1  Procs: 12

 AMS jobname: ams
 AMS jobid  : 420905975

 Start   directory: /home/milias/Work/projects/open-collection/theoretical_chemistry/projects/nmr_diplomovky/HD/ams/b3lyp_tz2p_good/cosmo-benzene/tmp.milias.10099.0.noindex/
 Results directory: /home/milias/Work/projects/open-collection/theoretical_chemistry/projects/nmr_diplomovky/HD/ams/b3lyp_tz2p_good/cosmo-benzene/HD.geopt_freq_nmr_shield_b3lyp_tz2p_good_cosmo-benzene.results/
 Scratch directory: /tmp/amstmp_ams_kid0.420905975/


 Communication costs MPI_COMM_WORLD:      3.392 usec per message,   0.3787 usec per 8-byte item
 Communication costs for intra-node:     15.934 usec per message,   0.4309 usec per 8-byte item

 RNG seed: 824361158 -1156978701 2046029802 -1559136711 -1750045134 222083024 1804030551 -1244085784



                       *********************************************************************
                       *  ADF 2020.202  RunTime: Mar22-2021 16:25:18  Nodes: 1  Procs: 12  *
                       *********************************************************************
  
       ***************************
       *  GEOMETRY OPTIMIZATION  *
       ***************************

Optimization Method                    Quasi Newton
Optimization Coordinates               Delocalized Coordinates
Optimize lattice                       F
 
 ------------------------------------------------------
 Convergence criteria (Hartree,Angstrom)
 ------------------------------------------------------
 Maximum gradient               0.001000000000
 Maximum rms gradient           0.000666666667
 Maximum step allowed           0.001000000000
 Maximum rms step allowed       0.000666666667
 Maximum energy change allowe   0.000150000000
 Maximum stress energy allowe   0.000500000000
 
Initial model Hessian                  Automatic Hessian
 
------------------------------------
Quasi-Newton Optimizer Parameters
------------------------------------
Hessian Update Method                  BFGS
Maximum number of steps                  250
First GDIIS cycle                          0
Maximum GDIIS vectors                      0
Trust radius (bohr)                        0.200000
Trust radius varies                        T
Constraints converged at all steps         T
Use projector                              T
 
 Rigid motions settings for: old optimizer
 Atomic rotations (x,y,z):     T T T
 Atomic translations (x,y,z):  T T T
 Tolerance:                   1.000000000000000E-006
 
--------
Geometry
--------
Atoms
  Index Symbol   x (angstrom)   y (angstrom)   z (angstrom)
      1      S     0.00000000     0.00000000    -0.97784519       adf.R=1.792
      2      C     1.39297639    -0.00000000     0.21605517       adf.R=1.700
      3      H     1.32221342     0.88787100     0.84225457       adf.R=1.350
      4      H     1.32221342    -0.88787100     0.84225457       adf.R=1.350
      5      C     2.69339134    -0.00000000    -0.56179273       adf.R=1.700
      6      H     2.80299458     0.88852300    -1.17549013       adf.R=1.350
      7      H     2.80299458    -0.88852300    -1.17549013       adf.R=1.350
      8      C    -1.39297639     0.00000000     0.21605517       adf.R=1.700
      9      H    -1.32221342    -0.88787100     0.84225457       adf.R=1.350
     10      H    -1.32221342     0.88787100     0.84225457       adf.R=1.350
     11      C    -2.69339134     0.00000000    -0.56179273       adf.R=1.700
     12      H    -2.80299458     0.88852300    -1.17549013       adf.R=1.350
     13      H    -2.80299458    -0.88852300    -1.17549013       adf.R=1.350
     14     Cl     4.10970777    -0.00000000     0.57918084       adf.R=1.725
     15     Cl    -4.10970777     0.00000000     0.57918084       adf.R=1.725
 
Total System Charge             0.00000
Bonding info available!
 
 
----------------
ADF Engine Input
----------------
 
 Basis
 Type TZ2P
 Core None
 End
 Save TAPE10
 XC
 Hybrid B3LYP
 End
 Relativity
 Level None
 End
 Solvation
 Surf Delley
 Solv name=Benzene cav0=0.0 cav1=0.0067639
 Charged method=CONJ
 C-Mat POT
 SCF VAR ALL
 CSMRSP
 End
 NumericalQuality Good
 

 Title: *** (NO TITLE) ***

Number of symmetry operators: 4
Schoenflies symbol:           C(2V)
 Using automatic Hessian for delocalized coordinates.
 *** GOStep1 ***

 SOLVATION
-------------------------------------------

  The Delley construction of COSMO surface surface is calculated

       Division Level for Surface Triangles (NDIV)                  3
       Final Division Level for Triangles (NFDIV)                   1
       Radius of the Solvent (RSOL)                           3.28000 angstr
  Dielectric Constant (EPSL)                                  2.30000

       COSMO equation is solved iteratively-               conjugate-gradient

       Maximun of Iterations for Charges (NCIX)                  1000
       Criterion for Charge convergence (CCNV)                1.0E-08

  COSMO charges included variationally in SCF

       COSMO included at every SCF cycle

  Geometry-dependent empirical factor                         0.00000

  C-Matrix calculated in cspmtx

  In cspmtx, C-Matrix calculated using fitted potential

-------------------------------------------



 -------------------------------------------
  COSMO surface
  Area             =          603.072
  Volume           =         1046.086
  Number of Points =         1371
 -------------------------------------------



 ======================
 RI Hartree-Fock Scheme
 ======================
  
 Fit Set Quality     : GOOD
 Integration Quality : GOOD
 Threshold Quality   : GOOD
 Response Quality    : DEFAULT
 Is Range Separated  :  F
 
 RIHartreeFock Dependency: number of modified vectors:          12
 cosmo_calcen: 0.5 (esolb+esolc) (Hartrees) =   -0.004672

 Solvation energy (screening term,uncorrected) =     -2.931731 kcal/mol

 Solvation energy (dispersion and cavitation terms) =      0.645631 kcal/mol
 Solvation Energy Contributions (Hartrees)
          esola   esolb+esolc
     0.00467201   -0.00934402
 esol last cycle   -0.00467201
  
 Hartree-Fock exchange energy:   -103.651813880943     
 cosmo_calcen: 0.5 (esolb+esolc) (Hartrees) =   -0.004672

 Solvation energy (screening term,uncorrected) =     -2.931731 kcal/mol

 Solvation energy (dispersion and cavitation terms) =      0.645631 kcal/mol
 Solvation Energy Contributions (Hartrees)
          esola   esolb+esolc
     0.00467201   -0.00934402
 esol last cycle   -0.00467201
  pauli hf:                              1.076064031910089         29.2812           675.24          2825.21
  elstat hf:                            -1.032575768918822        -28.0978          -647.95         -2711.03

 Energy gradients wrt nuclear displacements
 ==========================================

     Atom      Cartesian (a.u./angstrom)
                 X         Y         Z
 ----------------------------------------
     1 S     0.000000  0.000000  0.000139
     2 C     0.000522  0.000000  0.001280
     3 H    -0.000342  0.000003 -0.000318
     4 H    -0.000342 -0.000003 -0.000318
     5 C    -0.001390 -0.000000 -0.002094
     6 H     0.000329 -0.000075  0.000341
     7 H     0.000329  0.000075  0.000341
     8 C    -0.000522 -0.000000  0.001280
     9 H     0.000342 -0.000003 -0.000318
    10 H     0.000342  0.000003 -0.000318
    11 C     0.001390  0.000000 -0.002094
    12 H    -0.000329 -0.000075  0.000341
    13 H    -0.000329  0.000075  0.000341
    14 Cl    0.000836 -0.000000  0.000698
    15 Cl   -0.000836  0.000000  0.000698
 ----------------------------------------
 Mulliken charges used for AMS results%charges...
 
----------------------------------------------------------------------
Geometry Convergence after Step   1       (Hartree/Angstrom,Angstrom)
----------------------------------------------------------------------
current energy                               -3.09919047 Hartree
energy change                      -3.09919047     0.00015000    F
constrained gradient max            0.00209385     0.00100000    F
constrained gradient rms            0.00067719     0.00066667    F
gradient max                        0.00209385
gradient rms                        0.00067719
cart. step max                      0.00178071     0.00100000    F
cart. step rms                      0.00080762     0.00066667    F
 
 
--------
Geometry
--------
Atoms
  Index Symbol   x (angstrom)   y (angstrom)   z (angstrom)
      1      S    -0.00000000     0.00000000    -0.97744070       adf.R=1.792
      2      C     1.39337172    -0.00000000     0.21607815       adf.R=1.700
      3      H     1.32399413     0.88762556     0.84293393       adf.R=1.350
      4      H     1.32399413    -0.88762556     0.84293393       adf.R=1.350
      5      C     2.69377459    -0.00000000    -0.56130094       adf.R=1.700
      6      H     2.80175011     0.88830669    -1.17581750       adf.R=1.350
      7      H     2.80175011    -0.88830669    -1.17581750       adf.R=1.350
      8      C    -1.39337172     0.00000000     0.21607815       adf.R=1.700
      9      H    -1.32399413    -0.88762556     0.84293393       adf.R=1.350
     10      H    -1.32399413     0.88762556     0.84293393       adf.R=1.350
     11      C    -2.69377459     0.00000000    -0.56130094       adf.R=1.700
     12      H    -2.80175011     0.88830669    -1.17581750       adf.R=1.350
     13      H    -2.80175011    -0.88830669    -1.17581750       adf.R=1.350
     14     Cl     4.11082064    -0.00000000     0.57775985       adf.R=1.725
     15     Cl    -4.11082064     0.00000000     0.57775985       adf.R=1.725
 
Total System Charge             0.00000
Bonding info available!
 
 *** GOStep2 ***

 SOLVATION
-------------------------------------------

  The Delley construction of COSMO surface surface is calculated

       Division Level for Surface Triangles (NDIV)                  3
       Final Division Level for Triangles (NFDIV)                   1
       Radius of the Solvent (RSOL)                           3.28000 angstr
  Dielectric Constant (EPSL)                                  2.30000

       COSMO equation is solved iteratively-               conjugate-gradient

       Maximun of Iterations for Charges (NCIX)                  1000
       Criterion for Charge convergence (CCNV)                1.0E-08

  COSMO charges included variationally in SCF

       COSMO included at every SCF cycle

  Geometry-dependent empirical factor                         0.00000

  C-Matrix calculated in cspmtx

  In cspmtx, C-Matrix calculated using fitted potential

-------------------------------------------



 -------------------------------------------
  COSMO surface
  Area             =          603.084
  Volume           =         1046.119
  Number of Points =         1371
 -------------------------------------------



 ======================
 RI Hartree-Fock Scheme
 ======================
  
 Fit Set Quality     : GOOD
 Integration Quality : GOOD
 Threshold Quality   : GOOD
 Response Quality    : DEFAULT
 Is Range Separated  :  F
 
 RIHartreeFock Dependency: number of modified vectors:          12
 cosmo_calcen: 0.5 (esolb+esolc) (Hartrees) =   -0.004654

 Solvation energy (screening term,uncorrected) =     -2.920648 kcal/mol

 Solvation energy (dispersion and cavitation terms) =      0.645643 kcal/mol
 Solvation Energy Contributions (Hartrees)
          esola   esolb+esolc
     0.00465435   -0.00930870
 esol last cycle   -0.00465435
  
 Hartree-Fock exchange energy:   -103.651930215082     
 cosmo_calcen: 0.5 (esolb+esolc) (Hartrees) =   -0.004654

 Solvation energy (screening term,uncorrected) =     -2.920649 kcal/mol

 Solvation energy (dispersion and cavitation terms) =      0.645643 kcal/mol
 Solvation Energy Contributions (Hartrees)
          esola   esolb+esolc
     0.00465435   -0.00930870
 esol last cycle   -0.00465435
  pauli hf:                              1.079126725739364         29.3645           677.16          2833.25
  elstat hf:                            -1.032751058715743        -28.1026          -648.06         -2711.49

 Energy gradients wrt nuclear displacements
 ==========================================

     Atom      Cartesian (a.u./angstrom)
                 X         Y         Z
 ----------------------------------------
     1 S     0.000000  0.000000 -0.000186
     2 C     0.000335 -0.000000  0.000451
     3 H    -0.000055 -0.000020 -0.000176
     4 H    -0.000055  0.000020 -0.000176
     5 C    -0.000999 -0.000000 -0.001031
     6 H     0.000066 -0.000047  0.000209
     7 H     0.000066  0.000047  0.000209
     8 C    -0.000335  0.000000  0.000451
     9 H     0.000055  0.000020 -0.000176
    10 H     0.000055 -0.000020 -0.000176
    11 C     0.000999  0.000000 -0.001031
    12 H    -0.000066 -0.000047  0.000209
    13 H    -0.000066  0.000047  0.000209
    14 Cl    0.000864  0.000000  0.000609
    15 Cl   -0.000864  0.000000  0.000609
 ----------------------------------------
 Mulliken charges used for AMS results%charges...

 dE(predicted):    -0.40202E-05, dE(actual):    -0.34187E-05, Trust radius:    0.200000, all in a.u.
 
----------------------------------------------------------------------
Geometry Convergence after Step   2       (Hartree/Angstrom,Angstrom)
----------------------------------------------------------------------
current energy                               -3.09919388 Hartree
energy change                      -0.00000342     0.00015000    T
constrained gradient max            0.00103149     0.00100000    F
constrained gradient rms            0.00040446     0.00066667    T
gradient max                        0.00103149
gradient rms                        0.00040446
cart. step max                      0.00114211     0.00100000    F
cart. step rms                      0.00052596     0.00066667    T
 
 
--------
Geometry
--------
Atoms
  Index Symbol   x (angstrom)   y (angstrom)   z (angstrom)
      1      S    -0.00000000    -0.00000000    -0.97741050       adf.R=1.792
      2      C     1.39311645    -0.00000000     0.21611930       adf.R=1.700
      3      H     1.32446801     0.88739170     0.84360197       adf.R=1.350
      4      H     1.32446801    -0.88739170     0.84360197       adf.R=1.350
      5      C     2.69354983    -0.00000000    -0.56106190       adf.R=1.700
      6      H     2.80060800     0.88809210    -1.17633984       adf.R=1.350
      7      H     2.80060800    -0.88809210    -1.17633984       adf.R=1.350
      8      C    -1.39311645     0.00000000     0.21611930       adf.R=1.700
      9      H    -1.32446801    -0.88739170     0.84360197       adf.R=1.350
     10      H    -1.32446801     0.88739170     0.84360197       adf.R=1.350
     11      C    -2.69354983     0.00000000    -0.56106190       adf.R=1.700
     12      H    -2.80060800     0.88809210    -1.17633984       adf.R=1.350
     13      H    -2.80060800    -0.88809210    -1.17633984       adf.R=1.350
     14     Cl     4.10981695    -0.00000000     0.57717315       adf.R=1.725
     15     Cl    -4.10981695     0.00000000     0.57717315       adf.R=1.725
 
Total System Charge             0.00000
Bonding info available!
 
 *** GOStep3 ***

 SOLVATION
-------------------------------------------

  The Delley construction of COSMO surface surface is calculated

       Division Level for Surface Triangles (NDIV)                  3
       Final Division Level for Triangles (NFDIV)                   1
       Radius of the Solvent (RSOL)                           3.28000 angstr
  Dielectric Constant (EPSL)                                  2.30000

       COSMO equation is solved iteratively-               conjugate-gradient

       Maximun of Iterations for Charges (NCIX)                  1000
       Criterion for Charge convergence (CCNV)                1.0E-08

  COSMO charges included variationally in SCF

       COSMO included at every SCF cycle

  Geometry-dependent empirical factor                         0.00000

  C-Matrix calculated in cspmtx

  In cspmtx, C-Matrix calculated using fitted potential

-------------------------------------------



 -------------------------------------------
  COSMO surface
  Area             =          603.001
  Volume           =         1046.006
  Number of Points =         1371
 -------------------------------------------



 ======================
 RI Hartree-Fock Scheme
 ======================
  
 Fit Set Quality     : GOOD
 Integration Quality : GOOD
 Threshold Quality   : GOOD
 Response Quality    : DEFAULT
 Is Range Separated  :  F
 
 RIHartreeFock Dependency: number of modified vectors:          12
 cosmo_calcen: 0.5 (esolb+esolc) (Hartrees) =   -0.004640

 Solvation energy (screening term,uncorrected) =     -2.911370 kcal/mol

 Solvation energy (dispersion and cavitation terms) =      0.645555 kcal/mol
 Solvation Energy Contributions (Hartrees)
          esola   esolb+esolc
     0.00463956   -0.00927913
 esol last cycle   -0.00463956
  
 Hartree-Fock exchange energy:   -103.652432845167     
 cosmo_calcen: 0.5 (esolb+esolc) (Hartrees) =   -0.004640

 Solvation energy (screening term,uncorrected) =     -2.911369 kcal/mol

 Solvation energy (dispersion and cavitation terms) =      0.645555 kcal/mol
 Solvation Energy Contributions (Hartrees)
          esola   esolb+esolc
     0.00463956   -0.00927912
 esol last cycle   -0.00463956
  pauli hf:                              1.084688376912258         29.5159           680.65          2847.85
  elstat hf:                            -1.033156093422839        -28.1136          -648.32         -2712.55

 Energy gradients wrt nuclear displacements
 ==========================================

     Atom      Cartesian (a.u./angstrom)
                 X         Y         Z
 ----------------------------------------
     1 S     0.000000  0.000000 -0.000465
     2 C     0.000169 -0.000000  0.000054
     3 H     0.000083 -0.000017  0.000013
     4 H     0.000083  0.000017  0.000013
     5 C    -0.000560  0.000000 -0.000232
     6 H    -0.000029  0.000005  0.000022
     7 H    -0.000029 -0.000005  0.000022
     8 C    -0.000169  0.000000  0.000054
     9 H    -0.000083  0.000017  0.000013
    10 H    -0.000083 -0.000017  0.000013
    11 C     0.000560 -0.000000 -0.000232
    12 H     0.000029  0.000005  0.000022
    13 H     0.000029 -0.000005  0.000022
    14 Cl    0.000418  0.000000  0.000342
    15 Cl   -0.000418 -0.000000  0.000342
 ----------------------------------------
 Mulliken charges used for AMS results%charges...

 dE(predicted):    -0.19438E-05, dE(actual):    -0.34365E-05, Trust radius:    0.200000, all in a.u.
 
---------------------------------------------------------
Geometry Convergence after Step   3       ** CONVERGED **
---------------------------------------------------------
current energy                               -3.09919732 Hartree
energy change                      -0.00000344     0.00015000    T
constrained gradient max            0.00055987     0.00100000    T
constrained gradient rms            0.00019046     0.00066667    T
gradient max                        0.00055987
gradient rms                        0.00019046
cart. step max                      0.00077194     0.00100000    T
cart. step rms                      0.00026122     0.00066667    T
 
Geometry optimization converged

Optimized geometry:
 
--------
Geometry
--------
Atoms
  Index Symbol   x (angstrom)   y (angstrom)   z (angstrom)
      1      S    -0.00000000    -0.00000000    -0.97741050       adf.R=1.792
      2      C     1.39311645    -0.00000000     0.21611930       adf.R=1.700
      3      H     1.32446801     0.88739170     0.84360197       adf.R=1.350
      4      H     1.32446801    -0.88739170     0.84360197       adf.R=1.350
      5      C     2.69354983    -0.00000000    -0.56106190       adf.R=1.700
      6      H     2.80060800     0.88809210    -1.17633984       adf.R=1.350
      7      H     2.80060800    -0.88809210    -1.17633984       adf.R=1.350
      8      C    -1.39311645     0.00000000     0.21611930       adf.R=1.700
      9      H    -1.32446801    -0.88739170     0.84360197       adf.R=1.350
     10      H    -1.32446801     0.88739170     0.84360197       adf.R=1.350
     11      C    -2.69354983     0.00000000    -0.56106190       adf.R=1.700
     12      H    -2.80060800     0.88809210    -1.17633984       adf.R=1.350
     13      H    -2.80060800    -0.88809210    -1.17633984       adf.R=1.350
     14     Cl     4.10981695    -0.00000000     0.57717315       adf.R=1.725
     15     Cl    -4.10981695     0.00000000     0.57717315       adf.R=1.725
 
Total System Charge             0.00000
Bonding info available!
 
Performing a single point calculation on the final geometry ...

 *** adf ***



 ===========================
 A T T A C H E D   F I L E S
 ===========================
  
 Restart/tmp/amstmp_ams_kid0.420905975/GOStep3.rkf*** GOStep3 ***



 ===============================
 M O D E L   P A R A M E T E R S
 ===============================
  
 DENSITY FUNCTIONAL POTENTIAL (scf)
    Hybrid:                            B3LYP                                   == Not Default ==

 SPIN  (restricted / unrestr.)
    Molecule:                          Restricted                               
    Fragments:                         Restricted                               

 OTHER ASPECTS
    Relativistic Corrections:          ---                                     == Not Default ==

    Nuclear Charge Density Model:      Point Charge Nuclei                      
    Core Treatment:                    Frozen Orbital(s)                        

    Hyperfine or Zeeman Interaction:   ---                                      

 SOLVATION
-------------------------------------------

  The Delley construction of COSMO surface surface is calculated

       Division Level for Surface Triangles (NDIV)                  3
       Final Division Level for Triangles (NFDIV)                   1
       Radius of the Solvent (RSOL)                           3.28000 angstr
  Dielectric Constant (EPSL)                                  2.30000

       COSMO equation is solved iteratively-               conjugate-gradient

       Maximun of Iterations for Charges (NCIX)                  1000
       Criterion for Charge convergence (CCNV)                1.0E-08

  COSMO charges included variationally in SCF

       COSMO included at every SCF cycle

  Geometry-dependent empirical factor                         0.00000

  C-Matrix calculated in cspmtx

  In cspmtx, C-Matrix calculated using fitted potential

-------------------------------------------




 ===============
 G E O M E T R Y  ***  3D  Molecule  ***
 ===============
  

 ATOMS
 =====                            X Y Z                    CHARGE                     RADIUS
                                (Angstrom)             Nucl     +Core       At.Mass (Angstrom)
                       --------------------------    ----------------       ------- ----------
    1  S              -0.0000   -0.0000   -0.9774     16.00     16.00       31.9721    1.7920
    2  C               1.3931   -0.0000    0.2161      6.00      6.00       12.0000    1.7000
    3  H               1.3245    0.8874    0.8436      1.00      1.00        1.0078    1.3500
    4  H               1.3245   -0.8874    0.8436      1.00      1.00        1.0078    1.3500
    5  C               2.6935   -0.0000   -0.5611      6.00      6.00       12.0000    1.7000
    6  H               2.8006    0.8881   -1.1763      1.00      1.00        1.0078    1.3500
    7  H               2.8006   -0.8881   -1.1763      1.00      1.00        1.0078    1.3500
    8  C              -1.3931    0.0000    0.2161      6.00      6.00       12.0000    1.7000
    9  H              -1.3245   -0.8874    0.8436      1.00      1.00        1.0078    1.3500
   10  H              -1.3245    0.8874    0.8436      1.00      1.00        1.0078    1.3500
   11  C              -2.6935    0.0000   -0.5611      6.00      6.00       12.0000    1.7000
   12  H              -2.8006    0.8881   -1.1763      1.00      1.00        1.0078    1.3500
   13  H              -2.8006   -0.8881   -1.1763      1.00      1.00        1.0078    1.3500
   14  Cl              4.1098   -0.0000    0.5772     17.00     17.00       34.9689    1.7250
   15  Cl             -4.1098    0.0000    0.5772     17.00     17.00       34.9689    1.7250


 FRAGMENTS
 =========                                     Atoms in this Fragment     Cart. coord.s (Angstrom)
                                               -------------------------------------------------------
    1  S                                                 1  S           -0.0000   -0.0000   -0.9774
    2  C                                                 2  C            1.3931   -0.0000    0.2161
    3  C                                                 5  C            2.6935   -0.0000   -0.5611
    4  C                                                 8  C           -1.3931    0.0000    0.2161
    5  C                                                11  C           -2.6935    0.0000   -0.5611
    6  H                                                 3  H            1.3245    0.8874    0.8436
    7  H                                                 4  H            1.3245   -0.8874    0.8436
    8  H                                                 6  H            2.8006    0.8881   -1.1763
    9  H                                                 7  H            2.8006   -0.8881   -1.1763
   10  H                                                 9  H           -1.3245   -0.8874    0.8436
   11  H                                                10  H           -1.3245    0.8874    0.8436
   12  H                                                12  H           -2.8006    0.8881   -1.1763
   13  H                                                13  H           -2.8006   -0.8881   -1.1763
   14  Cl                                               14  Cl           4.1098   -0.0000    0.5772
   15  Cl                                               15  Cl          -4.1098    0.0000    0.5772


 Interatomic Distance Matrix (Angstrom)
 --------------------------------------

   1)     0.000
   2)     1.834   0.000
   3)     2.420   1.089   0.000
   4)     2.420   1.089   1.775   0.000
   5)     2.726   1.515   2.153   2.153   0.000
   6)     2.945   2.170   2.502   3.068   1.086   0.000
   7)     2.945   2.170   3.068   2.502   1.086   1.776   0.000
   8)     1.834   2.786   2.927   2.927   4.160   4.507   4.507   0.000
   9)     2.420   2.927   3.189   2.649   4.348   4.924   4.593   1.089   0.000
  10)     2.420   2.927   2.649   3.189   4.348   4.593   4.924   1.089   1.775   0.000
  11)     2.726   4.160   4.348   4.348   5.387   5.599   5.599   1.515   2.153   2.153
          0.000
  12)     2.945   4.507   4.593   4.924   5.599   5.601   5.876   2.170   3.068   2.502
          1.086   0.000
  13)     2.945   4.507   4.924   4.593   5.599   5.876   5.601   2.170   2.502   3.068
          1.086   1.776   0.000
  14)     4.394   2.741   2.935   2.935   1.817   2.362   2.362   5.515   5.513   5.513
          6.898   7.185   7.185   0.000
  15)     4.394   5.515   5.513   5.513   6.898   7.185   7.185   2.741   2.935   2.935
          1.817   2.362   2.362   8.220   0.000

 Min. Distance =    1.0857
 Max. Distance =    8.2196



 =====================================
 S Y M M E T R Y ,   E L E C T R O N S
 =====================================
  
 Symmetry: C(2V)

 Irreducible Representations, including subspecies
 -------------------------------------------------
 A1
 A2
 B1
 B2

 Symmetry is NOT used when fitting density


 Configuration of Valence Electrons
 ==================================
 ( determined in the SCF procedure )

 Total:   82

 Net Charge: 0 (Nuclei minus Electrons)

 Aufbau principle for MO occupations will be applied through SCF cycle no.     150
 Thereafter, the program will assign electrons to MOs that are spatially
 similar to the occupied MOs in a "reference" cycle ("KeepOrbitals").
 The reference cycle is always the PREVIOUS cycle: it will evolve with
 the SCF procedure.
1
 ***************************************************************************************************



                                      ****************************************
                                      *  B U I L D : (Fragments, Functions)  *
                                      ****************************************
  



 =======
 S F O s  ***  (Symmetrized Fragment Orbitals)  ***
 =======
  
 SFOs are linear combinations of (valence) Fragment Orbitals (FOs), such that the SFOs transform as the
 irreducible representations of the (molecular) symmetry group. Each SFO is therefore characterized by
 an irrep of the molecule and by a few (or only one) generating FOs.
 The SFOs constitute a symmetry-adapted basis for the Fock matrix. The MO eigenvector coefficients in
 this basis provide a direct interpretation of the MOs in terms of Frontier Orbital Theory.

 The SFOs are combined with auxiliary Core Functions (CFs) to ensure orthogonalization on the (frozen)
 Core Orbitals (COs). The Core-orthogonalized SFOs (CSFOs) constitute the true Fock basis.

 The FOs, and hence also the (C)SFOs are combinations of the elementary basis functions (BAS). The basis
 functions that participate in the description of the SFOs depend on the irrep. The indices of the
 involved functions are printed below for each irrep.
 (The complete list of primitive basis functions is printed in another section)

 Total nr. of (C)SFOs (summation over all irreps) :   294

 NOTE: a (C)SFO that is defined as a combination of more than one FO is usually NOT normalized.



                                       === A1 ===
 Nr. of SFOs :   98
 Cartesian basis functions that participate in this irrep (total number =   252) :
      1     2     3     4    11    12    13     7    10    16
     19    22    28    23    26    38    31    36    39    99
     40   100    41   101    42   102    43   103    46   106
     49   109    52   112    44   104    47   107    50   110
     58   118    55   115    53    56   113   116    68   128
     64   124    61    66   121   126    59    62   119   122
     69   129    70   130    71   131    72   132    73   133
     76   136    79   139    82   142    74   134    77   137
     80   140    88   148    85   145    83    86   143   146
     98   158    94   154    91    96   151   156    89    92
    149   152   159   171   207   219   160   172   208   220
    161   173   209   221   164   176   212   224   162   163
    174   175   210   211   222   223   170   182   218   230
    167   169   179   181   215   217   227   229   165   166
    168   177   178   180   213   214   216   225   226   228
    183   195   231   243   184   196   232   244   185   197
    233   245   188   200   236   248   186   187   198   199
    234   235   246   247   194   206   242   254   191   193
    203   205   239   241   251   253   189   190   192   201
    202   204   237   238   240   249   250   252   255   293
    256   294   257   295   258   296   265   303   266   304
    267   305   261   299   264   302   270   308   273   311
    276   314   259   297   262   300   268   306   271   309
    274   312   282   320   279   317   277   280   315   318
    292   330   288   326   285   290   323   328   283   286
    321   324

    SFO  (index         Fragment          Generating    Expansion in Fragment Orbitals
  indx  incl.CFs)   Occup   Orb.Energy   FragmentType  Coeff.   Orbital     on Fragment
 --------------------------------------------------------------------------------------
     1       1      2.000     -88.923 au  S             1.00      1 S               1
                        (   -2419.725 eV)
     2       2      2.000      -7.997 au  S             1.00      2 S               1
                        (    -217.618 eV)
     3       3      2.000      -0.691 au  S             1.00      3 S               1
                        (     -18.798 eV)
     4       4       --         0.219 au  S             1.00      4 S               1
                        (       5.958 eV)
     5       5       --         2.101 au  S             1.00      5 S               1
                        (      57.181 eV)
     6       6       --        12.826 au  S             1.00      6 S               1
                        (     349.000 eV)
     7       7       --       200.465 au  S             1.00      7 S               1
                        (    5454.923 eV)
     8       8      2.000      -5.953 au  S             1.00      1 P:z             1
                        (    -162.002 eV)
     9       9      1.333      -0.272 au  S             1.00      2 P:z             1
                        (      -7.400 eV)
    10      10       --         0.147 au  S             1.00      3 P:z             1
                        (       3.990 eV)
    11      11       --         1.258 au  S             1.00      4 P:z             1
                        (      34.238 eV)
    12      12       --        13.236 au  S             1.00      5 P:z             1
                        (     360.181 eV)
    13      13       --         0.479 au  S             1.00      1 D:z2            1
                        (      13.042 eV)
    14      14       --         0.479 au  S             1.00      1 D:x2-y2         1
                        (      13.042 eV)
    15      15       --         1.328 au  S             1.00      1 F:z3            1
                        (      36.128 eV)
    16      16       --         1.328 au  S             1.00      1 F:z             1
                        (      36.128 eV)
    17      17      2.000     -10.347 au  C             0.71      1 S               2
                        (    -281.545 eV)               0.71      1 S               4
    18      18      2.000      -0.564 au  C             0.71      2 S               2
                        (     -15.345 eV)               0.71      2 S               4
    19      19       --         0.402 au  C             0.71      3 S               2
                        (      10.943 eV)               0.71      3 S               4
    20      20       --         5.509 au  C             0.71      4 S               2
                        (     149.900 eV)               0.71      4 S               4
    21      21       --        50.546 au  C             0.71      5 S               2
                        (    1375.418 eV)               0.71      5 S               4
    22      22      0.667      -0.188 au  C             0.71      1 P:x             2
                        (      -5.110 eV)              -0.71      1 P:x             4
    23      23       --         0.191 au  C             0.71      2 P:x             2
                        (       5.204 eV)              -0.71      2 P:x             4
    24      24       --         2.089 au  C             0.71      3 P:x             2
                        (      56.851 eV)              -0.71      3 P:x             4
    25      25      0.667      -0.188 au  C             0.71      1 P:z             2
                        (      -5.110 eV)               0.71      1 P:z             4
    26      26       --         0.191 au  C             0.71      2 P:z             2
                        (       5.204 eV)               0.71      2 P:z             4
    27      27       --         2.089 au  C             0.71      3 P:z             2
                        (      56.851 eV)               0.71      3 P:z             4
    28      28       --         1.292 au  C             0.71      1 D:z2            2
                        (      35.150 eV)               0.71      1 D:z2            4
    29      29       --         1.292 au  C             0.71      1 D:x2-y2         2
                        (      35.150 eV)               0.71      1 D:x2-y2         4
    30      30       --         1.292 au  C             0.71      1 D:xz            2
                        (      35.150 eV)              -0.71      1 D:xz            4
    31      31       --         4.084 au  C             0.71      1 F:z3            2
                        (     111.144 eV)               0.71      1 F:z3            4
    32      32       --         4.084 au  C             0.71      1 F:z             2
                        (     111.144 eV)               0.71      1 F:z             4
    33      33       --         4.084 au  C             0.71      1 F:z2x           2
                        (     111.144 eV)              -0.71      1 F:z2x           4
    34      34       --         4.084 au  C             0.71      1 F:x             2
                        (     111.144 eV)              -0.71      1 F:x             4
    35      35      2.000     -10.347 au  C             0.71      1 S               3
                        (    -281.545 eV)               0.71      1 S               5
    36      36      2.000      -0.564 au  C             0.71      2 S               3
                        (     -15.345 eV)               0.71      2 S               5
    37      37       --         0.402 au  C             0.71      3 S               3
                        (      10.943 eV)               0.71      3 S               5
    38      38       --         5.509 au  C             0.71      4 S               3
                        (     149.900 eV)               0.71      4 S               5
    39      39       --        50.546 au  C             0.71      5 S               3
                        (    1375.418 eV)               0.71      5 S               5
    40      40      0.667      -0.188 au  C             0.71      1 P:x             3
                        (      -5.110 eV)              -0.71      1 P:x             5
    41      41       --         0.191 au  C             0.71      2 P:x             3
                        (       5.204 eV)              -0.71      2 P:x             5
    42      42       --         2.089 au  C             0.71      3 P:x             3
                        (      56.851 eV)              -0.71      3 P:x             5
    43      43      0.667      -0.188 au  C             0.71      1 P:z             3
                        (      -5.110 eV)               0.71      1 P:z             5
    44      44       --         0.191 au  C             0.71      2 P:z             3
                        (       5.204 eV)               0.71      2 P:z             5
    45      45       --         2.089 au  C             0.71      3 P:z             3
                        (      56.851 eV)               0.71      3 P:z             5
    46      46       --         1.292 au  C             0.71      1 D:z2            3
                        (      35.150 eV)               0.71      1 D:z2            5
    47      47       --         1.292 au  C             0.71      1 D:x2-y2         3
                        (      35.150 eV)               0.71      1 D:x2-y2         5
    48      48       --         1.292 au  C             0.71      1 D:xz            3
                        (      35.150 eV)              -0.71      1 D:xz            5
    49      49       --         4.084 au  C             0.71      1 F:z3            3
                        (     111.144 eV)               0.71      1 F:z3            5
    50      50       --         4.084 au  C             0.71      1 F:z             3
                        (     111.144 eV)               0.71      1 F:z             5
    51      51       --         4.084 au  C             0.71      1 F:z2x           3
                        (     111.144 eV)              -0.71      1 F:z2x           5
    52      52       --         4.084 au  C             0.71      1 F:x             3
                        (     111.144 eV)              -0.71      1 F:x             5
    53      53      1.000      -0.244 au  H             0.50      1 S               6
                        (      -6.641 eV)               0.50      1 S               7
                                                        0.50      1 S              10
                                                        0.50      1 S              11
    54      54       --         0.104 au  H             0.50      2 S               6
                        (       2.836 eV)               0.50      2 S               7
                                                        0.50      2 S              10
                                                        0.50      2 S              11
    55      55       --         1.564 au  H             0.50      3 S               6
                        (      42.568 eV)               0.50      3 S               7
                                                        0.50      3 S              10
                                                        0.50      3 S              11
    56      56       --         0.436 au  H             0.50      1 P:x             6
                        (      11.864 eV)               0.50      1 P:x             7
                                                       -0.50      1 P:x            10
                                                       -0.50      1 P:x            11
    57      57       --         0.436 au  H             0.50      1 P:y             6
                        (      11.864 eV)              -0.50      1 P:y             7
                                                       -0.50      1 P:y            10
                                                        0.50      1 P:y            11
    58      58       --         0.436 au  H             0.50      1 P:z             6
                        (      11.864 eV)               0.50      1 P:z             7
                                                        0.50      1 P:z            10
                                                        0.50      1 P:z            11
    59      59       --         2.618 au  H             0.50      1 D:z2            6
                        (      71.229 eV)               0.50      1 D:z2            7
                                                        0.50      1 D:z2           10
                                                        0.50      1 D:z2           11
    60      60       --         2.618 au  H             0.50      1 D:x2-y2         6
                        (      71.229 eV)               0.50      1 D:x2-y2         7
                                                        0.50      1 D:x2-y2        10
                                                        0.50      1 D:x2-y2        11
    61      61       --         2.618 au  H             0.50      1 D:xy            6
                        (      71.229 eV)              -0.50      1 D:xy            7
                                                        0.50      1 D:xy           10
                                                       -0.50      1 D:xy           11
    62      62       --         2.618 au  H             0.50      1 D:xz            6
                        (      71.229 eV)               0.50      1 D:xz            7
                                                       -0.50      1 D:xz           10
                                                       -0.50      1 D:xz           11
    63      63       --         2.618 au  H             0.50      1 D:yz            6
                        (      71.229 eV)              -0.50      1 D:yz            7
                                                       -0.50      1 D:yz           10
                                                        0.50      1 D:yz           11
    64      64      1.000      -0.244 au  H             0.50      1 S               8
                        (      -6.641 eV)               0.50      1 S               9
                                                        0.50      1 S              12
                                                        0.50      1 S              13
    65      65       --         0.104 au  H             0.50      2 S               8
                        (       2.836 eV)               0.50      2 S               9
                                                        0.50      2 S              12
                                                        0.50      2 S              13
    66      66       --         1.564 au  H             0.50      3 S               8
                        (      42.568 eV)               0.50      3 S               9
                                                        0.50      3 S              12
                                                        0.50      3 S              13
    67      67       --         0.436 au  H             0.50      1 P:x             8
                        (      11.864 eV)               0.50      1 P:x             9
                                                       -0.50      1 P:x            12
                                                       -0.50      1 P:x            13
    68      68       --         0.436 au  H             0.50      1 P:y             8
                        (      11.864 eV)              -0.50      1 P:y             9
                                                        0.50      1 P:y            12
                                                       -0.50      1 P:y            13
    69      69       --         0.436 au  H             0.50      1 P:z             8
                        (      11.864 eV)               0.50      1 P:z             9
                                                        0.50      1 P:z            12
                                                        0.50      1 P:z            13
    70      70       --         2.618 au  H             0.50      1 D:z2            8
                        (      71.229 eV)               0.50      1 D:z2            9
                                                        0.50      1 D:z2           12
                                                        0.50      1 D:z2           13
    71      71       --         2.618 au  H             0.50      1 D:x2-y2         8
                        (      71.229 eV)               0.50      1 D:x2-y2         9
                                                        0.50      1 D:x2-y2        12
                                                        0.50      1 D:x2-y2        13
    72      72       --         2.618 au  H             0.50      1 D:xy            8
                        (      71.229 eV)              -0.50      1 D:xy            9
                                                       -0.50      1 D:xy           12
                                                        0.50      1 D:xy           13
    73      73       --         2.618 au  H             0.50      1 D:xz            8
                        (      71.229 eV)               0.50      1 D:xz            9
                                                       -0.50      1 D:xz           12
                                                       -0.50      1 D:xz           13
    74      74       --         2.618 au  H             0.50      1 D:yz            8
                        (      71.229 eV)              -0.50      1 D:yz            9
                                                        0.50      1 D:yz           12
                                                       -0.50      1 D:yz           13
    75      75      2.000    -101.573 au  Cl            0.71      1 S              14
                        (   -2763.950 eV)               0.71      1 S              15
    76      76      2.000      -9.507 au  Cl            0.71      2 S              14
                        (    -258.705 eV)               0.71      2 S              15
    77      77      2.000      -0.826 au  Cl            0.71      3 S              14
                        (     -22.469 eV)               0.71      3 S              15
    78      78       --         0.224 au  Cl            0.71      4 S              14
                        (       6.084 eV)               0.71      4 S              15
    79      79       --         2.073 au  Cl            0.71      5 S              14
                        (      56.416 eV)               0.71      5 S              15
    80      80       --        12.919 au  Cl            0.71      6 S              14
                        (     351.531 eV)               0.71      6 S              15
    81      81       --       215.576 au  Cl            0.71      7 S              14
                        (    5866.129 eV)               0.71      7 S              15
    82      82      2.000      -7.261 au  Cl            0.71      1 P:x            14
                        (    -197.594 eV)              -0.71      1 P:x            15
    83      83      1.667      -0.345 au  Cl            0.71      2 P:x            14
                        (      -9.401 eV)              -0.71      2 P:x            15
    84      84       --         0.251 au  Cl            0.71      3 P:x            14
                        (       6.842 eV)              -0.71      3 P:x            15
    85      85       --         2.178 au  Cl            0.71      4 P:x            14
                        (      59.266 eV)              -0.71      4 P:x            15
    86      86       --        19.086 au  Cl            0.71      5 P:x            14
                        (     519.368 eV)              -0.71      5 P:x            15
    87      87      2.000      -7.261 au  Cl            0.71      1 P:z            14
                        (    -197.594 eV)               0.71      1 P:z            15
    88      88      1.667      -0.345 au  Cl            0.71      2 P:z            14
                        (      -9.401 eV)               0.71      2 P:z            15
    89      89       --         0.251 au  Cl            0.71      3 P:z            14
                        (       6.842 eV)               0.71      3 P:z            15
    90      90       --         2.178 au  Cl            0.71      4 P:z            14
                        (      59.266 eV)               0.71      4 P:z            15
    91      91       --        19.086 au  Cl            0.71      5 P:z            14
                        (     519.368 eV)               0.71      5 P:z            15
    92      92       --         0.433 au  Cl            0.71      1 D:z2           14
                        (      11.776 eV)               0.71      1 D:z2           15
    93      93       --         0.433 au  Cl            0.71      1 D:x2-y2        14
                        (      11.776 eV)               0.71      1 D:x2-y2        15
    94      94       --         0.433 au  Cl            0.71      1 D:xz           14
                        (      11.776 eV)              -0.71      1 D:xz           15
    95      95       --         1.240 au  Cl            0.71      1 F:z3           14
                        (      33.755 eV)               0.71      1 F:z3           15
    96      96       --         1.240 au  Cl            0.71      1 F:z            14
                        (      33.755 eV)               0.71      1 F:z            15
    97      97       --         1.240 au  Cl            0.71      1 F:z2x          14
                        (      33.755 eV)              -0.71      1 F:z2x          15
    98      98       --         1.240 au  Cl            0.71      1 F:x            14
                        (      33.755 eV)              -0.71      1 F:x            15



                                       === A2 ===
 Nr. of SFOs :   50
 Cartesian basis functions that participate in this irrep (total number =   156) :
     24    33    45   105    48   108    51   111    57   117
     54   114    67   127    63   123    60    65   120   125
     75   135    78   138    81   141    87   147    84   144
     97   157    93   153    90    95   150   155   159   171
    207   219   160   172   208   220   161   173   209   221
    164   176   212   224   162   163   174   175   210   211
    222   223   170   182   218   230   167   169   179   181
    215   217   227   229   165   166   168   177   178   180
    213   214   216   225   226   228   183   195   231   243
    184   196   232   244   185   197   233   245   188   200
    236   248   186   187   198   199   234   235   246   247
    194   206   242   254   191   193   203   205   239   241
    251   253   189   190   192   201   202   204   237   238
    240   249   250   252   260   298   263   301   269   307
    272   310   275   313   281   319   278   316   291   329
    287   325   284   289   322   327

    SFO  (index         Fragment          Generating    Expansion in Fragment Orbitals
  indx  incl.CFs)   Occup   Orb.Energy   FragmentType  Coeff.   Orbital     on Fragment
 --------------------------------------------------------------------------------------
     1       1       --         0.479 au  S             1.00      1 D:xy            1
                        (      13.042 eV)
     2       2       --         1.328 au  S             1.00      1 F:xyz           1
                        (      36.128 eV)
     3       3      0.667      -0.188 au  C             0.71      1 P:y             2
                        (      -5.110 eV)              -0.71      1 P:y             4
     4       4       --         0.191 au  C             0.71      2 P:y             2
                        (       5.204 eV)              -0.71      2 P:y             4
     5       5       --         2.089 au  C             0.71      3 P:y             2
                        (      56.851 eV)              -0.71      3 P:y             4
     6       6       --         1.292 au  C             0.71      1 D:xy            2
                        (      35.150 eV)               0.71      1 D:xy            4
     7       7       --         1.292 au  C             0.71      1 D:yz            2
                        (      35.150 eV)              -0.71      1 D:yz            4
     8       8       --         4.084 au  C             0.71      1 F:xyz           2
                        (     111.144 eV)               0.71      1 F:xyz           4
     9       9       --         4.084 au  C             0.71      1 F:z2y           2
                        (     111.144 eV)              -0.71      1 F:z2y           4
    10      10       --         4.084 au  C             0.71      1 F:y             2
                        (     111.144 eV)              -0.71      1 F:y             4
    11      11      0.667      -0.188 au  C             0.71      1 P:y             3
                        (      -5.110 eV)              -0.71      1 P:y             5
    12      12       --         0.191 au  C             0.71      2 P:y             3
                        (       5.204 eV)              -0.71      2 P:y             5
    13      13       --         2.089 au  C             0.71      3 P:y             3
                        (      56.851 eV)              -0.71      3 P:y             5
    14      14       --         1.292 au  C             0.71      1 D:xy            3
                        (      35.150 eV)               0.71      1 D:xy            5
    15      15       --         1.292 au  C             0.71      1 D:yz            3
                        (      35.150 eV)              -0.71      1 D:yz            5
    16      16       --         4.084 au  C             0.71      1 F:xyz           3
                        (     111.144 eV)               0.71      1 F:xyz           5
    17      17       --         4.084 au  C             0.71      1 F:z2y           3
                        (     111.144 eV)              -0.71      1 F:z2y           5
    18      18       --         4.084 au  C             0.71      1 F:y             3
                        (     111.144 eV)              -0.71      1 F:y             5
    19      19      1.000      -0.244 au  H             0.50      1 S               6
                        (      -6.641 eV)              -0.50      1 S               7
                                                        0.50      1 S              10
                                                       -0.50      1 S              11
    20      20       --         0.104 au  H             0.50      2 S               6
                        (       2.836 eV)              -0.50      2 S               7
                                                        0.50      2 S              10
                                                       -0.50      2 S              11
    21      21       --         1.564 au  H             0.50      3 S               6
                        (      42.568 eV)              -0.50      3 S               7
                                                        0.50      3 S              10
                                                       -0.50      3 S              11
    22      22       --         0.436 au  H             0.50      1 P:x             6
                        (      11.864 eV)              -0.50      1 P:x             7
                                                       -0.50      1 P:x            10
                                                        0.50      1 P:x            11
    23      23       --         0.436 au  H             0.50      1 P:y             6
                        (      11.864 eV)               0.50      1 P:y             7
                                                       -0.50      1 P:y            10
                                                       -0.50      1 P:y            11
    24      24       --         0.436 au  H             0.50      1 P:z             6
                        (      11.864 eV)              -0.50      1 P:z             7
                                                        0.50      1 P:z            10
                                                       -0.50      1 P:z            11
    25      25       --         2.618 au  H             0.50      1 D:z2            6
                        (      71.229 eV)              -0.50      1 D:z2            7
                                                        0.50      1 D:z2           10
                                                       -0.50      1 D:z2           11
    26      26       --         2.618 au  H             0.50      1 D:x2-y2         6
                        (      71.229 eV)              -0.50      1 D:x2-y2         7
                                                        0.50      1 D:x2-y2        10
                                                       -0.50      1 D:x2-y2        11
    27      27       --         2.618 au  H             0.50      1 D:xy            6
                        (      71.229 eV)               0.50      1 D:xy            7
                                                        0.50      1 D:xy           10
                                                        0.50      1 D:xy           11
    28      28       --         2.618 au  H             0.50      1 D:xz            6
                        (      71.229 eV)              -0.50      1 D:xz            7
                                                       -0.50      1 D:xz           10
                                                        0.50      1 D:xz           11
    29      29       --         2.618 au  H             0.50      1 D:yz            6
                        (      71.229 eV)               0.50      1 D:yz            7
                                                       -0.50      1 D:yz           10
                                                       -0.50      1 D:yz           11
    30      30      1.000      -0.244 au  H             0.50      1 S               8
                        (      -6.641 eV)              -0.50      1 S               9
                                                       -0.50      1 S              12
                                                        0.50      1 S              13
    31      31       --         0.104 au  H             0.50      2 S               8
                        (       2.836 eV)              -0.50      2 S               9
                                                       -0.50      2 S              12
                                                        0.50      2 S              13
    32      32       --         1.564 au  H             0.50      3 S               8
                        (      42.568 eV)              -0.50      3 S               9
                                                       -0.50      3 S              12
                                                        0.50      3 S              13
    33      33       --         0.436 au  H             0.50      1 P:x             8
                        (      11.864 eV)              -0.50      1 P:x             9
                                                        0.50      1 P:x            12
                                                       -0.50      1 P:x            13
    34      34       --         0.436 au  H             0.50      1 P:y             8
                        (      11.864 eV)               0.50      1 P:y             9
                                                       -0.50      1 P:y            12
                                                       -0.50      1 P:y            13
    35      35       --         0.436 au  H             0.50      1 P:z             8
                        (      11.864 eV)              -0.50      1 P:z             9
                                                       -0.50      1 P:z            12
                                                        0.50      1 P:z            13
    36      36       --         2.618 au  H             0.50      1 D:z2            8
                        (      71.229 eV)              -0.50      1 D:z2            9
                                                       -0.50      1 D:z2           12
                                                        0.50      1 D:z2           13
    37      37       --         2.618 au  H             0.50      1 D:x2-y2         8
                        (      71.229 eV)              -0.50      1 D:x2-y2         9
                                                       -0.50      1 D:x2-y2        12
                                                        0.50      1 D:x2-y2        13
    38      38       --         2.618 au  H             0.50      1 D:xy            8
                        (      71.229 eV)               0.50      1 D:xy            9
                                                        0.50      1 D:xy           12
                                                        0.50      1 D:xy           13
    39      39       --         2.618 au  H             0.50      1 D:xz            8
                        (      71.229 eV)              -0.50      1 D:xz            9
                                                        0.50      1 D:xz           12
                                                       -0.50      1 D:xz           13
    40      40       --         2.618 au  H             0.50      1 D:yz            8
                        (      71.229 eV)               0.50      1 D:yz            9
                                                       -0.50      1 D:yz           12
                                                       -0.50      1 D:yz           13
    41      41      2.000      -7.261 au  Cl            0.71      1 P:y            14
                        (    -197.594 eV)              -0.71      1 P:y            15
    42      42      1.667      -0.345 au  Cl            0.71      2 P:y            14
                        (      -9.401 eV)              -0.71      2 P:y            15
    43      43       --         0.251 au  Cl            0.71      3 P:y            14
                        (       6.842 eV)              -0.71      3 P:y            15
    44      44       --         2.178 au  Cl            0.71      4 P:y            14
                        (      59.266 eV)              -0.71      4 P:y            15
    45      45       --        19.086 au  Cl            0.71      5 P:y            14
                        (     519.368 eV)              -0.71      5 P:y            15
    46      46       --         0.433 au  Cl            0.71      1 D:xy           14
                        (      11.776 eV)               0.71      1 D:xy           15
    47      47       --         0.433 au  Cl            0.71      1 D:yz           14
                        (      11.776 eV)              -0.71      1 D:yz           15
    48      48       --         1.240 au  Cl            0.71      1 F:xyz          14
                        (      33.755 eV)               0.71      1 F:xyz          15
    49      49       --         1.240 au  Cl            0.71      1 F:z2y          14
                        (      33.755 eV)              -0.71      1 F:z2y          15
    50      50       --         1.240 au  Cl            0.71      1 F:y            14
                        (      33.755 eV)              -0.71      1 F:y            15



                                       === B1 ===
 Nr. of SFOs :   90
 Cartesian basis functions that participate in this irrep (total number =   243) :
      5     8    14    17    20    25    34    29    32    39
     99    40   100    41   101    42   102    43   103    46
    106    49   109    52   112    44   104    47   107    50
    110    58   118    55   115    53    56   113   116    68
    128    64   124    61    66   121   126    59    62   119
    122    69   129    70   130    71   131    72   132    73
    133    76   136    79   139    82   142    74   134    77
    137    80   140    88   148    85   145    83    86   143
    146    98   158    94   154    91    96   151   156    89
     92   149   152   159   171   207   219   160   172   208
    220   161   173   209   221   164   176   212   224   162
    163   174   175   210   211   222   223   170   182   218
    230   167   169   179   181   215   217   227   229   165
    166   168   177   178   180   213   214   216   225   226
    228   183   195   231   243   184   196   232   244   185
    197   233   245   188   200   236   248   186   187   198
    199   234   235   246   247   194   206   242   254   191
    193   203   205   239   241   251   253   189   190   192
    201   202   204   237   238   240   249   250   252   255
    293   256   294   257   295   258   296   265   303   266
    304   267   305   261   299   264   302   270   308   273
    311   276   314   259   297   262   300   268   306   271
    309   274   312   282   320   279   317   277   280   315
    318   292   330   288   326   285   290   323   328   283
    286   321   324

    SFO  (index         Fragment          Generating    Expansion in Fragment Orbitals
  indx  incl.CFs)   Occup   Orb.Energy   FragmentType  Coeff.   Orbital     on Fragment
 --------------------------------------------------------------------------------------
     1       1      2.000      -5.953 au  S             1.00      1 P:x             1
                        (    -162.002 eV)
     2       2      1.333      -0.272 au  S             1.00      2 P:x             1
                        (      -7.400 eV)
     3       3       --         0.147 au  S             1.00      3 P:x             1
                        (       3.990 eV)
     4       4       --         1.258 au  S             1.00      4 P:x             1
                        (      34.238 eV)
     5       5       --        13.236 au  S             1.00      5 P:x             1
                        (     360.181 eV)
     6       6       --         0.479 au  S             1.00      1 D:xz            1
                        (      13.042 eV)
     7       7       --         1.328 au  S             1.00      1 F:z2x           1
                        (      36.128 eV)
     8       8       --         1.328 au  S             1.00      1 F:x             1
                        (      36.128 eV)
     9       9      2.000     -10.347 au  C             0.71      1 S               2
                        (    -281.545 eV)              -0.71      1 S               4
    10      10      2.000      -0.564 au  C             0.71      2 S               2
                        (     -15.345 eV)              -0.71      2 S               4
    11      11       --         0.402 au  C             0.71      3 S               2
                        (      10.943 eV)              -0.71      3 S               4
    12      12       --         5.509 au  C             0.71      4 S               2
                        (     149.900 eV)              -0.71      4 S               4
    13      13       --        50.546 au  C             0.71      5 S               2
                        (    1375.418 eV)              -0.71      5 S               4
    14      14      0.667      -0.188 au  C             0.71      1 P:x             2
                        (      -5.110 eV)               0.71      1 P:x             4
    15      15       --         0.191 au  C             0.71      2 P:x             2
                        (       5.204 eV)               0.71      2 P:x             4
    16      16       --         2.089 au  C             0.71      3 P:x             2
                        (      56.851 eV)               0.71      3 P:x             4
    17      17      0.667      -0.188 au  C             0.71      1 P:z             2
                        (      -5.110 eV)              -0.71      1 P:z             4
    18      18       --         0.191 au  C             0.71      2 P:z             2
                        (       5.204 eV)              -0.71      2 P:z             4
    19      19       --         2.089 au  C             0.71      3 P:z             2
                        (      56.851 eV)              -0.71      3 P:z             4
    20      20       --         1.292 au  C             0.71      1 D:z2            2
                        (      35.150 eV)              -0.71      1 D:z2            4
    21      21       --         1.292 au  C             0.71      1 D:x2-y2         2
                        (      35.150 eV)              -0.71      1 D:x2-y2         4
    22      22       --         1.292 au  C             0.71      1 D:xz            2
                        (      35.150 eV)               0.71      1 D:xz            4
    23      23       --         4.084 au  C             0.71      1 F:z3            2
                        (     111.144 eV)              -0.71      1 F:z3            4
    24      24       --         4.084 au  C             0.71      1 F:z             2
                        (     111.144 eV)              -0.71      1 F:z             4
    25      25       --         4.084 au  C             0.71      1 F:z2x           2
                        (     111.144 eV)               0.71      1 F:z2x           4
    26      26       --         4.084 au  C             0.71      1 F:x             2
                        (     111.144 eV)               0.71      1 F:x             4
    27      27      2.000     -10.347 au  C             0.71      1 S               3
                        (    -281.545 eV)              -0.71      1 S               5
    28      28      2.000      -0.564 au  C             0.71      2 S               3
                        (     -15.345 eV)              -0.71      2 S               5
    29      29       --         0.402 au  C             0.71      3 S               3
                        (      10.943 eV)              -0.71      3 S               5
    30      30       --         5.509 au  C             0.71      4 S               3
                        (     149.900 eV)              -0.71      4 S               5
    31      31       --        50.546 au  C             0.71      5 S               3
                        (    1375.418 eV)              -0.71      5 S               5
    32      32      0.667      -0.188 au  C             0.71      1 P:x             3
                        (      -5.110 eV)               0.71      1 P:x             5
    33      33       --         0.191 au  C             0.71      2 P:x             3
                        (       5.204 eV)               0.71      2 P:x             5
    34      34       --         2.089 au  C             0.71      3 P:x             3
                        (      56.851 eV)               0.71      3 P:x             5
    35      35      0.667      -0.188 au  C             0.71      1 P:z             3
                        (      -5.110 eV)              -0.71      1 P:z             5
    36      36       --         0.191 au  C             0.71      2 P:z             3
                        (       5.204 eV)              -0.71      2 P:z             5
    37      37       --         2.089 au  C             0.71      3 P:z             3
                        (      56.851 eV)              -0.71      3 P:z             5
    38      38       --         1.292 au  C             0.71      1 D:z2            3
                        (      35.150 eV)              -0.71      1 D:z2            5
    39      39       --         1.292 au  C             0.71      1 D:x2-y2         3
                        (      35.150 eV)              -0.71      1 D:x2-y2         5
    40      40       --         1.292 au  C             0.71      1 D:xz            3
                        (      35.150 eV)               0.71      1 D:xz            5
    41      41       --         4.084 au  C             0.71      1 F:z3            3
                        (     111.144 eV)              -0.71      1 F:z3            5
    42      42       --         4.084 au  C             0.71      1 F:z             3
                        (     111.144 eV)              -0.71      1 F:z             5
    43      43       --         4.084 au  C             0.71      1 F:z2x           3
                        (     111.144 eV)               0.71      1 F:z2x           5
    44      44       --         4.084 au  C             0.71      1 F:x             3
                        (     111.144 eV)               0.71      1 F:x             5
    45      45      1.000      -0.244 au  H             0.50      1 S               6
                        (      -6.641 eV)               0.50      1 S               7
                                                       -0.50      1 S              10
                                                       -0.50      1 S              11
    46      46       --         0.104 au  H             0.50      2 S               6
                        (       2.836 eV)               0.50      2 S               7
                                                       -0.50      2 S              10
                                                       -0.50      2 S              11
    47      47       --         1.564 au  H             0.50      3 S               6
                        (      42.568 eV)               0.50      3 S               7
                                                       -0.50      3 S              10
                                                       -0.50      3 S              11
    48      48       --         0.436 au  H             0.50      1 P:x             6
                        (      11.864 eV)               0.50      1 P:x             7
                                                        0.50      1 P:x            10
                                                        0.50      1 P:x            11
    49      49       --         0.436 au  H             0.50      1 P:y             6
                        (      11.864 eV)              -0.50      1 P:y             7
                                                        0.50      1 P:y            10
                                                       -0.50      1 P:y            11
    50      50       --         0.436 au  H             0.50      1 P:z             6
                        (      11.864 eV)               0.50      1 P:z             7
                                                       -0.50      1 P:z            10
                                                       -0.50      1 P:z            11
[...]
                               0.668    -0.173    -0.724
                               0.717    -0.113     0.688
                        -----------------------------------
 
================================================================================
 
 
===  TOTAL NMR SHIELDING TENSOR (ppm)
 
                        ***********************************
                        CARTESIAN AXIS REPRESENTATION

                        ==== total shielding tensor
                        -----------------------------------
                              29.845    -0.894    -1.779
                              -0.894    25.873    -5.055
                              -1.779    -5.055    28.577
                        -----------------------------------
                                  isotropic =     28.098

                        ***********************************
                        -----------------------------------
                        PRINCIPAL AXIS REPRESENTATION

                        ==== Principal components:

                              21.599    29.950    32.747
 
                        ==== Principal Axis System:

                              -0.214     0.924    -0.316
                              -0.764    -0.360    -0.535
                              -0.608     0.127     0.784
                        -----------------------------------
################################################################################
********************************************************************************
****  N U C L E U S : H(13)
 
 ADF-GUI atom: H(13)
 Internal NMR numbering of atoms: H(13)
 
 
================================================================================
 
 
===  PARAMAGNETIC NMR SHIELDING TENSORS (ppm)
 
    ===     paramagnetic b^(1) tensor       ===     paramagnetic u^(1) tensor
    -----------------------------------     -----------------------------------
           0.000     0.000     0.000               4.510   -14.205   -10.410
           0.000     0.000     0.000             -14.205     3.068   -10.228
           0.000     0.000     0.000             -10.410   -10.228     1.414
    -----------------------------------     -----------------------------------
              isotropic =      0.000                  isotropic =      2.998

    ===     paramagnetic s^(1) tensor       ===     paramagnetic gauge tensor
    -----------------------------------     -----------------------------------
          -3.141    14.952     9.907              -0.352    -0.414    -0.231
          14.952    -4.836     9.611              -0.414    -2.093    -0.229
           9.907     9.611    -1.910              -0.231    -0.229     0.057
    -----------------------------------     -----------------------------------
              isotropic =     -3.296                  isotropic =     -0.796

                        ***********************************
                        CARTESIAN AXIS REPRESENTATION

                        ==== total paramagnetic tensor
                        -----------------------------------
                               1.018     0.333    -0.735
                               0.333    -3.860    -0.845
                              -0.735    -0.845    -0.439
                        -----------------------------------
                                  isotropic =     -1.094

                        ***********************************
                        -----------------------------------
                        PRINCIPAL AXIS REPRESENTATION

                        ==== Principal components:

                              -4.063    -0.622     1.403
 
                        ==== Principal Axis System:

                               0.032     0.433    -0.901
                              -0.975    -0.186    -0.124
                              -0.221     0.882     0.416
                        -----------------------------------
 
================================================================================
 
 
===  DIAMAGNETIC NMR SHIELDING TENSORS (ppm)
 
    ===       diamagnetic core tensor       ===    diamagnetic valence tensor
    -----------------------------------     -----------------------------------
           0.000     0.000     0.000              28.828     0.561    -1.044
           0.000     0.000     0.000               0.561    29.734     5.900
           0.000     0.000     0.000              -1.044     5.900    29.016
    -----------------------------------     -----------------------------------
              isotropic =      0.000                  isotropic =     29.192

                        ***********************************
                        CARTESIAN AXIS REPRESENTATION

                        ==== total diamagnetic tensor
                        -----------------------------------
                              28.828     0.561    -1.044
                               0.561    29.734     5.900
                              -1.044     5.900    29.016
                        -----------------------------------
                                  isotropic =     29.192

                        ***********************************
                        -----------------------------------
                        PRINCIPAL AXIS REPRESENTATION

                        ==== Principal components:

                              23.230    29.047    35.300
 
                        ==== Principal Axis System:

                               0.201     0.978     0.048
                              -0.668     0.173    -0.724
                               0.717    -0.113    -0.688
                        -----------------------------------
 
================================================================================
 
 
===  TOTAL NMR SHIELDING TENSOR (ppm)
 
                        ***********************************
                        CARTESIAN AXIS REPRESENTATION

                        ==== total shielding tensor
                        -----------------------------------
                              29.845     0.894    -1.779
                               0.894    25.873     5.054
                              -1.779     5.054    28.577
                        -----------------------------------
                                  isotropic =     28.099

                        ***********************************
                        -----------------------------------
                        PRINCIPAL AXIS REPRESENTATION

                        ==== Principal components:

                              21.600    29.950    32.746
 
                        ==== Principal Axis System:

                               0.214     0.924    -0.316
                              -0.764     0.360     0.535
                               0.608     0.127     0.784
                        -----------------------------------
################################################################################
********************************************************************************
****  N U C L E U S : Cl(14)
 
 ADF-GUI atom: Cl(14)
 Internal NMR numbering of atoms: Cl(14)
 
 
================================================================================
 
 
===  PARAMAGNETIC NMR SHIELDING TENSORS (ppm)
 
    ===     paramagnetic b^(1) tensor       ===     paramagnetic u^(1) tensor
    -----------------------------------     -----------------------------------
           0.000     0.000     0.000            -220.851    -0.226   292.589
           0.000     0.000     0.000              -0.226  -592.525     0.234
           0.000     0.000     0.000             292.589     0.234  -310.027
    -----------------------------------     -----------------------------------
              isotropic =      0.000                  isotropic =   -374.468

    ===     paramagnetic s^(1) tensor       ===     paramagnetic gauge tensor
    -----------------------------------     -----------------------------------
          57.117    -0.000  -131.919              -0.685     0.000     1.178
          -0.000    63.875     0.000               0.000    -2.840    -0.000
        -131.919     0.000     0.130               1.178    -0.000    -3.079
    -----------------------------------     -----------------------------------
              isotropic =     40.374                  isotropic =     -2.201

                        ***********************************
                        CARTESIAN AXIS REPRESENTATION

                        ==== total paramagnetic tensor
                        -----------------------------------
                            -164.419    -0.226   161.848
                              -0.226  -531.490     0.234
                             161.848     0.234  -312.976
                        -----------------------------------
                                  isotropic =   -336.295

                        ***********************************
                        -----------------------------------
                        PRINCIPAL AXIS REPRESENTATION

                        ==== Principal components:

                            -531.491  -416.775   -60.619
 
                        ==== Principal Axis System:

                              -0.002    -0.540    -0.842
                              -1.000     0.003     0.000
                               0.002     0.842    -0.540
                        -----------------------------------
 
================================================================================
 
 
===  DIAMAGNETIC NMR SHIELDING TENSORS (ppm)
 
    ===       diamagnetic core tensor       ===    diamagnetic valence tensor
    -----------------------------------     -----------------------------------
           0.000     0.000     0.000            1149.864     0.000     4.641
           0.000     0.000     0.000               0.000  1142.401    -0.000
           0.000     0.000     0.000               4.641    -0.000  1146.076
    -----------------------------------     -----------------------------------
              isotropic =      0.000                  isotropic =   1146.114

                        ***********************************
                        CARTESIAN AXIS REPRESENTATION

                        ==== total diamagnetic tensor
                        -----------------------------------
                            1149.864     0.000     4.641
                               0.000  1142.401    -0.000
                               4.641    -0.000  1146.076
                        -----------------------------------
                                  isotropic =   1146.114

                        ***********************************
                        -----------------------------------
                        PRINCIPAL AXIS REPRESENTATION

                        ==== Principal components:

                            1142.401  1142.958  1152.983
 
                        ==== Principal Axis System:

                              -0.000    -0.558     0.830
                               1.000    -0.000    -0.000
                               0.000     0.830     0.558
                        -----------------------------------
 
================================================================================
 
 
===  TOTAL NMR SHIELDING TENSOR (ppm)
 
                        ***********************************
                        CARTESIAN AXIS REPRESENTATION

                        ==== total shielding tensor
                        -----------------------------------
                             985.445    -0.226   166.489
                              -0.226   610.911     0.234
                             166.489     0.234   833.101
                        -----------------------------------
                                  isotropic =    809.819

                        ***********************************
                        -----------------------------------
                        PRINCIPAL AXIS REPRESENTATION

                        ==== Principal components:

                             610.910   726.187  1092.360
 
                        ==== Principal Axis System:

                              -0.002    -0.540    -0.841
                              -1.000     0.003     0.000
                               0.002     0.841    -0.540
                        -----------------------------------
################################################################################
********************************************************************************
****  N U C L E U S : Cl(15)
 
 ADF-GUI atom: Cl(15)
 Internal NMR numbering of atoms: Cl(15)
 
 
================================================================================
 
 
===  PARAMAGNETIC NMR SHIELDING TENSORS (ppm)
 
    ===     paramagnetic b^(1) tensor       ===     paramagnetic u^(1) tensor
    -----------------------------------     -----------------------------------
           0.000     0.000     0.000            -220.693     0.000  -292.837
           0.000     0.000     0.000               0.000  -592.955    -0.000
           0.000     0.000     0.000            -292.837    -0.000  -310.489
    -----------------------------------     -----------------------------------
              isotropic =      0.000                  isotropic =   -374.712

    ===     paramagnetic s^(1) tensor       ===     paramagnetic gauge tensor
    -----------------------------------     -----------------------------------
          57.117    -0.000   131.919              -0.685     0.000    -1.178
          -0.000    63.875    -0.000               0.000    -2.840     0.000
         131.919    -0.000     0.130              -1.178     0.000    -3.079
    -----------------------------------     -----------------------------------
              isotropic =     40.374                  isotropic =     -2.201

                        ***********************************
                        CARTESIAN AXIS REPRESENTATION

                        ==== total paramagnetic tensor
                        -----------------------------------
                            -164.261     0.000  -162.096
                               0.000  -531.920    -0.000
                            -162.096    -0.000  -313.437
                        -----------------------------------
                                  isotropic =   -336.539

                        ***********************************
                        -----------------------------------
                        PRINCIPAL AXIS REPRESENTATION

                        ==== Principal components:

                            -531.920  -417.283   -60.415
 
                        ==== Principal Axis System:

                               0.000     0.539    -0.842
                              -1.000    -0.000    -0.000
                              -0.000     0.842     0.539
                        -----------------------------------
 
================================================================================
 
 
===  DIAMAGNETIC NMR SHIELDING TENSORS (ppm)
 
    ===       diamagnetic core tensor       ===    diamagnetic valence tensor
    -----------------------------------     -----------------------------------
           0.000     0.000     0.000            1149.864    -0.000    -4.641
           0.000     0.000     0.000              -0.000  1142.401     0.000
           0.000     0.000     0.000              -4.641     0.000  1146.076
    -----------------------------------     -----------------------------------
              isotropic =      0.000                  isotropic =   1146.114

                        ***********************************
                        CARTESIAN AXIS REPRESENTATION

                        ==== total diamagnetic tensor
                        -----------------------------------
                            1149.864    -0.000    -4.641
                              -0.000  1142.401     0.000
                              -4.641     0.000  1146.076
                        -----------------------------------
                                  isotropic =   1146.114

                        ***********************************
                        -----------------------------------
                        PRINCIPAL AXIS REPRESENTATION

                        ==== Principal components:

                            1142.401  1142.958  1152.983
 
                        ==== Principal Axis System:

                              -0.000     0.558     0.830
                               1.000     0.000    -0.000
                              -0.000     0.830    -0.558
                        -----------------------------------
 
================================================================================
 
 
===  TOTAL NMR SHIELDING TENSOR (ppm)
 
                        ***********************************
                        CARTESIAN AXIS REPRESENTATION

                        ==== total shielding tensor
                        -----------------------------------
                             985.603     0.000  -166.737
                               0.000   610.480    -0.000
                            -166.737    -0.000   832.639
                        -----------------------------------
                                  isotropic =    809.574

                        ***********************************
                        -----------------------------------
                        PRINCIPAL AXIS REPRESENTATION

                        ==== Principal components:

                             610.480   725.680  1092.563
 
                        ==== Principal Axis System:

                               0.000     0.540    -0.842
                              -1.000    -0.000    -0.000
                              -0.000     0.842     0.540
                        -----------------------------------
 *******************************************************************************

                             N M R   E X I T
 NORMAL TERMINATION



 =================
 Timing Statistics
 =================
  
 Total Used :                     CPU=      174.59      System=        4.21     Elapsed=      366.66

 Calls  Section                     ( Mean, Percentage )
 ---------------------------------------------------------------------------------------------------
     3  ><      ................      0.00    0.00             0.00    0.01             0.00    0.00
     1  INIT    ................      2.05    1.17             0.25    6.02             4.68    1.28
     1  RDEIGX  ................     46.13   26.42             0.60   14.25            95.76   26.12
     1  AOF1K   ................      2.56    1.47             0.01    0.21             5.24    1.43
    15  AOPKK   ................      4.66   40.03             0.20   72.59             9.97   40.80
    15  XSIGP   ................      0.10    0.82             0.01    3.70             0.22    0.89
    15  AODKKK  ................      3.48   29.90             0.01    2.17             7.16   29.28
    15  XDV     ................      0.02    0.18             0.00    0.79             0.05    0.19
    15  XSIGD   ................      0.00    0.00             0.00    0.00             0.00    0.00
     1  EXIT PROCEDURE .........      0.00    0.00             0.01    0.26             0.02    0.01


 Currently Open Files (EXIT00)
 ====================

 Unit    Access Format  Status   Type       Ident (file)
 -------------------------------------------------------
   3      SEQ    FORM   TRANSP  NORMAL      LOGFILE
                                          ( /home/milias/Work/projects/open-collection/theoretical_chemistry/projects/nmr_diplomovky/HD/ams/b3lyp_tz2p_good/cosmo-benzene/HD.geopt_freq_nmr_shield_b3lyp_tz2p_good_cosmo-benzene.logfile )
