

 Parallel Execution: Process Information
 ==============================================================================
 Rank   Node Name                              NodeID   MyNodeRank  NodeMaster
    0   ubuntu-kch                                0          0          0
    1   ubuntu-kch                                0          1         -1
    2   ubuntu-kch                                0          2         -1
    3   ubuntu-kch                                0          3         -1
 ==============================================================================


May use up to 7570MB of RAM as shared memory on node 0

 *******************************************************************************
 *                                                                             *
 *  --------------------------------                                           *
 *   Amsterdam Modeling Suite (AMS)              2019.405                      *
 *  --------------------------------                                           *
 *                                               r87318 2020-08-31             *
 *                                                                             *
 *                                                                             *
 *                              =================                              *
 *                              |               |                              *
 *                              |     A M S     |                              *
 *                              |               |                              *
 *                              =================                              *
 *                                                                             *
 *                                                                             *
 *   Online information and documentation:  https://www.scm.com/support/       *
 *   E-mail:  support@scm.com   info@scm.com                                   *
 *                                                                             *
 *   Scientific publications using AMS results must be properly referenced     *
 *   See the User Manuals (or the web site) for recommended citations          *
 *   The terms and conditions of the End User License Agreement apply to       *
 *   the use of AMS, https://www.scm.com/license-terms/                        *
 *                                                                             *
 **********************  x86_64_linux_intel / intelmpi  ************************
 
 Licensed to: Dr. Miroslav Ilias / Matej Bel University, Department Chemistry, Fac. Natural Sciences / Banska Bystrica / SLOVAKIA
 SCM User ID: u17848
  
 AMS 2019.405  RunTime: Dec09-2020 19:42:03  Nodes: 1  Procs: 4

 AMS jobname: ams
 AMS jobid  : 1774640407

 Start   directory: /home/milias/work/projects/open-collection/theoretical_chemistry/projects/nmr_diplomovky/reference_compounds/trimethylsilane/ams/nmr_shieldings/tmp.milias.9586.0.noindex/
 Results directory: /home/milias/work/projects/open-collection/theoretical_chemistry/projects/nmr_diplomovky/reference_compounds/trimethylsilane/ams/nmr_shieldings/trimethyl-silane.nmrshield_b3lyp_tzp_sc.results/
 Scratch directory: /tmp/amstmp_ams_kid0.1774640407/


 Communication costs MPI_COMM_WORLD:      0.259 usec per message,   0.0033 usec per 8-byte item
 Communication costs for intra-node:      0.263 usec per message,   0.0033 usec per 8-byte item

 RNG seed: -74671011 7543351 557469056 475263849 -1563667944 -1861476101 1881577945 -396770980



                        ********************************************************************
                        *  ADF 2019.405  RunTime: Dec09-2020 19:42:04  Nodes: 1  Procs: 4  *
                        ********************************************************************
  
       ****************************
       * SINGLE POINT CALCULATION *
       ****************************
 
--------
Geometry
--------
Atoms
  Index Symbol   x (angstrom)   y (angstrom)   z (angstrom)
      1     Si     0.00000000     0.00000000    -0.55255997
      2      C     1.79837686     0.00000000     0.07155236
      3      C    -0.89918843     1.55744005     0.07155236
      4      C    -0.89918843    -1.55744005     0.07155236
      5      H     0.00000000     0.00000000    -2.03255997
      6      H     2.34606102    -0.89291868    -0.28081082
      7      H     2.34606102     0.89291868    -0.28081082
      8      H     1.82935808     0.00000000     1.17729075
      9      H    -0.39974025     2.47820778    -0.28081082
     10      H    -1.94632077     1.58528910    -0.28081082
     11      H    -0.91467904     1.58427057     1.17729075
     12      H    -1.94632077    -1.58528910    -0.28081082
     13      H    -0.39974025    -2.47820778    -0.28081082
     14      H    -0.91467904    -1.58427057     1.17729075
 
Total System Charge             0.00000
Bonding info available!
 
 
----------------
ADF Engine Input
----------------
 
 Basis
 Type TZP
 Core Small
 End
 Save TAPE10
 XC
 GGA BLYP
 End
 Relativity
 Level None
 End
 

 Title: *** (NO TITLE) ***

 *** (NO TITLE) ***



 ===========================
 A T T A C H E D   F I L E S
 ===========================
  



 ===============================
 M O D E L   P A R A M E T E R S
 ===============================
  
 DENSITY FUNCTIONAL POTENTIAL (scf)
    LDA:                               Exchange only                           == Not Default ==
    Gradient Corrections:              Becke88 LYP                             == Not Default ==

 SPIN  (restricted / unrestr.)
    Molecule:                          Restricted                               
    Fragments:                         Restricted                               

 OTHER ASPECTS
    Relativistic Corrections:          ---                                      

    Nuclear Charge Density Model:      Point Charge Nuclei                      
    Core Treatment:                    Frozen Orbital(s)                        

    Hyperfine or Zeeman Interaction:   ---                                      


 Fragment File(s)
 ----------------
 Si:
         file : /home/milias/work/projects/open-collection/theoretical_chemistry/projects/nmr_diplomovky/reference_compounds/trimethylsilane/ams/nmr_shieldings/trimethyl-silane.nmrshield_b3lyp_tzp_sc.results/t21.C38E43F.Si
         jobid: 0
         title: Silicon (TZP, 1s frozen)
 C:
         file : /home/milias/work/projects/open-collection/theoretical_chemistry/projects/nmr_diplomovky/reference_compounds/trimethylsilane/ams/nmr_shieldings/trimethyl-silane.nmrshield_b3lyp_tzp_sc.results/t21.440E6220.C
         jobid: 0
         title: Carbon (TZP, 1s frozen)
 H:
         file : /home/milias/work/projects/open-collection/theoretical_chemistry/projects/nmr_diplomovky/reference_compounds/trimethylsilane/ams/nmr_shieldings/trimethyl-silane.nmrshield_b3lyp_tzp_sc.results/t21.21D752B2.H
         jobid: 0
         title: Hydrogen (TZP)



 ===============
 G E O M E T R Y  ***  3D  Molecule  ***
 ===============
  

 ATOMS
 =====                            X Y Z                    CHARGE
                                (Angstrom)             Nucl     +Core       At.Mass
                       --------------------------    ----------------       -------
    1  Si              0.0000    0.0000   -0.5526     14.00     12.00       27.9769
    2  C               1.7984    0.0000    0.0716      6.00      4.00       12.0000
    3  C              -0.8992    1.5574    0.0716      6.00      4.00       12.0000
    4  C              -0.8992   -1.5574    0.0716      6.00      4.00       12.0000
    5  H               0.0000    0.0000   -2.0326      1.00      1.00        1.0078
    6  H               2.3461   -0.8929   -0.2808      1.00      1.00        1.0078
    7  H               2.3461    0.8929   -0.2808      1.00      1.00        1.0078
    8  H               1.8294    0.0000    1.1773      1.00      1.00        1.0078
    9  H              -0.3997    2.4782   -0.2808      1.00      1.00        1.0078
   10  H              -1.9463    1.5853   -0.2808      1.00      1.00        1.0078
   11  H              -0.9147    1.5843    1.1773      1.00      1.00        1.0078
   12  H              -1.9463   -1.5853   -0.2808      1.00      1.00        1.0078
   13  H              -0.3997   -2.4782   -0.2808      1.00      1.00        1.0078
   14  H              -0.9147   -1.5843    1.1773      1.00      1.00        1.0078


 FRAGMENTS
 =========                                     Atoms in this Fragment     Cart. coord.s (Angstrom)
                                               -------------------------------------------------------
    1  Si                                                1  Si           0.0000    0.0000   -0.5526
    2  C                                                 2  C            1.7984    0.0000    0.0716
    3  C                                                 3  C           -0.8992    1.5574    0.0716
    4  C                                                 4  C           -0.8992   -1.5574    0.0716
    5  H                                                 5  H            0.0000    0.0000   -2.0326
    6  H                                                 6  H            2.3461   -0.8929   -0.2808
    7  H                                                 7  H            2.3461    0.8929   -0.2808
    8  H                                                 8  H            1.8294    0.0000    1.1773
    9  H                                                 9  H           -0.3997    2.4782   -0.2808
   10  H                                                10  H           -1.9463    1.5853   -0.2808
   11  H                                                11  H           -0.9147    1.5843    1.1773
   12  H                                                12  H           -1.9463   -1.5853   -0.2808
   13  H                                                13  H           -0.3997   -2.4782   -0.2808
   14  H                                                14  H           -0.9147   -1.5843    1.1773


 Interatomic Distance Matrix (Angstrom)
 --------------------------------------

   1)     0.000
   2)     1.904   0.000
   3)     1.904   3.115   0.000
   4)     1.904   3.115   3.115   0.000
   5)     1.480   2.768   2.768   2.768   0.000
   6)     2.525   1.105   4.082   3.331   3.061   0.000
   7)     2.525   1.105   3.331   4.082   3.061   1.786   0.000
   8)     2.518   1.106   3.331   3.331   3.695   1.786   1.786   0.000
   9)     2.525   3.331   1.105   4.082   3.061   4.348   3.171   3.638   0.000
  10)     2.525   4.082   1.105   3.331   3.061   4.956   4.348   4.347   1.786   0.000
  11)     2.518   3.331   1.106   3.331   3.695   4.347   3.638   3.169   1.786   1.786
          0.000
  12)     2.525   4.082   3.331   1.105   3.061   4.348   4.956   4.347   4.348   3.171
          3.638   0.000
  13)     2.525   3.331   4.082   1.105   3.061   3.171   4.348   3.638   4.956   4.348
          4.347   1.786   0.000
  14)     2.518   3.331   3.331   1.106   3.695   3.638   4.347   3.169   4.347   3.638
          3.169   1.786   1.786   0.000

 Min. Distance =    1.1052
 Max. Distance =    4.9564



 =====================================
 S Y M M E T R Y ,   E L E C T R O N S
 =====================================
  
 Symmetry: C(3V)

 Irreducible Representations, including subspecies
 -------------------------------------------------
 A1
 A2
 E1:1  E1:2


 Configuration of Valence Electrons
 ==================================
 ( determined in the SCF procedure )

 Total:   34

 Net Charge: 0 (Nuclei minus Electrons)

 Aufbau principle for MO occupations will be applied through SCF cycle no.     150
 Thereafter, the program will assign electrons to MOs that are spatially
 similar to the occupied MOs in a "reference" cycle ("KeepOrbitals").
 The reference cycle is always the PREVIOUS cycle: it will evolve with
 the SCF procedure.
1
 ***************************************************************************************************



                                      ****************************************
                                      *  B U I L D : (Fragments, Functions)  *
                                      ****************************************
  



 =======
 S F O s  ***  (Symmetrized Fragment Orbitals)  ***
 =======
  
 SFOs are linear combinations of (valence) Fragment Orbitals (FOs), such that the SFOs transform as the
 irreducible representations of the (molecular) symmetry group. Each SFO is therefore characterized by
 an irrep of the molecule and by a few (or only one) generating FOs.
 The SFOs constitute a symmetry-adapted basis for the Fock matrix. The MO eigenvector coefficients in
 this basis provide a direct interpretation of the MOs in terms of Frontier Orbital Theory.

 The SFOs are combined with auxiliary Core Functions (CFs) to ensure orthogonalization on the (frozen)
 Core Orbitals (COs). The Core-orthogonalized SFOs (CSFOs) constitute the true Fock basis.

 The FOs, and hence also the (C)SFOs are combinations of the elementary basis functions (BAS). The basis
 functions that participate in the description of the SFOs depend on the irrep. The indices of the
 involved functions are printed below for each irrep.
 (The complete list of primitive basis functions is printed in another section)

 Total nr. of (C)SFOs (summation over all irreps) :   136

 NOTE: a (C)SFO that is defined as a combination of more than one FO is usually NOT normalized.



                                       === A1 ===
 Nr. of SFOs :   38
 Cartesian basis functions that participate in this irrep (total number =   123) :
      1    28    47    66     2     3    10    11    12     6
      9    15    18    21    27    22    25    29    48    67
     30    49    68    31    50    69    34    53    72    37
     56    75    40    59    78    32    51    52    70    71
     35    54    55    73    74    38    57    58    76    77
     46    65    84    43    62    64    81    83    41    44
     60    61    63    79    80    82    85    86    87    90
     91    97   109   115   127   133    92    98   110   116
    128   134    93    99   111   117   129   135    96   102
    114   120   132   138    94    95   100   101   112   113
    118   119   130   131   136   137   103   121   139   104
    122   140   105   123   141   108   126   144   106   124
    125   142   143

    SFO  (index         Fragment          Generating    Expansion in Fragment Orbitals
  indx  incl.CFs)   Occup   Orb.Energy   FragmentType  Coeff.   Orbital     on Fragment
 --------------------------------------------------------------------------------------
     1       5      2.000      -5.095 au  Si            1.00      1 S               1
                        (    -138.637 eV)
     2       6      2.000      -0.391 au  Si            1.00      2 S               1
                        (     -10.649 eV)
     3       7       --         0.128 au  Si            1.00      3 S               1
                        (       3.474 eV)
     4       8       --         1.492 au  Si            1.00      4 S               1
                        (      40.597 eV)
     5       9       --        10.670 au  Si            1.00      5 S               1
                        (     290.333 eV)
     6      10      2.000      -3.510 au  Si            1.00      1 P:z             1
                        (     -95.514 eV)
     7      11      0.667      -0.145 au  Si            1.00      2 P:z             1
                        (      -3.946 eV)
     8      12       --         0.066 au  Si            1.00      3 P:z             1
                        (       1.783 eV)
     9      13       --         0.618 au  Si            1.00      4 P:z             1
                        (      16.827 eV)
    10      14       --         7.955 au  Si            1.00      5 P:z             1
                        (     216.465 eV)
    11      15       --         0.370 au  Si            1.00      1 D:z2            1
                        (      10.074 eV)
    12      16      2.000      -0.501 au  C             0.58      1 S               2
                        (     -13.631 eV)               0.58      1 S               3
                                                        0.58      1 S               4
    13      17       --         0.431 au  C             0.58      2 S               2
                        (      11.741 eV)               0.58      2 S               3
                                                        0.58      2 S               4
    14      18       --         9.944 au  C             0.58      3 S               2
                        (     270.596 eV)               0.58      3 S               3
                                                        0.58      3 S               4
    15      19      0.667      -0.193 au  C             0.58      1 P:x             2
                        (      -5.262 eV)              -0.29      1 P:x             3
                                                        0.50      1 P:y             3
                                                       -0.29      1 P:x             4
                                                       -0.50      1 P:y             4
    16      20       --         0.168 au  C             0.58      2 P:x             2
                        (       4.578 eV)              -0.29      2 P:x             3
                                                        0.50      2 P:y             3
                                                       -0.29      2 P:x             4
                                                       -0.50      2 P:y             4
    17      21       --         2.012 au  C             0.58      3 P:x             2
                        (      54.761 eV)              -0.29      3 P:x             3
                                                        0.50      3 P:y             3
                                                       -0.29      3 P:x             4
                                                       -0.50      3 P:y             4
    18      22      0.667      -0.193 au  C             0.58      1 P:z             2
                        (      -5.262 eV)               0.58      1 P:z             3
                                                        0.58      1 P:z             4
    19      23       --         0.168 au  C             0.58      2 P:z             2
                        (       4.578 eV)               0.58      2 P:z             3
                                                        0.58      2 P:z             4
    20      24       --         2.012 au  C             0.58      3 P:z             2
                        (      54.761 eV)               0.58      3 P:z             3
                                                        0.58      3 P:z             4
    21      25       --         1.242 au  C             0.58      1 D:z2            2
                        (      33.808 eV)               0.58      1 D:z2            3
                                                        0.58      1 D:z2            4
    22      26       --         1.242 au  C             0.58      1 D:x2-y2         2
                        (      33.808 eV)              -0.29      1 D:x2-y2         3
                                                       -0.50      1 D:xy            3
                                                       -0.29      1 D:x2-y2         4
                                                        0.50      1 D:xy            4
    23      27       --         1.242 au  C             0.58      1 D:xz            2
                        (      33.808 eV)              -0.29      1 D:xz            3
                                                        0.50      1 D:yz            3
                                                       -0.29      1 D:xz            4
                                                       -0.50      1 D:yz            4
    24      28      1.000      -0.240 au  H             1.00      1 S               5
                        (      -6.532 eV)
    25      29       --         0.088 au  H             1.00      2 S               5
                        (       2.395 eV)
    26      30       --         1.502 au  H             1.00      3 S               5
                        (      40.877 eV)
    27      31       --         0.406 au  H             1.00      1 P:z             5
                        (      11.052 eV)
    28      32      1.000      -0.240 au  H             0.41      1 S               6
                        (      -6.532 eV)               0.41      1 S               7
                                                        0.41      1 S               9
                                                        0.41      1 S              10
                                                        0.41      1 S              12
                                                        0.41      1 S              13
    29      33       --         0.088 au  H             0.41      2 S               6
                        (       2.395 eV)               0.41      2 S               7
                                                        0.41      2 S               9
                                                        0.41      2 S              10
                                                        0.41      2 S              12
                                                        0.41      2 S              13
    30      34       --         1.502 au  H             0.41      3 S               6
                        (      40.877 eV)               0.41      3 S               7
                                                        0.41      3 S               9
                                                        0.41      3 S              10
                                                        0.41      3 S              12
                                                        0.41      3 S              13
    31      35       --         0.406 au  H             0.41      1 P:x             6
                        (      11.052 eV)               0.41      1 P:x             7
                                                       -0.20      1 P:x             9
                                                        0.35      1 P:y             9
                                                       -0.20      1 P:x            10
                                                        0.35      1 P:y            10
                                                       -0.20      1 P:x            12
                                                       -0.35      1 P:y            12
                                                       -0.20      1 P:x            13
                                                       -0.35      1 P:y            13
    32      36       --         0.406 au  H             0.41      1 P:y             6
                        (      11.052 eV)              -0.41      1 P:y             7
                                                       -0.35      1 P:x             9
                                                       -0.20      1 P:y             9
                                                        0.35      1 P:x            10
                                                        0.20      1 P:y            10
                                                        0.35      1 P:x            12
                                                       -0.20      1 P:y            12
                                                       -0.35      1 P:x            13
                                                        0.20      1 P:y            13
    33      37       --         0.406 au  H             0.41      1 P:z             6
                        (      11.052 eV)               0.41      1 P:z             7
                                                        0.41      1 P:z             9
                                                        0.41      1 P:z            10
                                                        0.41      1 P:z            12
                                                        0.41      1 P:z            13
    34      38      1.000      -0.240 au  H             0.58      1 S               8
                        (      -6.532 eV)               0.58      1 S              11
                                                        0.58      1 S              14
    35      39       --         0.088 au  H             0.58      2 S               8
                        (       2.395 eV)               0.58      2 S              11
                                                        0.58      2 S              14
    36      40       --         1.502 au  H             0.58      3 S               8
                        (      40.877 eV)               0.58      3 S              11
                                                        0.58      3 S              14
    37      41       --         0.406 au  H             0.58      1 P:x             8
                        (      11.052 eV)              -0.29      1 P:x            11
                                                        0.50      1 P:y            11
                                                       -0.29      1 P:x            14
                                                       -0.50      1 P:y            14
    38      42       --         0.406 au  H             0.58      1 P:z             8
                        (      11.052 eV)               0.58      1 P:z            11
                                                        0.58      1 P:z            14



                                       === A2 ===
 Nr. of SFOs :   12
 Cartesian basis functions that participate in this irrep (total number =    68) :
     33    51    52    70    71    36    54    55    73    74
     39    57    58    76    77    45    62    64    81    83
     42    60    61    63    79    80    82    91    97   109
    115   127   133    92    98   110   116   128   134    93
     99   111   117   129   135    96   102   114   120   132
    138    94    95   100   101   112   113   118   119   130
    131   136   137   107   124   125   142   143

    SFO  (index         Fragment          Generating    Expansion in Fragment Orbitals
  indx  incl.CFs)   Occup   Orb.Energy   FragmentType  Coeff.   Orbital     on Fragment
 --------------------------------------------------------------------------------------
     1       1      0.667      -0.193 au  C             0.58      1 P:y             2
                        (      -5.262 eV)              -0.50      1 P:x             3
                                                       -0.29      1 P:y             3
                                                        0.50      1 P:x             4
                                                       -0.29      1 P:y             4
     2       2       --         0.168 au  C             0.58      2 P:y             2
                        (       4.578 eV)              -0.50      2 P:x             3
                                                       -0.29      2 P:y             3
                                                        0.50      2 P:x             4
                                                       -0.29      2 P:y             4
     3       3       --         2.012 au  C             0.58      3 P:y             2
                        (      54.761 eV)              -0.50      3 P:x             3
                                                       -0.29      3 P:y             3
                                                        0.50      3 P:x             4
                                                       -0.29      3 P:y             4
     4       4       --         1.242 au  C             0.58      1 D:xy            2
                        (      33.808 eV)               0.50      1 D:x2            3
                                                       -0.29      1 D:xy            3
                                                       -0.50      1 D:x2            4
                                                       -0.29      1 D:xy            4
     5       5       --         1.242 au  C             0.58      1 D:yz            2
                        (      33.808 eV)              -0.50      1 D:xz            3
                                                       -0.29      1 D:yz            3
                                                        0.50      1 D:xz            4
                                                       -0.29      1 D:yz            4
     6       6      1.000      -0.240 au  H             0.41      1 S               6
                        (      -6.532 eV)              -0.41      1 S               7
                                                        0.41      1 S               9
                                                       -0.41      1 S              10
                                                        0.41      1 S              12
                                                       -0.41      1 S              13
     7       7       --         0.088 au  H             0.41      2 S               6
                        (       2.395 eV)              -0.41      2 S               7
                                                        0.41      2 S               9
                                                       -0.41      2 S              10
                                                        0.41      2 S              12
                                                       -0.41      2 S              13
     8       8       --         1.502 au  H             0.41      3 S               6
                        (      40.877 eV)              -0.41      3 S               7
                                                        0.41      3 S               9
                                                       -0.41      3 S              10
                                                        0.41      3 S              12
                                                       -0.41      3 S              13
     9       9       --         0.406 au  H             0.41      1 P:x             6
                        (      11.052 eV)              -0.41      1 P:x             7
                                                       -0.20      1 P:x             9
                                                        0.35      1 P:y             9
                                                        0.20      1 P:x            10
                                                       -0.35      1 P:y            10
                                                       -0.20      1 P:x            12
                                                       -0.35      1 P:y            12
                                                        0.20      1 P:x            13
                                                        0.35      1 P:y            13
    10      10       --         0.406 au  H             0.41      1 P:y             6
                        (      11.052 eV)               0.41      1 P:y             7
                                                       -0.35      1 P:x             9
                                                       -0.20      1 P:y             9
                                                       -0.35      1 P:x            10
                                                       -0.20      1 P:y            10
                                                        0.35      1 P:x            12
                                                       -0.20      1 P:y            12
                                                        0.35      1 P:x            13
                                                       -0.20      1 P:y            13
    11      11       --         0.406 au  H             0.41      1 P:z             6
                        (      11.052 eV)              -0.41      1 P:z             7
                                                        0.41      1 P:z             9
                                                       -0.41      1 P:z            10
                                                        0.41      1 P:z            12
                                                       -0.41      1 P:z            13
    12      12       --         0.406 au  H             0.58      1 P:y             8
                        (      11.052 eV)              -0.50      1 P:x            11
                                                       -0.29      1 P:y            11
                                                        0.50      1 P:x            14
                                                       -0.29      1 P:y            14



                                       === E1:1 ===
 Nr. of SFOs :   43
 Cartesian basis functions that participate in this irrep (total number =   114) :
     28    47    66     4     7    13    16    19    24    22
     25    29    48    67    30    49    68    31    50    69
     34    53    72    37    56    75    40    59    78    32
     51    52    70    71    35    54    55    73    74    38
     57    58    76    77    46    65    84    43    62    64
     81    83    41    44    60    61    63    79    80    82
     88    91    97   109   115   127   133    92    98   110
    116   128   134    93    99   111   117   129   135    96
    102   114   120   132   138    94    95   100   101   112
    113   118   119   130   131   136   137   103   121   139
    104   122   140   105   123   141   108   126   144   106
    124   125   142   143

    SFO  (index         Fragment          Generating    Expansion in Fragment Orbitals
  indx  incl.CFs)   Occup   Orb.Energy   FragmentType  Coeff.   Orbital     on Fragment
 --------------------------------------------------------------------------------------
     1       4      2.000      -3.510 au  Si            1.00      1 P:x             1
                        (     -95.514 eV)
     2       5      0.667      -0.145 au  Si            1.00      2 P:x             1
                        (      -3.946 eV)
     3       6       --         0.066 au  Si            1.00      3 P:x             1
                        (       1.783 eV)
     4       7       --         0.618 au  Si            1.00      4 P:x             1
                        (      16.827 eV)
     5       8       --         7.955 au  Si            1.00      5 P:x             1
                        (     216.465 eV)
     6       9       --         0.370 au  Si            1.00      1 D:x2-y2         1
                        (      10.074 eV)
     7      10       --         0.370 au  Si            1.00      1 D:xz            1
                        (      10.074 eV)
     8      11      2.000      -0.501 au  C             0.82      1 S               2
                        (     -13.631 eV)              -0.41      1 S               3
                                                       -0.41      1 S               4
     9      12       --         0.431 au  C             0.82      2 S               2
                        (      11.741 eV)              -0.41      2 S               3
                                                       -0.41      2 S               4
    10      13       --         9.944 au  C             0.82      3 S               2
                        (     270.596 eV)              -0.41      3 S               3
                                                       -0.41      3 S               4
    11      14      0.667      -0.193 au  C             0.82      1 P:x             2
                        (      -5.262 eV)               0.20      1 P:x             3
                                                       -0.35      1 P:y             3
                                                        0.20      1 P:x             4
                                                        0.35      1 P:y             4
    12      15       --         0.168 au  C             0.82      2 P:x             2
                        (       4.578 eV)               0.20      2 P:x             3
                                                       -0.35      2 P:y             3
                                                        0.20      2 P:x             4
                                                        0.35      2 P:y             4
    13      16       --         2.012 au  C             0.82      3 P:x             2
                        (      54.761 eV)               0.20      3 P:x             3
                                                       -0.35      3 P:y             3
                                                        0.20      3 P:x             4
                                                        0.35      3 P:y             4
    14      17      0.667      -0.193 au  C             0.82      1 P:z             2
                        (      -5.262 eV)              -0.41      1 P:z             3
                                                       -0.41      1 P:z             4
    15      18       --         0.168 au  C             0.82      2 P:z             2
                        (       4.578 eV)              -0.41      2 P:z             3
                                                       -0.41      2 P:z             4
    16      19       --         2.012 au  C             0.82      3 P:z             2
                        (      54.761 eV)              -0.41      3 P:z             3
                                                       -0.41      3 P:z             4
    17      20      0.667      -0.193 au  C             0.61      1 P:x             3
                        (      -5.262 eV)               0.35      1 P:y             3
                                                        0.61      1 P:x             4
                                                       -0.35      1 P:y             4
    18      21       --         0.168 au  C             0.61      2 P:x             3
                        (       4.578 eV)               0.35      2 P:y             3
                                                        0.61      2 P:x             4
                                                       -0.35      2 P:y             4
    19      22       --         2.012 au  C             0.61      3 P:x             3
                        (      54.761 eV)               0.35      3 P:y             3
                                                        0.61      3 P:x             4
                                                       -0.35      3 P:y             4
    20      23       --         1.242 au  C             0.82      1 D:z2            2
                        (      33.808 eV)              -0.41      1 D:z2            3
                                                       -0.41      1 D:z2            4
    21      24       --         1.242 au  C             0.82      1 D:x2-y2         2
                        (      33.808 eV)               0.20      1 D:x2-y2         3
                                                        0.35      1 D:xy            3
                                                        0.20      1 D:x2-y2         4
                                                       -0.35      1 D:xy            4
    22      25       --         1.242 au  C             0.82      1 D:xz            2
                        (      33.808 eV)               0.20      1 D:xz            3
                                                       -0.35      1 D:yz            3
                                                        0.20      1 D:xz            4
                                                        0.35      1 D:yz            4
    23      26       --         1.242 au  C             0.61      1 D:x2-y2         3
                        (      33.808 eV)              -0.35      1 D:xy            3
                                                        0.61      1 D:x2-y2         4
                                                        0.35      1 D:xy            4
    24      27       --         1.242 au  C             0.61      1 D:xz            3
                        (      33.808 eV)               0.35      1 D:yz            3
                                                        0.61      1 D:xz            4
                                                       -0.35      1 D:yz            4
    25      28       --         0.406 au  H             1.00      1 P:x             5
                        (      11.052 eV)
    26      29      1.000      -0.240 au  H             0.58      1 S               6
                        (      -6.532 eV)               0.58      1 S               7
                                                       -0.29      1 S               9
                                                       -0.29      1 S              10
                                                       -0.29      1 S              12
                                                       -0.29      1 S              13
    27      30       --         0.088 au  H             0.58      2 S               6
                        (       2.395 eV)               0.58      2 S               7
                                                       -0.29      2 S               9
                                                       -0.29      2 S              10
                                                       -0.29      2 S              12
                                                       -0.29      2 S              13
    28      31       --         1.502 au  H             0.58      3 S               6
                        (      40.877 eV)               0.58      3 S               7
                                                       -0.29      3 S               9
                                                       -0.29      3 S              10
                                                       -0.29      3 S              12
                                                       -0.29      3 S              13
    29      32      1.000      -0.240 au  H             0.50      1 S               9
                        (      -6.532 eV)              -0.50      1 S              10
                                                       -0.50      1 S              12
                                                        0.50      1 S              13
    30      33       --         0.088 au  H             0.50      2 S               9
                        (       2.395 eV)              -0.50      2 S              10
                                                       -0.50      2 S              12
                                                        0.50      2 S              13
    31      34       --         1.502 au  H             0.50      3 S               9
                        (      40.877 eV)              -0.50      3 S              10
                                                       -0.50      3 S              12
                                                        0.50      3 S              13
    32      35       --         0.406 au  H             0.58      1 P:x             6
                        (      11.052 eV)               0.58      1 P:x             7
                                                        0.14      1 P:x             9
                                                       -0.25      1 P:y             9
                                                        0.14      1 P:x            10
                                                       -0.25      1 P:y            10
                                                        0.14      1 P:x            12
                                                        0.25      1 P:y            12
                                                        0.14      1 P:x            13
                                                        0.25      1 P:y            13
    33      36       --         0.406 au  H             0.58      1 P:y             6
                        (      11.052 eV)              -0.58      1 P:y             7
                                                        0.25      1 P:x             9
                                                        0.14      1 P:y             9
                                                       -0.25      1 P:x            10
                                                       -0.14      1 P:y            10
                                                       -0.25      1 P:x            12
                                                        0.14      1 P:y            12
                                                        0.25      1 P:x            13
                                                       -0.14      1 P:y            13
    34      37       --         0.406 au  H             0.58      1 P:z             6
                        (      11.052 eV)               0.58      1 P:z             7
                                                       -0.29      1 P:z             9
                                                       -0.29      1 P:z            10
                                                       -0.29      1 P:z            12
                                                       -0.29      1 P:z            13
    35      38       --         0.406 au  H             0.50      1 P:x             9
                        (      11.052 eV)               0.25      1 P:x            10
                                                        0.43      1 P:y            10
                                                        0.25      1 P:x            12
                                                       -0.43      1 P:y            12
                                                        0.50      1 P:x            13
    36      39       --         0.406 au  H             0.50      1 P:y             9
                        (      11.052 eV)               0.43      1 P:x            10
                                                       -0.25      1 P:y            10
                                                        0.43      1 P:x            12
                                                        0.25      1 P:y            12
                                                       -0.50      1 P:y            13
    37      40       --         0.406 au  H             0.50      1 P:z             9
                        (      11.052 eV)              -0.50      1 P:z            10
                                                       -0.50      1 P:z            12
                                                        0.50      1 P:z            13
    38      41      1.000      -0.240 au  H             0.82      1 S               8
                        (      -6.532 eV)              -0.41      1 S              11
                                                       -0.41      1 S              14
    39      42       --         0.088 au  H             0.82      2 S               8
                        (       2.395 eV)              -0.41      2 S              11
                                                       -0.41      2 S              14
    40      43       --         1.502 au  H             0.82      3 S               8
                        (      40.877 eV)              -0.41      3 S              11
                                                       -0.41      3 S              14
    41      44       --         0.406 au  H             0.82      1 P:x             8
                        (      11.052 eV)               0.20      1 P:x            11
                                                       -0.35      1 P:y            11
                                                        0.20      1 P:x            14
                                                        0.35      1 P:y            14
    42      45       --         0.406 au  H             0.82      1 P:z             8
                        (      11.052 eV)              -0.41      1 P:z            11
                                                       -0.41      1 P:z            14
    43      46       --         0.406 au  H             0.61      1 P:x            11
                        (      11.052 eV)               0.35      1 P:y            11
                                                        0.61      1 P:x            14
                                                       -0.35      1 P:y            14



                                       === E1:2 ===
 Nr. of SFOs :   43
 Cartesian basis functions that participate in this irrep (total number =   100) :
     47    66     5     8    14    17    20    26    23    48
     67    49    68    50    69    53    72    56    75    59
     78    33    51    52    70    71    36    54    55    73
     74    39    57    58    76    77    65    84    45    62
     64    81    83    42    60    61    63    79    80    82
     89    91    97   109   115   127   133    92    98   110
    116   128   134    93    99   111   117   129   135    96
    102   114   120   132   138    94    95   100   101   112
    113   118   119   130   131   136   137   121   139   122
    140   123   141   126   144   107   124   125   142   143

    SFO  (index         Fragment          Generating    Expansion in Fragment Orbitals
  indx  incl.CFs)   Occup   Orb.Energy   FragmentType  Coeff.   Orbital     on Fragment
 --------------------------------------------------------------------------------------
     1       3      2.000      -3.510 au  Si            1.00      1 P:y             1
                        (     -95.514 eV)
     2       4      0.667      -0.145 au  Si            1.00      2 P:y             1
                        (      -3.946 eV)
     3       5       --         0.066 au  Si            1.00      3 P:y             1
                        (       1.783 eV)
     4       6       --         0.618 au  Si            1.00      4 P:y             1
                        (      16.827 eV)
     5       7       --         7.955 au  Si            1.00      5 P:y             1
                        (     216.465 eV)
     6       8       --         0.370 au  Si           -1.00      1 D:xy            1
                        (      10.074 eV)
     7       9       --         0.370 au  Si            1.00      1 D:yz            1
                        (      10.074 eV)
     8      10      2.000      -0.501 au  C             0.71      1 S               3
                        (     -13.631 eV)              -0.71      1 S               4
     9      11       --         0.431 au  C             0.71      2 S               3
                        (      11.741 eV)              -0.71      2 S               4
    10      12       --         9.944 au  C             0.71      3 S               3
                        (     270.596 eV)              -0.71      3 S               4
    11      13      0.667      -0.193 au  C            -0.35      1 P:x             3
                        (      -5.262 eV)               0.61      1 P:y             3
                                                        0.35      1 P:x             4
                                                        0.61      1 P:y             4
    12      14       --         0.168 au  C            -0.35      2 P:x             3
                        (       4.578 eV)               0.61      2 P:y             3
                                                        0.35      2 P:x             4
                                                        0.61      2 P:y             4
    13      15       --         2.012 au  C            -0.35      3 P:x             3
                        (      54.761 eV)               0.61      3 P:y             3
                                                        0.35      3 P:x             4
                                                        0.61      3 P:y             4
    14      16      0.667      -0.193 au  C             0.71      1 P:z             3
                        (      -5.262 eV)              -0.71      1 P:z             4
    15      17       --         0.168 au  C             0.71      2 P:z             3
                        (       4.578 eV)              -0.71      2 P:z             4
    16      18       --         2.012 au  C             0.71      3 P:z             3
                        (      54.761 eV)              -0.71      3 P:z             4
    17      19      0.667      -0.193 au  C             0.82      1 P:y             2
                        (      -5.262 eV)               0.35      1 P:x             3
                                                        0.20      1 P:y             3
                                                       -0.35      1 P:x             4
                                                        0.20      1 P:y             4
    18      20       --         0.168 au  C             0.82      2 P:y             2
                        (       4.578 eV)               0.35      2 P:x             3
                                                        0.20      2 P:y             3
                                                       -0.35      2 P:x             4
                                                        0.20      2 P:y             4
    19      21       --         2.012 au  C             0.82      3 P:y             2
                        (      54.761 eV)               0.35      3 P:x             3
                                                        0.20      3 P:y             3
                                                       -0.35      3 P:x             4
                                                        0.20      3 P:y             4
    20      22       --         1.242 au  C             0.71      1 D:z2            3
                        (      33.808 eV)              -0.71      1 D:z2            4
    21      23       --         1.242 au  C            -0.35      1 D:x2-y2         3
                        (      33.808 eV)              -0.61      1 D:xy            3
                                                        0.35      1 D:x2-y2         4
                                                       -0.61      1 D:xy            4
    22      24       --         1.242 au  C            -0.35      1 D:xz            3
                        (      33.808 eV)               0.61      1 D:yz            3
                                                        0.35      1 D:xz            4
                                                        0.61      1 D:yz            4
    23      25       --         1.242 au  C            -0.82      1 D:xy            2
                        (      33.808 eV)               0.35      1 D:x2            3
                                                       -0.20      1 D:xy            3
                                                       -0.35      1 D:x2            4
                                                       -0.20      1 D:xy            4
    24      26       --         1.242 au  C             0.82      1 D:yz            2
                        (      33.808 eV)               0.35      1 D:xz            3
                                                        0.20      1 D:yz            3
                                                       -0.35      1 D:xz            4
                                                        0.20      1 D:yz            4
    25      27       --         0.406 au  H             1.00      1 P:y             5
                        (      11.052 eV)
    26      28      1.000      -0.240 au  H             0.50      1 S               9
                        (      -6.532 eV)               0.50      1 S              10
                                                       -0.50      1 S              12
                                                       -0.50      1 S              13
    27      29       --         0.088 au  H             0.50      2 S               9
                        (       2.395 eV)               0.50      2 S              10
                                                       -0.50      2 S              12
                                                       -0.50      2 S              13
    28      30       --         1.502 au  H             0.50      3 S               9
                        (      40.877 eV)               0.50      3 S              10
                                                       -0.50      3 S              12
                                                       -0.50      3 S              13
    29      31      1.000      -0.240 au  H            -0.58      1 S               6
                        (      -6.532 eV)               0.58      1 S               7
                                                        0.29      1 S               9
                                                       -0.29      1 S              10
                                                        0.29      1 S              12
                                                       -0.29      1 S              13
    30      32       --         0.088 au  H            -0.58      2 S               6
                        (       2.395 eV)               0.58      2 S               7
                                                        0.29      2 S               9
                                                       -0.29      2 S              10
                                                        0.29      2 S              12
                                                       -0.29      2 S              13
    31      33       --         1.502 au  H            -0.58      3 S               6
                        (      40.877 eV)               0.58      3 S               7
                                                        0.29      3 S               9
                                                       -0.29      3 S              10
                                                        0.29      3 S              12
                                                       -0.29      3 S              13
    32      34       --         0.406 au  H            -0.25      1 P:x             9
                        (      11.052 eV)               0.43      1 P:y             9
                                                       -0.25      1 P:x            10
                                                        0.43      1 P:y            10
                                                        0.25      1 P:x            12
                                                        0.43      1 P:y            12
                                                        0.25      1 P:x            13
                                                        0.43      1 P:y            13
    33      35       --         0.406 au  H            -0.43      1 P:x             9
                        (      11.052 eV)              -0.25      1 P:y             9
                                                        0.43      1 P:x            10
                                                        0.25      1 P:y            10
                                                       -0.43      1 P:x            12
                                                        0.25      1 P:y            12
                                                        0.43      1 P:x            13
                                                       -0.25      1 P:y            13
    34      36       --         0.406 au  H             0.50      1 P:z             9
                        (      11.052 eV)               0.50      1 P:z            10
                                                       -0.50      1 P:z            12
                                                       -0.50      1 P:z            13
    35      37       --         0.406 au  H             0.29      1 P:x             6
                        (      11.052 eV)               0.50      1 P:y             6
                                                       -0.29      1 P:x             7
                                                        0.50      1 P:y             7
                                                        0.29      1 P:x             9
                                                        0.14      1 P:x            10
                                                        0.25      1 P:y            10
                                                       -0.14      1 P:x            12
                                                        0.25      1 P:y            12
                                                       -0.29      1 P:x            13
    36      38       --         0.406 au  H            -0.50      1 P:x             6
                        (      11.052 eV)               0.29      1 P:y             6
                                                        0.50      1 P:x             7
                                                        0.29      1 P:y             7
                                                        0.29      1 P:y             9
                                                        0.25      1 P:x            10
                                                       -0.14      1 P:y            10
                                                       -0.25      1 P:x            12
                                                       -0.14      1 P:y            12
                                                        0.29      1 P:y            13
    37      39       --         0.406 au  H            -0.58      1 P:z             6
                        (      11.052 eV)               0.58      1 P:z             7
                                                        0.29      1 P:z             9
                                                       -0.29      1 P:z            10
                                                        0.29      1 P:z            12
                                                       -0.29      1 P:z            13
    38      40      1.000      -0.240 au  H             0.71      1 S              11
                        (      -6.532 eV)              -0.71      1 S              14
    39      41       --         0.088 au  H             0.71      2 S              11
                        (       2.395 eV)              -0.71      2 S              14
    40      42       --         1.502 au  H             0.71      3 S              11
                        (      40.877 eV)              -0.71      3 S              14
    41      43       --         0.406 au  H            -0.35      1 P:x            11
                        (      11.052 eV)               0.61      1 P:y            11
                                                        0.35      1 P:x            14
                                                        0.61      1 P:y            14
    42      44       --         0.406 au  H             0.71      1 P:z            11
                        (      11.052 eV)              -0.71      1 P:z            14
    43      45       --         0.406 au  H             0.82      1 P:y             8
                        (      11.052 eV)               0.35      1 P:x            11
                                                        0.20      1 P:y            11
                                                       -0.35      1 P:x            14
                                                        0.20      1 P:y            14



 ================================
 (Slater-type)  F U N C T I O N S  ***  (Basis and Fit)  ***
 ================================
  

 Atom Type    1  (Si)
 ==============

 Valence Basis Sets:  12
 -----------------------
   1 S   11.900000
   2 S    5.150000
   2 S    3.600000
   2 P    6.850000
   2 P    3.650000
   3 S    1.200000
   3 S    1.850000
   3 S    2.850000
   3 P    0.750000
   3 P    1.200000
   3 P    1.850000
   3 D    1.750000

 Frozen Core Shells
 ------------------
    S:  1

 Atom Type    2  (C)
 ==============

 Valence Basis Sets:   8
 -----------------------
   1 S    5.400000
   2 S    1.280000
   2 S    2.100000
   2 S    4.600000
   2 P    0.820000
   2 P    1.480000
   2 P    2.940000
   3 D    2.200000

 Frozen Core Shells
 ------------------
    S:  1

 Atom Type    3  (H)
 ==============

 Valence Basis Sets:   4
 -----------------------
   1 S    0.690000
   1 S    0.920000
   1 S    1.580000
   2 P    1.250000


 BAS: List of all Elementary Cartesian Basis Functions
 =====================================================

 The numbering in the list below (to the right of the function characteristics) is referred
 to in print-outs of MO eigenvectors and Mulliken populations in the BAS representation
 (as contrasted to the SFO representation).

 Notes:
 1. The functions are characterized by a polynomial prefactor (powers of x,y,z and r) and
    an exponential decay factor alpha.
 2. Since the basis sets are specific for an atom TYPE, the individual functions occur on
    all atoms of that type.
 3. The word 'Core' in the left margin signals that it is a Core Function (CF) : not a
    degree of freedom in the valence set, but only used to ensure orthogonalization of
    the other valence basis functions on the frozen Core Orbitals.


 (power of) X  Y  Z  R     Alpha  on Atom
            ==========     =====     ==========

 Si                                   1
                                  ---------------------------------------------------------------------------
    Core    0  0  0  0    11.900      1
            0  0  0  1     5.150      2
            0  0  0  1     3.600      3
            1  0  0  0     6.850      4
            0  1  0  0     6.850      5
            0  0  1  0     6.850      6
            1  0  0  0     3.650      7
            0  1  0  0     3.650      8
            0  0  1  0     3.650      9
            0  0  0  2     1.200     10
            0  0  0  2     1.850     11
            0  0  0  2     2.850     12
            1  0  0  1     0.750     13
            0  1  0  1     0.750     14
            0  0  1  1     0.750     15
            1  0  0  1     1.200     16
            0  1  0  1     1.200     17
            0  0  1  1     1.200     18
            1  0  0  1     1.850     19
            0  1  0  1     1.850     20
            0  0  1  1     1.850     21
            2  0  0  0     1.750     22
            1  1  0  0     1.750     23
            1  0  1  0     1.750     24
            0  2  0  0     1.750     25
            0  1  1  0     1.750     26
            0  0  2  0     1.750     27

 C                                    2    3    4
                                  ---------------------------------------------------------------------------
    Core    0  0  0  0     5.400     28   47   66
            0  0  0  1     1.280     29   48   67
            0  0  0  1     2.100     30   49   68
            0  0  0  1     4.600     31   50   69
            1  0  0  0     0.820     32   51   70
            0  1  0  0     0.820     33   52   71
            0  0  1  0     0.820     34   53   72
            1  0  0  0     1.480     35   54   73
            0  1  0  0     1.480     36   55   74
            0  0  1  0     1.480     37   56   75
            1  0  0  0     2.940     38   57   76
            0  1  0  0     2.940     39   58   77
            0  0  1  0     2.940     40   59   78
            2  0  0  0     2.200     41   60   79
            1  1  0  0     2.200     42   61   80
            1  0  1  0     2.200     43   62   81
            0  2  0  0     2.200     44   63   82
            0  1  1  0     2.200     45   64   83
            0  0  2  0     2.200     46   65   84

 H                                    5    6    7    8    9   10   11   12   13   14
                                  ---------------------------------------------------------------------------
            0  0  0  0     0.690     85   91   97  103  109  115  121  127  133  139
            0  0  0  0     0.920     86   92   98  104  110  116  122  128  134  140
            0  0  0  0     1.580     87   93   99  105  111  117  123  129  135  141
            1  0  0  0     1.250     88   94  100  106  112  118  124  130  136  142
            0  1  0  0     1.250     89   95  101  107  113  119  125  131  137  143
            0  0  1  0     1.250     90   96  102  108  114  120  126  132  138  144

 Total number of charge fitting functions (nprimf)       852
 Total number of Cartesian basis functions (naos)        144
 Total number of Cartesian core functions  (ncos)          4

1
 ***************************************************************************************************



                                              ***********************
                                              *  T E C H N I C A L  *
                                              ***********************
  



 =============================================================
 P A R A L L E L I Z A T I O N  and  V E C T O R I Z A T I O N
 =============================================================
  
 Nr of parallel processes:                                4
 Maximum vector length in NumInt loops:                 128



 =====================
 S C F   U P D A T E S
 =====================
  
 Max. nr. of cycles:                               300
 Convergence criterion:                              0.0000010000
   secondary criterion:                              0.0010000000

 Mix parameter (when DIIS does not apply):           0.2000000000
 Mixed ADIIS+SDIIS will be used                  
    Max number of expansion vectors:                10
    Pure ADIIS when Max([F,P]) is above              0.1000000000
    Pure SDIIS when Max([F,P]) is below              0.0010000000
 Automatic ElectronSmearing (in case of problematic SCF convergence) disabled



 =================
 P R E C I S I O N  ***  (General: NumInt, NeglectFunctionTails, ...)  ***
 =================
  

 NumInt:           Target precision:                 4.0000000000
 -------           Initial precision:                4.0000000000
                   Min. precision (optimization):    4.0000000000

 Neglect Functions:          Basis functions:        0.1000000000E-05
 ------------------          Fit functions:          0.1000000000E-05



 ===========================
 L I N E A R   S C A L I N G
 ===========================
  

 Cut-off radii density fit:                        0.1000000000E-07
 Overlap cut-off criterion AO matrix elements:     0.1000000000E-05
 Cut-offs for Coulomb potential and fitted density:0.1000000000E-07
 Cut-off criterion for Coulomb multipole terms:    0.1000000000E-07
 Progressive Convergence parameter:                 0.000000000    
1
 ***************************************************************************************************



                                            ***************************
                                            *  C O M P U T A T I O N  *
                                            ***************************
  

 Number of elements of the density matrix on this node (used, total):       903     10440



 ===========================================
 Numerical Integration : Fuzzy Cells (Becke)
 ===========================================
  
 Becke grid quality: NORMAL         
  
 Lebedev angular grid order:             min:  11 max:  23
 Nr. of radial points:                   min:  46 max:  61

 Total nr. of points:      25719
 Nr. of blocks:              201
 Block length:               128
 Nr. of dummy points:          9


 Test of Precision of the Numerical Integration Grid
 ===================================================

 Integral of the Total Core Density:                   7.99998637091222
 Relative Error:                                      -1.704E-06



 ========================
 Density Fitting (zlmFit)
 ========================
  
 ZlmFit Fit Quality: NORMAL         
  
 Max L-expansion:                        min:   5 max:   6
 Nr. of radial interpolation points:     min:  36 max:  54



 =====
 S C F  ***  ScaSCF  ***
 =====
  
 Initial density matrix is calculated as sum of fragments

 CYCLE    1
 SCF Error: norm([F,P])=      2.073053505528, max([F,P])=      0.612773787716
 orbitals (Q,E):
 ---------------
 A1 :1...16          ( 2.00    -5.1376)  ( 2.00    -3.5527)  ( 2.00    -0.8300)  ( 2.00    -0.5785)
                     ( 2.00    -0.5476)  ( 2.00    -0.4198)  ( 0.00    -0.0750)  ( 0.00    -0.0424)
                     ( 0.00    -0.0381)  ( 0.00    -0.0118)  ( 0.00     0.0449)  ( 0.00     0.0960)
                     ( 0.00     0.1384)  ( 0.00     0.2361)  ( 0.00     0.2410)  ( 0.00     0.2913)
 A2 :1...11          ( 2.00    -0.5260)  ( 0.00     0.0168)  ( 0.00     0.1899)  ( 0.00     0.3395)
                     ( 0.00     0.5125)  ( 0.00     0.7785)  ( 0.00     1.0721)  ( 0.00     1.1486)
                     ( 0.00     1.8103)  ( 0.00     2.0618)  ( 0.00     2.8049)
 E1 :1...15          ( 4.00    -3.5523)  ( 4.00    -0.8082)  ( 4.00    -0.5427)  ( 4.00    -0.5318)
                     ( 4.00    -0.4499)  ( 0.00    -0.0667)  ( 0.00    -0.0297)  ( 0.00    -0.0122)
                     ( 0.00     0.0040)  ( 0.00     0.0466)  ( 0.00     0.0855)  ( 0.00     0.1564)
                     ( 0.00     0.1891)  ( 0.00     0.2472)  ( 0.00     0.2702)

 CYCLE    2
  SDIIS (wt  0.000):  0.3370  0.6630
 A-DIIS (wt  1.000):  0.0886  0.9114
  DIIS coefficients:  0.0886  0.9114
 SCF Error: norm([F,P])=      1.311555612609, max([F,P])=      0.298781019099
 orbitals (Q,E):
 ---------------
 A1 :1...7           ( 2.00    -5.0258)  ( 2.00    -3.4417)  ( 2.00    -0.5022)  ( 2.00    -0.3559)
                     ( 2.00    -0.2584)  ( 2.00    -0.1978)  ( 0.00     0.0245)
 A2 :1...2           ( 2.00    -0.2152)  ( 0.00     0.1424)
 E1 :1...6           ( 4.00    -3.4414)  ( 4.00    -0.4552)  ( 4.00    -0.2435)  ( 4.00    -0.2240)
                     ( 4.00    -0.1335)  ( 0.00     0.0465)

 CYCLE    3
  SDIIS (wt  0.000):  0.0108  0.5540  0.4353
 A-DIIS (wt  1.000):  0.0000  0.6218  0.3782
  DIIS coefficients:  0.0000  0.6218  0.3782
 SCF Error: norm([F,P])=      1.641951000854, max([F,P])=      0.415176651047
 orbitals (Q,E):
 ---------------
 A1 :1...7           ( 2.00    -5.0388)  ( 2.00    -3.4523)  ( 2.00    -0.6268)  ( 2.00    -0.4149)
                     ( 2.00    -0.3607)  ( 2.00    -0.2591)  ( 0.00    -0.0083)
 A2 :1...2           ( 2.00    -0.3229)  ( 0.00     0.1035)
 E1 :1...6           ( 4.00    -3.4525)  ( 4.00    -0.5915)  ( 4.00    -0.3481)  ( 4.00    -0.3344)
                     ( 4.00    -0.2543)  ( 0.00     0.0153)

 CYCLE    4
  SDIIS (wt  0.505):  0.1964  0.0537  0.7499
 A-DIIS (wt  0.495):  0.0000  0.0000  1.0000
  DIIS coefficients:  0.0991  0.0271  0.8738
 SCF Error: norm([F,P])=      0.239741886759, max([F,P])=      0.050044332562
 orbitals (Q,E):
 ---------------
 A1 :1...7           ( 2.00    -5.0178)  ( 2.00    -3.4313)  ( 2.00    -0.6468)  ( 2.00    -0.4288)
                     ( 2.00    -0.3762)  ( 2.00    -0.2790)  ( 0.00    -0.0126)
 A2 :1...2           ( 2.00    -0.3476)  ( 0.00     0.0941)
 E1 :1...6           ( 4.00    -3.4314)  ( 4.00    -0.6177)  ( 4.00    -0.3698)  ( 4.00    -0.3528)
                     ( 4.00    -0.2725)  ( 0.00     0.0079)

 CYCLE    5
  SDIIS (wt  0.601):  0.0293  0.0186  0.4389  0.5132
 A-DIIS (wt  0.399):  0.0000  0.0000  0.3923  0.6077
  DIIS coefficients:  0.0176  0.0112  0.4203  0.5509
 SCF Error: norm([F,P])=      0.187058783592, max([F,P])=      0.040486435376
 orbitals (Q,E):
 ---------------
 A1 :1...7           ( 2.00    -5.0367)  ( 2.00    -3.4511)  ( 2.00    -0.6358)  ( 2.00    -0.4240)
                     ( 2.00    -0.3677)  ( 2.00    -0.2734)  ( 0.00    -0.0105)
 A2 :1...2           ( 2.00    -0.3342)  ( 0.00     0.0987)
 E1 :1...6           ( 4.00    -3.4508)  ( 4.00    -0.6038)  ( 4.00    -0.3578)  ( 4.00    -0.3430)
                     ( 4.00    -0.2626)  ( 0.00     0.0112)

 CYCLE    6
  SDIIS (wt  0.972):  0.0037  0.0011  0.1531  0.2222  0.6200
 A-DIIS (wt  0.028):  0.0000  0.0000  0.0000  0.0000  1.0000
  DIIS coefficients:  0.0036  0.0011  0.1487  0.2158  0.6308
 SCF Error: norm([F,P])=      0.016533614644, max([F,P])=      0.003816074760
 orbitals (Q,E):
 ---------------
 A1 :1...7           ( 2.00    -5.0322)  ( 2.00    -3.4462)  ( 2.00    -0.6363)  ( 2.00    -0.4229)
                     ( 2.00    -0.3681)  ( 2.00    -0.2717)  ( 0.00    -0.0107)
 A2 :1...2           ( 2.00    -0.3350)  ( 0.00     0.0983)
 E1 :1...6           ( 4.00    -3.4460)  ( 4.00    -0.6046)  ( 4.00    -0.3584)  ( 4.00    -0.3435)
                     ( 4.00    -0.2628)  ( 0.00     0.0113)

 CYCLE    7
  SDIIS (wt  1.000):  0.0010  0.0000  0.0480  0.0711  0.2514  0.6285
  DIIS coefficients:  0.0010  0.0000  0.0480  0.0711  0.2514  0.6285
 SCF Error: norm([F,P])=      0.001914383929, max([F,P])=      0.000457556294
 orbitals (Q,E):
 ---------------
 A1 :1...7           ( 2.00    -5.0329)  ( 2.00    -3.4470)  ( 2.00    -0.6364)  ( 2.00    -0.4232)
                     ( 2.00    -0.3682)  ( 2.00    -0.2720)  ( 0.00    -0.0107)
 A2 :1...2           ( 2.00    -0.3351)  ( 0.00     0.0983)
 E1 :1...6           ( 4.00    -3.4468)  ( 4.00    -0.6047)  ( 4.00    -0.3586)  ( 4.00    -0.3435)
                     ( 4.00    -0.2630)  ( 0.00     0.0111)

 CYCLE    8
  SDIIS (wt  1.000):  0.0000 -0.0001  0.0009  0.0017  0.0140  0.2361  0.7474
  DIIS coefficients:  0.0000 -0.0001  0.0009  0.0017  0.0140  0.2361  0.7474
 SCF Error: norm([F,P])=      0.000565088396, max([F,P])=      0.000131317005
 orbitals (Q,E):
 ---------------
 A1 :1...7           ( 2.00    -5.0328)  ( 2.00    -3.4469)  ( 2.00    -0.6364)  ( 2.00    -0.4232)
                     ( 2.00    -0.3682)  ( 2.00    -0.2720)  ( 0.00    -0.0108)
 A2 :1...2           ( 2.00    -0.3351)  ( 0.00     0.0982)
 E1 :1...6           ( 4.00    -3.4467)  ( 4.00    -0.6047)  ( 4.00    -0.3586)  ( 4.00    -0.3436)
                     ( 4.00    -0.2630)  ( 0.00     0.0111)

 CYCLE    9
  SDIIS (wt  1.000):  0.0000 -0.0000 -0.0003 -0.0005 -0.0003  0.0280  0.1028  0.8702
  DIIS coefficients:  0.0000 -0.0000 -0.0003 -0.0005 -0.0003  0.0280  0.1028  0.8702
 SCF Error: norm([F,P])=      0.000026729545, max([F,P])=      0.000010819577
 orbitals (Q,E):
 ---------------
 A1 :1...7           ( 2.00    -5.0328)  ( 2.00    -3.4468)  ( 2.00    -0.6364)  ( 2.00    -0.4232)
                     ( 2.00    -0.3682)  ( 2.00    -0.2720)  ( 0.00    -0.0108)
 A2 :1...2           ( 2.00    -0.3351)  ( 0.00     0.0982)
 E1 :1...6           ( 4.00    -3.4467)  ( 4.00    -0.6047)  ( 4.00    -0.3586)  ( 4.00    -0.3436)
                     ( 4.00    -0.2630)  ( 0.00     0.0111)

 CYCLE   10
  SDIIS (wt  1.000):  0.0000 -0.0000 -0.0001 -0.0001 -0.0001  0.0015  0.0086  0.1708  0.8192
  DIIS coefficients:  0.0000 -0.0000 -0.0001 -0.0001 -0.0001  0.0015  0.0086  0.1708  0.8192
 SCF Error: norm([F,P])=      0.000005601704, max([F,P])=      0.000002452918
 orbitals (Q,E):
 ---------------
 A1 :1...7           ( 2.00    -5.0328)  ( 2.00    -3.4468)  ( 2.00    -0.6364)  ( 2.00    -0.4232)
                     ( 2.00    -0.3682)  ( 2.00    -0.2720)  ( 0.00    -0.0108)
 A2 :1...2           ( 2.00    -0.3351)  ( 0.00     0.0982)
[...]
 
                        ***********************************
                        CARTESIAN AXIS REPRESENTATION

                        ==== total shielding tensor
                        -----------------------------------
                              28.953    -0.828    -0.916
                              -0.828    29.909     1.586
                              -0.916     1.586    35.892
                        -----------------------------------
                                  isotropic =     31.585

                        ***********************************
                        -----------------------------------
                        PRINCIPAL AXIS REPRESENTATION

                        ==== Principal components:

                              28.475    29.833    36.446
 
                        ==== Principal Axis System:

                               0.866     0.479    -0.145
                               0.500    -0.829     0.251
                              -0.000     0.289     0.957
                        -----------------------------------
################################################################################
********************************************************************************
****  N U C L E U S : H(12)
 
 ADF-GUI atom: H(12)
 Internal NMR numbering of atoms: H(12)
 
 
================================================================================
 
 
===  PARAMAGNETIC NMR SHIELDING TENSORS (ppm)
 
    ===     paramagnetic b^(1) tensor       ===     paramagnetic u^(1) tensor
    -----------------------------------     -----------------------------------
           0.522     2.744     0.403             -10.740    -8.269    -5.470
           2.744    -2.720     0.836              -8.269     9.366    -1.793
           0.403     0.836    -2.359              -5.470    -1.793     7.191
    -----------------------------------     -----------------------------------
              isotropic =     -1.519                  isotropic =      1.939

    ===     paramagnetic s^(1) tensor       ===     paramagnetic gauge tensor
    -----------------------------------     -----------------------------------
          11.660     5.392     4.813               0.595     0.169    -0.263
           5.392    -3.355     1.257               0.169    -0.001     0.055
           4.813     1.257    -2.199              -0.263     0.055     1.205
    -----------------------------------     -----------------------------------
              isotropic =      2.035                  isotropic =      0.599

                        ***********************************
                        CARTESIAN AXIS REPRESENTATION

                        ==== total paramagnetic tensor
                        -----------------------------------
                               2.038     0.036    -0.518
                               0.036     3.289     0.355
                              -0.518     0.355     3.838
                        -----------------------------------
                                  isotropic =      3.055

                        ***********************************
                        -----------------------------------
                        PRINCIPAL AXIS REPRESENTATION

                        ==== Principal components:

                               1.888     3.164     4.113
 
                        ==== Principal Axis System:

                               0.958     0.187    -0.218
                              -0.093     0.921     0.379
                               0.271    -0.342     0.900
                        -----------------------------------
 
================================================================================
 
 
===  DIAMAGNETIC NMR SHIELDING TENSORS (ppm)
 
    ===       diamagnetic core tensor       ===    diamagnetic valence tensor
    -----------------------------------     -----------------------------------
           0.335     0.029     0.178              33.835     1.886     2.590
           0.029    -0.185     0.007               1.886    26.698    -0.132
           0.178     0.007    -0.150               2.590    -0.132    24.642
    -----------------------------------     -----------------------------------
              isotropic =     -0.000                  isotropic =     28.392

                        ***********************************
                        CARTESIAN AXIS REPRESENTATION

                        ==== total diamagnetic tensor
                        -----------------------------------
                              34.170     1.914     2.769
                               1.914    26.513    -0.125
                               2.769    -0.125    24.492
                        -----------------------------------
                                  isotropic =     28.392

                        ***********************************
                        -----------------------------------
                        PRINCIPAL AXIS REPRESENTATION

                        ==== Principal components:

                              23.612    26.279    35.285
 
                        ==== Principal Axis System:

                              -0.286    -0.134     0.949
                               0.229     0.952     0.204
                               0.931    -0.275     0.241
                        -----------------------------------
 
================================================================================
 
 
===  TOTAL NMR SHIELDING TENSOR (ppm)
 
                        ***********************************
                        CARTESIAN AXIS REPRESENTATION

                        ==== total shielding tensor
                        -----------------------------------
                              36.208     1.950     2.251
                               1.950    29.802     0.230
                               2.251     0.230    28.330
                        -----------------------------------
                                  isotropic =     31.447

                        ***********************************
                        -----------------------------------
                        PRINCIPAL AXIS REPRESENTATION

                        ==== Principal components:

                              27.687    29.344    37.310
 
                        ==== Principal Axis System:

                              -0.286     0.198    -0.937
                               0.161    -0.954    -0.251
                               0.944     0.223    -0.241
                        -----------------------------------
################################################################################
********************************************************************************
****  N U C L E U S : H(13)
 
 ADF-GUI atom: H(13)
 Internal NMR numbering of atoms: H(13)
 
 
================================================================================
 
 
===  PARAMAGNETIC NMR SHIELDING TENSORS (ppm)
 
    ===     paramagnetic b^(1) tensor       ===     paramagnetic u^(1) tensor
    -----------------------------------     -----------------------------------
          -4.286    -0.032     0.522              11.501     4.571     1.183
          -0.032     2.088     0.767               4.571   -12.875    -5.634
           0.522     0.767    -2.359               1.183    -5.634     7.191
    -----------------------------------     -----------------------------------
              isotropic =     -1.519                  isotropic =      1.939

    ===     paramagnetic s^(1) tensor       ===     paramagnetic gauge tensor
    -----------------------------------     -----------------------------------
          -4.271    -3.806    -1.318               0.001    -0.174     0.180
          -3.806    12.576     4.796              -0.174     0.592    -0.200
          -1.318     4.796    -2.199               0.180    -0.200     1.205
    -----------------------------------     -----------------------------------
              isotropic =      2.035                  isotropic =      0.599

                        ***********************************
                        CARTESIAN AXIS REPRESENTATION

                        ==== total paramagnetic tensor
                        -----------------------------------
                               2.945     0.560     0.567
                               0.560     2.382    -0.271
                               0.567    -0.271     3.838
                        -----------------------------------
                                  isotropic =      3.055

                        ***********************************
                        -----------------------------------
                        PRINCIPAL AXIS REPRESENTATION

                        ==== Principal components:

                               1.888     3.164     4.113
 
                        ==== Principal Axis System:

                               0.560     0.704     0.437
                              -0.783     0.622     0.001
                              -0.271    -0.342     0.900
                        -----------------------------------
 
================================================================================
 
 
===  DIAMAGNETIC NMR SHIELDING TENSORS (ppm)
 
    ===       diamagnetic core tensor       ===    diamagnetic valence tensor
    -----------------------------------     -----------------------------------
          -0.080    -0.211    -0.083              26.849    -2.148    -1.409
          -0.211     0.229     0.158              -2.148    33.684     2.177
          -0.083     0.158    -0.150              -1.409     2.177    24.642
    -----------------------------------     -----------------------------------
              isotropic =     -0.000                  isotropic =     28.392

                        ***********************************
                        CARTESIAN AXIS REPRESENTATION

                        ==== total diamagnetic tensor
                        -----------------------------------
                              26.769    -2.358    -1.493
                              -2.358    33.914     2.335
                              -1.493     2.335    24.492
                        -----------------------------------
                                  isotropic =     28.392

                        ***********************************
                        -----------------------------------
                        PRINCIPAL AXIS REPRESENTATION

                        ==== Principal components:

                              23.612    26.279    35.285
 
                        ==== Principal Axis System:

                               0.341     0.892     0.298
                              -0.133     0.360    -0.924
                               0.931    -0.275    -0.241
                        -----------------------------------
 
================================================================================
 
 
===  TOTAL NMR SHIELDING TENSOR (ppm)
 
                        ***********************************
                        CARTESIAN AXIS REPRESENTATION

                        ==== total shielding tensor
                        -----------------------------------
                              29.714    -1.799    -0.926
                              -1.799    36.295     2.065
                              -0.926     2.065    28.330
                        -----------------------------------
                                  isotropic =     31.447

                        ***********************************
                        -----------------------------------
                        PRINCIPAL AXIS REPRESENTATION

                        ==== Principal components:

                              27.687    29.344    37.310
 
                        ==== Principal Axis System:

                               0.283     0.926     0.251
                              -0.167     0.306    -0.937
                               0.944    -0.223    -0.241
                        -----------------------------------
################################################################################
********************************************************************************
****  N U C L E U S : H(14)
 
 ADF-GUI atom: H(14)
 Internal NMR numbering of atoms: H(14)
 
 
================================================================================
 
 
===  PARAMAGNETIC NMR SHIELDING TENSORS (ppm)
 
    ===     paramagnetic b^(1) tensor       ===     paramagnetic u^(1) tensor
    -----------------------------------     -----------------------------------
           0.208     0.047    -1.619               0.945    -0.738     4.417
           0.047     0.262    -2.805              -0.738     0.094     7.650
          -1.619    -2.805     1.018               4.417     7.650   -13.618
    -----------------------------------     -----------------------------------
              isotropic =      0.496                  isotropic =     -4.193

    ===     paramagnetic s^(1) tensor       ===     paramagnetic gauge tensor
    -----------------------------------     -----------------------------------
           1.940     0.202    -2.717               1.062     0.044    -0.132
           0.202     2.173    -4.706               0.044     1.113    -0.229
          -2.717    -4.706    13.614              -0.132    -0.229     1.187
    -----------------------------------     -----------------------------------
              isotropic =      5.909                  isotropic =      1.121

                        ***********************************
                        CARTESIAN AXIS REPRESENTATION

                        ==== total paramagnetic tensor
                        -----------------------------------
                               4.155    -0.444    -0.052
                              -0.444     3.642    -0.090
                              -0.052    -0.090     2.201
                        -----------------------------------
                                  isotropic =      3.333

                        ***********************************
                        -----------------------------------
                        PRINCIPAL AXIS REPRESENTATION

                        ==== Principal components:

                               2.192     3.394     4.411
 
                        ==== Principal Axis System:

                               0.043    -0.498     0.866
                               0.075    -0.863    -0.500
                               0.996     0.087     0.000
                        -----------------------------------
 
================================================================================
 
 
===  DIAMAGNETIC NMR SHIELDING TENSORS (ppm)
 
    ===       diamagnetic core tensor       ===    diamagnetic valence tensor
    -----------------------------------     -----------------------------------
          -0.197     0.011    -0.016              24.995     1.262    -0.848
           0.011    -0.185    -0.028               1.262    26.452    -1.468
          -0.016    -0.028     0.382              -0.848    -1.468    33.309
    -----------------------------------     -----------------------------------
              isotropic =      0.000                  isotropic =     28.252

                        ***********************************
                        CARTESIAN AXIS REPRESENTATION

                        ==== total diamagnetic tensor
                        -----------------------------------
                              24.798     1.272    -0.864
                               1.272    26.267    -1.496
                              -0.864    -1.496    33.691
                        -----------------------------------
                                  isotropic =     28.252

                        ***********************************
                        -----------------------------------
                        PRINCIPAL AXIS REPRESENTATION

                        ==== Principal components:

                              24.063    26.582    34.111
 
                        ==== Principal Axis System:

                               0.866    -0.486    -0.118
                              -0.500    -0.842    -0.204
                              -0.000    -0.236     0.972
                        -----------------------------------
 
================================================================================
 
 
===  TOTAL NMR SHIELDING TENSOR (ppm)
 
                        ***********************************
                        CARTESIAN AXIS REPRESENTATION

                        ==== total shielding tensor
                        -----------------------------------
                              28.953     0.828    -0.916
                               0.828    29.909    -1.586
                              -0.916    -1.586    35.892
                        -----------------------------------
                                  isotropic =     31.585

                        ***********************************
                        -----------------------------------
                        PRINCIPAL AXIS REPRESENTATION

                        ==== Principal components:

                              28.475    29.833    36.446
 
                        ==== Principal Axis System:

                               0.866    -0.479    -0.145
                              -0.500    -0.829    -0.251
                              -0.000    -0.289     0.957
                        -----------------------------------
 *******************************************************************************

                             N M R   E X I T
 NORMAL TERMINATION



 =================
 Timing Statistics
 =================
  
 Total Used :                     CPU=       16.58      System=        0.12     Elapsed=       16.99

 Calls  Section                     ( Mean, Percentage )
 ---------------------------------------------------------------------------------------------------
     3  ><      ................      0.00    0.04             0.00    6.04             0.01    0.09
     1  INIT    ................      0.40    2.44             0.01    6.75             0.42    2.45
     1  RDEIGX  ................      0.04    0.25             0.01    9.11             0.05    0.32
     1  B1COR   ................      0.11    0.64             0.00    0.02             0.11    0.63
     1  AOF1K   ................      0.73    4.43             0.01    6.35             0.75    4.42
     1  AOF     ................      0.05    0.30             0.00    0.05             0.05    0.29
    13  AOPKK   ................      0.17   13.00             0.00   19.55             0.17   13.31
    13  XSIGP   ................      0.00    0.11             0.00    1.64             0.00    0.12
    13  AODKKK  ................      0.99   77.36             0.00   50.35             1.01   76.97
    13  XDV     ................      0.00    0.02             0.00    0.02             0.00    0.02
    13  SIGDC   ................      0.02    1.40             0.00    0.11             0.02    1.37
    13  XSIGD   ................      0.00    0.00             0.00    0.00             0.00    0.00
     1  EXIT PROCEDURE .........      0.00    0.01             0.00    0.01             0.00    0.01


 Currently Open Files (EXIT00)
 ====================

 Unit    Access Format  Status   Type       Ident (file)
 -------------------------------------------------------
   3      SEQ    FORM   TRANSP  NORMAL      LOGFILE
                                          ( /home/milias/work/projects/open-collection/theoretical_chemistry/projects/nmr_diplomovky/reference_compounds/trimethylsilane/ams/nmr_shieldings/trimethyl-silane.nmrshield_b3lyp_tzp_sc.logfile )
