 argument  1 = /home/milias/Work/open-collection/theoretical_chemistry/projects/nmr_diplomovky/reference_compounds/phosphoric_acid/nwchem/cosmo-chcl3/h3po4.geopt_freq_nmrshield_b3lyp_6-311++g2d_2p_cosmo-chcl3.nw
 


============================== echo of input deck ==============================
echo

start molecule

# https://nwchemgit.github.io/Memory.html
memory total 40 gb

print low

title "VX"
charge 0

geometry units angstroms print xyz autosym
  load format xyz h3po4_startgeom.xyz
end

basis
  * library 6-311++G(2d,2p)
end

dft
  #grid fine
  grid huge
  xc b3lyp
  mult 1
# Reduce output during geometry optimization
  noprint "final vectors analysis"
end

driver
  clear
  tight
  linopt 0
  maxiter 9999
  xyz h3po4_geom
end

property
  giao
  shielding
end

cosmo
  solvent chcl3
end

task dft optimize
task dft freq
task dft property

================================================================================


                                         
                                         
 
 
             Northwest Computational Chemistry Package (NWChem) 7.0.1
             --------------------------------------------------------
 
 
                    Environmental Molecular Sciences Laboratory
                       Pacific Northwest National Laboratory
                                Richland, WA 99352
 
                              Copyright (c) 1994-2020
                       Pacific Northwest National Laboratory
                            Battelle Memorial Institute
 
             NWChem is an open-source computational chemistry package
                        distributed under the terms of the
                      Educational Community License (ECL) 2.0
             A copy of the license is included with this distribution
                              in the LICENSE.TXT file
 
                                  ACKNOWLEDGMENT
                                  --------------

            This software and its documentation were developed at the
            EMSL at Pacific Northwest National Laboratory, a multiprogram
            national laboratory, operated for the U.S. Department of Energy
            by Battelle under Contract Number DE-AC05-76RL01830. Support
            for this work was provided by the Department of Energy Office
            of Biological and Environmental Research, Office of Basic
            Energy Sciences, and the Office of Advanced Scientific Computing.


           Job information
           ---------------

    hostname        = comp21
    program         = /home/milias/Work/qch/software/nwchem_suite/nwchem_master/bin/LINUX64/nwchem
    date            = Thu Mar  4 01:14:50 2021

    compiled        = Sun_Jan_31_23:21:07_2021
    source          = /home/milias/Work/qch/software/nwchem_suite/nwchem_master
    nwchem branch   = 7.0.0
    nwchem revision = nwchem_on_git-2308-gc943026
    ga revision     = 5.8.0
    use scalapack   = F
    input           = /home/milias/Work/open-collection/theoretical_chemistry/projects/nmr_diplomovky/reference_compounds/phosphoric_acid/nwchem/cosmo-chcl3/h3po4.geopt_freq_nmrshield_b3lyp_6-311++g2d_2p_cosmo-chcl3.nw
    prefix          = molecule.
    data base       = ./molecule.db
    status          = startup
    nproc           =       12
    time left       =     -1s



           Memory information
           ------------------

    heap     = 1342177276 doubles =  10240.0 Mbytes
    stack    = 1342177281 doubles =  10240.0 Mbytes
    global   = 2684354560 doubles =  20480.0 Mbytes (distinct from heap & stack)
    total    = 5368709117 doubles =  40960.0 Mbytes
    verify   = yes
    hardfail = no 


           Directory information
           ---------------------
 
  0 permanent = .
  0 scratch   = .
 
 
 
 
                                NWChem Input Module
                                -------------------
 
 
                                        VX
                                        --

 Scaling coordinates for geometry "geometry" by  1.889725989
 (inverse scale =  0.529177249)


          ------
          auto-z
          ------
  no constraints, skipping   0.000000000000000E+000
  no constraints, skipping   0.000000000000000E+000
 
 
                             Geometry "geometry" -> ""
                             -------------------------
 
 Output coordinates in angstroms (scale by  1.889725989 to convert to a.u.)
 
  No.       Tag          Charge          X              Y              Z
 ---- ---------------- ---------- -------------- -------------- --------------
    1 P                   15.0000     0.00000000     0.00000000     0.10854789
    2 O                    8.0000    -1.22532430    -0.71445342    -0.57760507
    3 O                    8.0000    -0.00607266     1.41838868    -0.57760507
    4 O                    8.0000     1.23139696    -0.70393527    -0.57760507
    5 O                    8.0000     0.00000000    -0.00000000     1.57783180
    6 H                    1.0000    -1.50776086    -1.52171086    -0.12945040
    7 H                    1.0000    -0.56395983     2.06661463    -0.12945040
    8 H                    1.0000     2.07172069    -0.54490378    -0.12945040
 
      Atomic Mass 
      ----------- 
 
      P                 30.973760
      O                 15.994910
      H                  1.007825
 

 Effective nuclear repulsion energy (a.u.)     282.3241605007

            Nuclear Dipole moment (a.u.) 
            ----------------------------
        X                 Y               Z
 ---------------- ---------------- ----------------
    -0.0000000000     0.0000000000     0.0000000000
 
      Symmetry information
      --------------------
 
 Group name             C3        
 Group number              5
 Group order               3
 No. of unique centers     4
 
      Symmetry unique atoms
 
     1    2    5    6
 


                                Z-matrix (autoz)
                                -------- 

 Units are Angstrom for bonds and degrees for angles
 
      Type          Name      I     J     K     L     M      Value
      ----------- --------  ----- ----- ----- ----- ----- ----------
    1 Stretch                  1     2                       1.57565
    2 Stretch                  1     3                       1.57565
    3 Stretch                  1     4                       1.57565
    4 Stretch                  1     5                       1.46928
    5 Stretch                  2     6                       0.96555
    6 Stretch                  3     7                       0.96555
    7 Stretch                  4     8                       0.96555
    8 Bend                     1     2     6               113.85697
    9 Bend                     1     3     7               113.85697
   10 Bend                     1     4     8               113.85697
   11 Bend                     2     1     3               102.44748
   12 Bend                     2     1     4               102.44748
   13 Bend                     2     1     5               115.81541
   14 Bend                     3     1     4               102.44748
   15 Bend                     3     1     5               115.81541
   16 Bend                     4     1     5               115.81541
   17 Torsion                  2     1     3     7          88.07700
   18 Torsion                  2     1     4     8        -165.97472
   19 Torsion                  3     1     2     6        -165.97472
   20 Torsion                  3     1     4     8          88.07700
   21 Torsion                  4     1     2     6          88.07700
   22 Torsion                  4     1     3     7        -165.97472
   23 Torsion                  5     1     2     6         -38.94886
   24 Torsion                  5     1     3     7         -38.94886
   25 Torsion                  5     1     4     8         -38.94886
 
 
            XYZ format geometry
            -------------------
     8
 geometry
 P                     0.00000000     0.00000000     0.10854789
 O                    -1.22532430    -0.71445342    -0.57760507
 O                    -0.00607266     1.41838868    -0.57760507
 O                     1.23139696    -0.70393527    -0.57760507
 O                     0.00000000    -0.00000000     1.57783180
 H                    -1.50776086    -1.52171086    -0.12945040
 H                    -0.56395983     2.06661463    -0.12945040
 H                     2.07172069    -0.54490378    -0.12945040
 
 ==============================================================================
                                internuclear distances
 ------------------------------------------------------------------------------
       center one      |      center two      | atomic units |  angstroms
 ------------------------------------------------------------------------------
    2 O                |   1 P                |     2.97754  |     1.57565
    3 O                |   1 P                |     2.97754  |     1.57565
    4 O                |   1 P                |     2.97754  |     1.57565
    5 O                |   1 P                |     2.77654  |     1.46928
    6 H                |   2 O                |     1.82462  |     0.96555
    7 H                |   3 O                |     1.82462  |     0.96555
    8 H                |   4 O                |     1.82462  |     0.96555
 ------------------------------------------------------------------------------
                         number of included internuclear distances:          7
 ==============================================================================



 ==============================================================================
                                 internuclear angles
 ------------------------------------------------------------------------------
        center 1       |       center 2       |       center 3       |  degrees
 ------------------------------------------------------------------------------
    2 O                |   1 P                |   3 O                |   102.45
    2 O                |   1 P                |   4 O                |   102.45
    2 O                |   1 P                |   5 O                |   115.82
    3 O                |   1 P                |   4 O                |   102.45
    3 O                |   1 P                |   5 O                |   115.82
    4 O                |   1 P                |   5 O                |   115.82
    1 P                |   2 O                |   6 H                |   113.86
    1 P                |   3 O                |   7 H                |   113.86
    1 P                |   4 O                |   8 H                |   113.86
 ------------------------------------------------------------------------------
                            number of included internuclear angles:          9
 ==============================================================================



  library name resolved from: environment
  library file name is: </usr/share/nwchem/libraries/>
  


 Summary of "ao basis" -> "" (cartesian)
 ------------------------------------------------------------------------------
       Tag                 Description            Shells   Functions and Types
 ---------------- ------------------------------  ------  ---------------------
 *                      6-311++G(2d,2p)               on all atoms 


 
  Deleted DRIVER restart files 
 
 
 
                           NWChem Geometry Optimization
                           ----------------------------
 
 
 
 
                                        VX
 
 
  no constraints, skipping   0.000000000000000E+000
 maximum gradient threshold         (gmax) =   0.000015
 rms gradient threshold             (grms) =   0.000010
 maximum cartesian step threshold   (xmax) =   0.000060
 rms cartesian step threshold       (xrms) =   0.000040
 fixed trust radius                (trust) =   0.300000
 maximum step size to saddle      (sadstp) =   0.100000
 energy precision                  (eprec) =   5.0D-06
 maximum number of steps          (nptopt) = 9999
 initial hessian option           (inhess) =    0
 line search option               (linopt) =    0
 hessian update option            (modupd) =    1
 saddle point option              (modsad) =    0
 initial eigen-mode to follow     (moddir) =    0
 initial variable to follow       (vardir) =    0
 follow first negative mode     (firstneg) =    T
 apply conjugacy                    (opcg) =    F
 source of zmatrix                         =   autoz   


          -------------------
          Energy Minimization
          -------------------

 
 Names of Z-matrix variables 
    1              2              3              4              5         
    6              7              8              9             10         
   11             12             13             14             15         
   16             17             18             19             20         
   21             22             23             24             25         
 
 Variables with the same non-blank name are constrained to be equal
 
 
 Using diagonal initial Hessian 
 Scaling for Hessian diagonals: bonds = 1.00  angles = 0.25  torsions = 0.10

          --------
          Step   0
          --------
 
                                 NWChem DFT Module
                                 -----------------
 
 
                                        VX
 
 
                      Basis "ao basis" -> "ao basis" (cartesian)
                      -----
  P (Phosphorous)
  ---------------
            Exponent  Coefficients 
       -------------- ---------------------------------------------------------
  1 S  7.74924000E+04  0.000781
  1 S  1.16058000E+04  0.006068
  1 S  2.64596000E+03  0.031160
  1 S  7.54976000E+02  0.123431
  1 S  2.48755000E+02  0.378209
  1 S  9.11565000E+01  0.563262
 
  2 S  9.11565000E+01  0.160255
  2 S  3.62257000E+01  0.627647
  2 S  1.52113000E+01  0.263849
 
  3 S  4.79417000E+00  1.000000
 
  4 S  1.80793000E+00  1.000000
 
  5 S  3.56816000E-01  1.000000
 
  6 S  1.14783000E-01  1.000000
 
  7 P  3.84843000E+02  0.009206
  7 P  9.05521000E+01  0.069874
  7 P  2.91339000E+01  0.292470
  7 P  1.08862000E+01  0.728103
 
  8 P  4.35259000E+00  0.628349
  8 P  1.77706000E+00  0.428044
 
  9 P  6.97005000E-01  1.000000
 
 10 P  2.53532000E-01  1.000000
 
 11 P  6.84930000E-02  1.000000
 
 12 S  3.48000000E-02  1.000000
 
 13 P  3.48000000E-02  1.000000
 
 14 D  1.10000000E+00  1.000000
 
 15 D  2.75000000E-01  1.000000
 
  O (Oxygen)
  ----------
            Exponent  Coefficients 
       -------------- ---------------------------------------------------------
  1 S  8.58850000E+03  0.001895
  1 S  1.29723000E+03  0.014386
  1 S  2.99296000E+02  0.070732
  1 S  8.73771000E+01  0.240001
  1 S  2.56789000E+01  0.594797
  1 S  3.74004000E+00  0.280802
 
  2 S  4.21175000E+01  0.113889
  2 S  9.62837000E+00  0.920811
  2 S  2.85332000E+00 -0.003274
 
  3 P  4.21175000E+01  0.036511
  3 P  9.62837000E+00  0.237153
  3 P  2.85332000E+00  0.819702
 
  4 S  9.05661000E-01  1.000000
 
  5 P  9.05661000E-01  1.000000
 
  6 S  2.55611000E-01  1.000000
 
  7 P  2.55611000E-01  1.000000
 
  8 S  8.45000000E-02  1.000000
 
  9 P  8.45000000E-02  1.000000
 
 10 D  2.58400000E+00  1.000000
 
 11 D  6.46000000E-01  1.000000
 
  H (Hydrogen)
  ------------
            Exponent  Coefficients 
       -------------- ---------------------------------------------------------
  1 S  3.38650000E+01  0.025494
  1 S  5.09479000E+00  0.190373
  1 S  1.15879000E+00  0.852161
 
  2 S  3.25840000E-01  1.000000
 
  3 S  1.02741000E-01  1.000000
 
  4 S  3.60000000E-02  1.000000
 
  5 P  1.50000000E+00  1.000000
 
  6 P  3.75000000E-01  1.000000
 


 Summary of "ao basis" -> "ao basis" (cartesian)
 ------------------------------------------------------------------------------
       Tag                 Description            Shells   Functions and Types
 ---------------- ------------------------------  ------  ---------------------
 P                      6-311++G(2d,2p)             15       37   7s6p2d
 O                      6-311++G(2d,2p)             11       29   5s4p2d
 H                      6-311++G(2d,2p)              6       10   4s2p


 
 
 solvent parameters
 solvname_short: chcl3   
 solvname_long:  chloroform                         
 dielec:        4.7113
 dielecinf:     2.0906

          ---------------
          -cosmo- solvent
          ---------------
 Cosmo: York-Karplus, doi: 10.1021/jp992097l
 dielectric constant -eps-     =   4.71
 screen = (eps-1)/(eps    )    =   0.78774
 surface charge correction     = lagrangian
 -lineq- algorithm             =   0
 -bem- low  level              =   2
 -bem- from -octahedral-
 gaussian surface charge width =   0.98000
 degree of switching           =   1.00000
 switching function tolerance  =   0.00010
 atomic radii = 
 --------------
    1 15.000  2.106
    2  8.000  1.720
    3  8.000  1.720
    4  8.000  1.720
    5  8.000  1.720
    6  1.000  1.300
    7  1.000  1.300
    8  1.000  1.300

 solvent accessible surface
 --------------------------

 ---------- ATOMIC COORDINATES (A.U.) ------------ VDWR(ANG.) --
     1    0.00000000    0.00000000    0.20512577     2.106
     2   -2.31552718   -1.35012119   -1.09151531     1.720
     3   -0.01147566    2.68036596   -1.09151531     1.720
     4    2.32700284   -1.33024476   -1.09151531     1.720
     5    0.00000000   -0.00000000    2.98166977     1.720
     6   -2.84925488   -2.87561656   -0.24462578     1.300
     7   -1.06572955    3.90533538   -0.24462578     1.300
     8    3.91498443   -1.02971883   -0.24462578     1.300
 number of segments per atom =         32
 number of   points per atom =         32
 atom (   nspa,  nppa )
 ----------------------
    1 (     10,     0 )       0
    2 (     18,     0 )       0
    3 (     21,     0 )       0
    4 (     18,     0 )       0
    5 (     24,     0 )       0
    6 (     19,     0 )       0
    7 (     17,     0 )       0
    8 (     16,     0 )       0
 number of -cosmo- surface points =      143
 molecular surface =    103.373 angstrom**2
 molecular volume  =     57.006 angstrom**3
 G(cav/disp)       =      1.377 kcal/mol
 ...... end of -cosmo- initialization ......


  Caching 1-el integrals 
  Rotation of axis 
   Time after variat. SCF:      1.7
   Time prior to 1st pass:      1.7
  Resetting Diis


         Total DFT energy =     -644.341794354664
      One electron energy =    -1450.062988815459
           Coulomb energy =      582.274463020919
    Exchange-Corr. energy =      -59.021148403795
 Nuclear repulsion energy =      282.324160500696

             COSMO energy =        0.143719342975

 Numeric. integr. density =       49.999998502994

     Total iterative time =     45.2s


                                   COSMO solvation results
                                   -----------------------

                 gas phase energy =      -644.320110856564
                 sol phase energy =      -644.341794354664
 (electrostatic) solvation energy =         0.021683498100 (   13.61 kcal/mol)
 
                  Occupations of the irreducible representations
                  ----------------------------------------------
 
                     irrep           alpha         beta
                     --------     --------     --------
                     a                11.0         11.0
                     e+               14.0         14.0
                     e-                0.0          0.0
 
  Rotation of axis 


                         DFT ENERGY GRADIENTS

    atom               coordinates                        gradient
                 x          y          z           x          y          z
   1 P       0.000000   0.000000   0.205126   -0.000000   0.000000  -0.019003
   2 O      -2.315527  -1.350121  -1.091515    0.012167   0.001418   0.005702
   3 O      -0.011476   2.680366  -1.091515   -0.004856  -0.011246   0.005702
   4 O       2.327003  -1.330245  -1.091515   -0.007311   0.009828   0.005702
   5 O       0.000000  -0.000000   2.981670    0.000000  -0.000000  -0.006350
   6 H      -2.849255  -2.875617  -0.244626   -0.001508  -0.001091   0.002749
   7 H      -1.065730   3.905335  -0.244626   -0.000191   0.001852   0.002749
   8 H       3.914984  -1.029719  -0.244626    0.001699  -0.000760   0.002749
 
  no constraints, skipping   0.000000000000000E+000

@ Step       Energy      Delta E   Gmax     Grms     Xrms     Xmax   Walltime
@ ---- ---------------- -------- -------- -------- -------- -------- --------
@    0    -644.34179435  0.0D+00  0.01164  0.00446  0.00000  0.00000     55.6
                                                                    

  no constraints, skipping   0.000000000000000E+000
  no constraints, skipping   0.000000000000000E+000
  no constraints, skipping   0.000000000000000E+000
  no constraints, skipping   0.000000000000000E+000
  no constraints, skipping   0.000000000000000E+000
  no constraints, skipping   0.000000000000000E+000
  no constraints, skipping   0.000000000000000E+000
  no constraints, skipping   0.000000000000000E+000

          --------
          Step   1
          --------
 
                                 NWChem DFT Module
                                 -----------------
 
 
                                        VX
 
 
 
 
 solvent parameters
 solvname_short: chcl3   
 solvname_long:  chloroform                         
 dielec:        4.7113
 dielecinf:     2.0906

          ---------------
          -cosmo- solvent
          ---------------
 Cosmo: York-Karplus, doi: 10.1021/jp992097l
 dielectric constant -eps-     =   4.71
 screen = (eps-1)/(eps    )    =   0.78774
 surface charge correction     = lagrangian
 -lineq- algorithm             =   0
 -bem- low  level              =   2
 -bem- from -octahedral-
 gaussian surface charge width =   0.98000
 degree of switching           =   1.00000
 switching function tolerance  =   0.00010
 atomic radii = 
 --------------
    1 15.000  2.106
    2  8.000  1.720
    3  8.000  1.720
    4  8.000  1.720
    5  8.000  1.720
    6  1.000  1.300
    7  1.000  1.300
    8  1.000  1.300

 solvent accessible surface
 --------------------------

 ---------- ATOMIC COORDINATES (A.U.) ------------ VDWR(ANG.) --
     1    0.00000000    0.00000000    0.25377890     2.106
     2   -2.32150556   -1.34212869   -1.09161971     1.720
     3   -0.00156476    2.68154714   -1.09161971     1.720
     4    2.32307032   -1.33941844   -1.09161971     1.720
     5    0.00000000    0.00000000    3.04034405     1.720
     6   -2.84763538   -2.88330996   -0.28029719     1.300
     7   -1.07320199    3.90777956   -0.28029719     1.300
     8    3.92083736   -1.02446960   -0.28029719     1.300
 number of segments per atom =         32
 number of   points per atom =         32
 atom (   nspa,  nppa )
 ----------------------
    1 (     10,     0 )       0
    2 (     18,     0 )       0
    3 (     21,     0 )       0
    4 (     18,     0 )       0
    5 (     24,     0 )       0
    6 (     19,     0 )       0
    7 (     17,     0 )       0
    8 (     17,     0 )       0
 number of -cosmo- surface points =      144
 molecular surface =    103.542 angstrom**2
 molecular volume  =     57.152 angstrom**3
 G(cav/disp)       =      1.378 kcal/mol
 ...... end of -cosmo- initialization ......


  Caching 1-el integrals 
  Rotation of axis 
   Time after variat. SCF:     55.8
   Time prior to 1st pass:     55.8


         Total DFT energy =     -644.342217413051
      One electron energy =    -1446.956877875190
           Coulomb energy =      580.694295906062
    Exchange-Corr. energy =      -59.000386190551
 Nuclear repulsion energy =      280.789482276856

             COSMO energy =        0.131268469773

 Numeric. integr. density =       49.999998774165

     Total iterative time =     43.2s


                                   COSMO solvation results
                                   -----------------------

                 gas phase energy =      -644.320674610846
                 sol phase energy =      -644.342217413051
 (electrostatic) solvation energy =         0.021542802205 (   13.52 kcal/mol)
 
                  Occupations of the irreducible representations
                  ----------------------------------------------
 
                     irrep           alpha         beta
                     --------     --------     --------
                     a                11.0         11.0
                     e+               14.0         14.0
                     e-                0.0          0.0
 
  Rotation of axis 


                         DFT ENERGY GRADIENTS

    atom               coordinates                        gradient
                 x          y          z           x          y          z
   1 P       0.000000   0.000000   0.253779   -0.000000   0.000000  -0.009803
   2 O      -2.321506  -1.342129  -1.091620    0.005954  -0.003392   0.001084
   3 O      -0.001565   2.681547  -1.091620   -0.005915  -0.003460   0.001084
   4 O       2.323070  -1.339418  -1.091620   -0.000039   0.006852   0.001084
   5 O       0.000000   0.000000   3.040344    0.000000   0.000000   0.002844
   6 H      -2.847635  -2.883310  -0.280297   -0.000883   0.001560   0.001235
   7 H      -1.073202   3.907780  -0.280297    0.001792  -0.000015   0.001235
   8 H       3.920837  -1.024470  -0.280297   -0.000910  -0.001545   0.001235
 
  no constraints, skipping   0.000000000000000E+000

  Step       Energy      Delta E   Gmax     Grms     Xrms     Xmax   Walltime
  ---- ---------------- -------- -------- -------- -------- -------- --------
@    1    -644.34221741 -4.2D-04  0.00378  0.00162  0.02047  0.05843    107.7
                                                                    

  no constraints, skipping   0.000000000000000E+000
  no constraints, skipping   0.000000000000000E+000
  no constraints, skipping   0.000000000000000E+000
  no constraints, skipping   0.000000000000000E+000
  no constraints, skipping   0.000000000000000E+000
  no constraints, skipping   0.000000000000000E+000
  no constraints, skipping   0.000000000000000E+000
  no constraints, skipping   0.000000000000000E+000

          --------
          Step   2
          --------
 
                                 NWChem DFT Module
                                 -----------------
 
 
                                        VX
 
 
 
 
 solvent parameters
 solvname_short: chcl3   
 solvname_long:  chloroform                         
 dielec:        4.7113
 dielecinf:     2.0906

          ---------------
          -cosmo- solvent
          ---------------
 Cosmo: York-Karplus, doi: 10.1021/jp992097l
 dielectric constant -eps-     =   4.71
 screen = (eps-1)/(eps    )    =   0.78774
 surface charge correction     = lagrangian
 -lineq- algorithm             =   0
 -bem- low  level              =   2
 -bem- from -octahedral-
 gaussian surface charge width =   0.98000
 degree of switching           =   1.00000
 switching function tolerance  =   0.00010
 atomic radii = 
 --------------
    1 15.000  2.106
    2  8.000  1.720
    3  8.000  1.720
    4  8.000  1.720
    5  8.000  1.720
    6  1.000  1.300
    7  1.000  1.300
    8  1.000  1.300

 solvent accessible surface
 --------------------------

 ---------- ATOMIC COORDINATES (A.U.) ------------ VDWR(ANG.) --
     1    0.00000000    0.00000000    0.29456659     2.106
     2   -2.33391229   -1.32490774   -1.08577408     1.720
     3    0.01955238    2.68368120   -1.08577408     1.720
     4    2.31435991   -1.35877346   -1.08577408     1.720
     5    0.00000000    0.00000000    3.07656752     1.720
     6   -2.84041148   -2.89588090   -0.31181321     1.300
     7   -1.08770068    3.90780895   -0.31181321     1.300
     8    3.92811216   -1.01192805   -0.31181321     1.300
 number of segments per atom =         32
 number of   points per atom =         32
 atom (   nspa,  nppa )
 ----------------------
    1 (     10,     0 )       0
    2 (     18,     0 )       0
    3 (     21,     0 )       0
    4 (     18,     0 )       0
    5 (     24,     0 )       0
    6 (     19,     0 )       0
    7 (     17,     0 )       0
    8 (     17,     0 )       0
 number of -cosmo- surface points =      144
 molecular surface =    103.690 angstrom**2
 molecular volume  =     57.263 angstrom**3
 G(cav/disp)       =      1.378 kcal/mol
 ...... end of -cosmo- initialization ......


  Caching 1-el integrals 
  Rotation of axis 
   Time after variat. SCF:    107.9
   Time prior to 1st pass:    107.9


         Total DFT energy =     -644.341951245350
      One electron energy =    -1445.008551250451
           Coulomb energy =      579.710827912423
    Exchange-Corr. energy =      -58.984103453339
 Nuclear repulsion energy =      279.813916220069

             COSMO energy =        0.125959325948

 Numeric. integr. density =       49.999998875853

     Total iterative time =     43.3s


                                   COSMO solvation results
                                   -----------------------

                 gas phase energy =      -644.320530916320
                 sol phase energy =      -644.341951245350
 (electrostatic) solvation energy =         0.021420329030 (   13.44 kcal/mol)
 
                  Occupations of the irreducible representations
                  ----------------------------------------------
 
                     irrep           alpha         beta
                     --------     --------     --------
                     a                11.0         11.0
                     e+               14.0         14.0
                     e-                0.0          0.0
 
  Rotation of axis 


                         DFT ENERGY GRADIENTS

    atom               coordinates                        gradient
                 x          y          z           x          y          z
   1 P       0.000000   0.000000   0.294567    0.000000   0.000000   0.004097
   2 O      -2.333912  -1.324908  -1.085774    0.002450  -0.003495  -0.003761
   3 O       0.019552   2.683681  -1.085774   -0.004251  -0.000374  -0.003761
   4 O       2.314360  -1.358773  -1.085774    0.001802   0.003869  -0.003761
   5 O       0.000000   0.000000   3.076568    0.000000  -0.000000   0.002010
   6 H      -2.840411  -2.895881  -0.311813   -0.001444   0.000214   0.001725
   7 H      -1.087701   3.907809  -0.311813    0.000907   0.001144   0.001725
   8 H       3.928112  -1.011928  -0.311813    0.000537  -0.001358   0.001725
 
  no constraints, skipping   0.000000000000000E+000

  Step       Energy      Delta E   Gmax     Grms     Xrms     Xmax   Walltime
  ---- ---------------- -------- -------- -------- -------- -------- --------
@    2    -644.34195125  2.7D-04  0.00201  0.00098  0.01819  0.04046    160.3
                                                                    

 Restricting overall step due to uphill motion.   alpha=  0.50
  no constraints, skipping   0.000000000000000E+000
  no constraints, skipping   0.000000000000000E+000
  no constraints, skipping   0.000000000000000E+000
  no constraints, skipping   0.000000000000000E+000
  no constraints, skipping   0.000000000000000E+000
  no constraints, skipping   0.000000000000000E+000
  no constraints, skipping   0.000000000000000E+000
  no constraints, skipping   0.000000000000000E+000

          --------
          Step   3
          --------
 
                                 NWChem DFT Module
                                 -----------------
 
 
                                        VX
 
 
 
 
 solvent parameters
 solvname_short: chcl3   
 solvname_long:  chloroform                         
 dielec:        4.7113
 dielecinf:     2.0906

          ---------------
          -cosmo- solvent
          ---------------
 Cosmo: York-Karplus, doi: 10.1021/jp992097l
 dielectric constant -eps-     =   4.71
 screen = (eps-1)/(eps    )    =   0.78774
 surface charge correction     = lagrangian
 -lineq- algorithm             =   0
 -bem- low  level              =   2
 -bem- from -octahedral-
 gaussian surface charge width =   0.98000
 degree of switching           =   1.00000
 switching function tolerance  =   0.00010
 atomic radii = 
 --------------
    1 15.000  2.106
    2  8.000  1.720
    3  8.000  1.720
    4  8.000  1.720
    5  8.000  1.720
    6  1.000  1.300
    7  1.000  1.300
    8  1.000  1.300

 solvent accessible surface
 --------------------------

 ---------- ATOMIC COORDINATES (A.U.) ------------ VDWR(ANG.) --
     1    0.00000000   -0.00000000    0.30785643     2.106
     2   -2.34268530   -1.31302087   -1.07940626     1.720
     3    0.03423322    2.68533542   -1.07940626     1.720
     4    2.30845208   -1.37231454   -1.07940626     1.720
     5    0.00000000    0.00000000    3.08752108     1.720
     6   -2.83006535   -2.89919168   -0.32626216     1.300
     7   -1.09574097    3.90050433   -0.32626216     1.300
     8    3.92580632   -1.00131265   -0.32626216     1.300
 number of segments per atom =         32
 number of   points per atom =         32
 atom (   nspa,  nppa )
 ----------------------
    1 (     10,     0 )       0
    2 (     18,     0 )       0
    3 (     21,     0 )       0
    4 (     18,     0 )       0
    5 (     24,     0 )       0
    6 (     18,     0 )       0
    7 (     17,     0 )       0
    8 (     17,     0 )       0
 number of -cosmo- surface points =      143
 molecular surface =    103.721 angstrom**2
 molecular volume  =     57.296 angstrom**3
 G(cav/disp)       =      1.379 kcal/mol
 ...... end of -cosmo- initialization ......


  Caching 1-el integrals 
  Rotation of axis 
   Time after variat. SCF:    160.5
   Time prior to 1st pass:    160.5


         Total DFT energy =     -644.341774245323
      One electron energy =    -1444.583676331756
           Coulomb energy =      579.494434431690
    Exchange-Corr. energy =      -58.981645011030
 Nuclear repulsion energy =      279.608322579264

             COSMO energy =        0.120790086509

 Numeric. integr. density =       49.999999058990

     Total iterative time =     43.9s


                                   COSMO solvation results
                                   -----------------------

                 gas phase energy =      -644.320399299794
                 sol phase energy =      -644.341774245323
 (electrostatic) solvation energy =         0.021374945529 (   13.41 kcal/mol)
 
                  Occupations of the irreducible representations
                  ----------------------------------------------
 
                     irrep           alpha         beta
                     --------     --------     --------
                     a                11.0         11.0
                     e+               14.0         14.0
                     e-                0.0          0.0
 
  Rotation of axis 


                         DFT ENERGY GRADIENTS

    atom               coordinates                        gradient
                 x          y          z           x          y          z
   1 P       0.000000  -0.000000   0.307856   -0.000000   0.000000   0.008229
   2 O      -2.342685  -1.313021  -1.079406    0.001031  -0.004246  -0.004536
   3 O       0.034233   2.685335  -1.079406   -0.004193   0.001230  -0.004536
   4 O       2.308452  -1.372315  -1.079406    0.003162   0.003016  -0.004536
   5 O       0.000000   0.000000   3.087521    0.000000   0.000000   0.001026
   6 H      -2.830065  -2.899192  -0.326262   -0.001115   0.000603   0.001451
   7 H      -1.095741   3.900504  -0.326262    0.001080   0.000664   0.001451
   8 H       3.925806  -1.001313  -0.326262    0.000035  -0.001267   0.001451
 
  no constraints, skipping   0.000000000000000E+000

  Step       Energy      Delta E   Gmax     Grms     Xrms     Xmax   Walltime
  ---- ---------------- -------- -------- -------- -------- -------- --------
@    3    -644.34177425  1.8D-04  0.00334  0.00133  0.00920  0.01475    213.3
                                                                    

 Restricting large step in mode    1 eval= 2.5D-03 step=-8.6D-01 new=-3.0D-01
 Restricting overall step due to uphill motion.   alpha=  0.25
  no constraints, skipping   0.000000000000000E+000
  no constraints, skipping   0.000000000000000E+000
  no constraints, skipping   0.000000000000000E+000
  no constraints, skipping   0.000000000000000E+000

          --------
          Step   4
          --------
 
                                 NWChem DFT Module
                                 -----------------
 
 
                                        VX
 
 
 
 
 solvent parameters
 solvname_short: chcl3   
 solvname_long:  chloroform                         
 dielec:        4.7113
 dielecinf:     2.0906

          ---------------
          -cosmo- solvent
          ---------------
 Cosmo: York-Karplus, doi: 10.1021/jp992097l
 dielectric constant -eps-     =   4.71
 screen = (eps-1)/(eps    )    =   0.78774
 surface charge correction     = lagrangian
 -lineq- algorithm             =   0
 -bem- low  level              =   2
 -bem- from -octahedral-
 gaussian surface charge width =   0.98000
 degree of switching           =   1.00000
 switching function tolerance  =   0.00010
 atomic radii = 
 --------------
    1 15.000  2.106
    2  8.000  1.720
    3  8.000  1.720
    4  8.000  1.720
    5  8.000  1.720
    6  1.000  1.300
    7  1.000  1.300
    8  1.000  1.300

 solvent accessible surface
 --------------------------

 ---------- ATOMIC COORDINATES (A.U.) ------------ VDWR(ANG.) --
     1    0.00000000   -0.00000000    0.31131425     2.106
     2   -2.34789956   -1.30596528   -1.07516737     1.720
     3    0.04295068    2.68632331   -1.07516737     1.720
     4    2.30494889   -1.38035803   -1.07516737     1.720
     5    0.00000000    0.00000000    3.09007722     1.720
     6   -2.82349300   -2.90071843   -0.33250570     1.300
     7   -1.10034935    3.89557588   -0.33250570     1.300
     8    3.92384235   -0.99485745   -0.33250570     1.300
 number of segments per atom =         32
 number of   points per atom =         32
 atom (   nspa,  nppa )
 ----------------------
    1 (     10,     0 )       0
    2 (     18,     0 )       0
    3 (     20,     0 )       0
    4 (     18,     0 )       0
    5 (     24,     0 )       0
    6 (     19,     0 )       0
    7 (     17,     0 )       0
    8 (     17,     0 )       0
 number of -cosmo- surface points =      143
 molecular surface =    103.725 angstrom**2
 molecular volume  =     57.306 angstrom**3
 G(cav/disp)       =      1.379 kcal/mol
 ...... end of -cosmo- initialization ......


  Caching 1-el integrals 
  Rotation of axis 
   Time after variat. SCF:    213.5
   Time prior to 1st pass:    213.5


         Total DFT energy =     -644.341734727555
      One electron energy =    -1444.557455851894
           Coulomb energy =      579.480461960872
    Exchange-Corr. energy =      -58.981497374974
 Nuclear repulsion energy =      279.598562084022

             COSMO energy =        0.118194454419

 Numeric. integr. density =       49.999998733266

     Total iterative time =     43.5s


                                   COSMO solvation results
                                   -----------------------

                 gas phase energy =      -644.320353923837
                 sol phase energy =      -644.341734727555
 (electrostatic) solvation energy =         0.021380803718 (   13.42 kcal/mol)
 
                  Occupations of the irreducible representations
                  ----------------------------------------------
 
                     irrep           alpha         beta
                     --------     --------     --------
                     a                11.0         11.0
                     e+               14.0         14.0
                     e-                0.0          0.0
 
  Rotation of axis 


                         DFT ENERGY GRADIENTS

    atom               coordinates                        gradient
                 x          y          z           x          y          z
   1 P       0.000000  -0.000000   0.311314   -0.000000   0.000000   0.008947
   2 O      -2.347900  -1.305965  -1.075167    0.000688  -0.004258  -0.004570
   3 O       0.042951   2.686323  -1.075167   -0.004032   0.001534  -0.004570
   4 O       2.304949  -1.380358  -1.075167    0.003344   0.002725  -0.004570
   5 O       0.000000   0.000000   3.090077    0.000000  -0.000000   0.000484
   6 H      -2.823493  -2.900718  -0.332506   -0.000949   0.000550   0.001427
   7 H      -1.100349   3.895576  -0.332506    0.000951   0.000546   0.001427
   8 H       3.923842  -0.994857  -0.332506   -0.000002  -0.001097   0.001427
 
  no constraints, skipping   0.000000000000000E+000

  Step       Energy      Delta E   Gmax     Grms     Xrms     Xmax   Walltime
  ---- ---------------- -------- -------- -------- -------- -------- --------
@    4    -644.34173473  4.0D-05  0.00353  0.00137  0.00480  0.00874    266.0
                                                                    

 Restricting large step in mode    1 eval= 1.5D-03 step=-1.6D+00 new=-3.0D-01
 Restricting overall step due to uphill motion.   alpha=  0.15
  no constraints, skipping   0.000000000000000E+000
  no constraints, skipping   0.000000000000000E+000
  no constraints, skipping   0.000000000000000E+000
  no constraints, skipping   0.000000000000000E+000
  no constraints, skipping   0.000000000000000E+000
  no constraints, skipping   0.000000000000000E+000
  no constraints, skipping   0.000000000000000E+000
  no constraints, skipping   0.000000000000000E+000

          --------
          Step   5
          --------
 
                                 NWChem DFT Module
                                 -----------------
 
 
                                        VX
 
 
 
 
 solvent parameters
 solvname_short: chcl3   
 solvname_long:  chloroform                         
 dielec:        4.7113
 dielecinf:     2.0906

          ---------------
          -cosmo- solvent
          ---------------
 Cosmo: York-Karplus, doi: 10.1021/jp992097l
 dielectric constant -eps-     =   4.71
 screen = (eps-1)/(eps    )    =   0.78774
 surface charge correction     = lagrangian
 -lineq- algorithm             =   0
 -bem- low  level              =   2
 -bem- from -octahedral-
 gaussian surface charge width =   0.98000
 degree of switching           =   1.00000
 switching function tolerance  =   0.00010
 atomic radii = 
 --------------
    1 15.000  2.106
    2  8.000  1.720
    3  8.000  1.720
    4  8.000  1.720
    5  8.000  1.720
    6  1.000  1.300
    7  1.000  1.300
    8  1.000  1.300

 solvent accessible surface
 --------------------------

 ---------- ATOMIC COORDINATES (A.U.) ------------ VDWR(ANG.) --
     1   -0.00000000    0.00000000    0.31158270     2.106
     2   -2.35087521   -1.30164660   -1.07232877     1.720
     3    0.04817858    2.68674096   -1.07232877     1.720
     4    2.30269663   -1.38509435   -1.07232877     1.720
     5   -0.00000000    0.00000000    3.09002778     1.720
     6   -2.81915059   -2.90122481   -0.33541730     1.300
     7   -1.10295910    3.89206843   -0.33541730     1.300
     8    3.92210969   -0.99084362   -0.33541730     1.300
 number of segments per atom =         32
 number of   points per atom =         32
 atom (   nspa,  nppa )
 ----------------------
    1 (     10,     0 )       0
    2 (     18,     0 )       0
    3 (     19,     0 )       0
    4 (     18,     0 )       0
    5 (     24,     0 )       0
    6 (     19,     0 )       0
    7 (     17,     0 )       0
    8 (     17,     0 )       0
 number of -cosmo- surface points =      142
 molecular surface =    103.717 angstrom**2
 molecular volume  =     57.306 angstrom**3
 G(cav/disp)       =      1.379 kcal/mol
 ...... end of -cosmo- initialization ......


  Caching 1-el integrals 
  Rotation of axis 
   Time after variat. SCF:    266.2
   Time prior to 1st pass:    266.2


         Total DFT energy =     -644.341742381733
      One electron energy =    -1444.663701325903
           Coulomb energy =      579.533720341898
    Exchange-Corr. energy =      -58.982306712797
 Nuclear repulsion energy =      279.653844996526

             COSMO energy =        0.116700318543

 Numeric. integr. density =       49.999999061672

     Total iterative time =     44.6s


                                   COSMO solvation results
                                   -----------------------

                 gas phase energy =      -644.320344688488
                 sol phase energy =      -644.341742381733
 (electrostatic) solvation energy =         0.021397693245 (   13.43 kcal/mol)
 
                  Occupations of the irreducible representations
                  ----------------------------------------------
 
                     irrep           alpha         beta
                     --------     --------     --------
                     a                11.0         11.0
                     e+               14.0         14.0
                     e-                0.0          0.0
 
  Rotation of axis 


                         DFT ENERGY GRADIENTS

    atom               coordinates                        gradient
                 x          y          z           x          y          z
   1 P      -0.000000   0.000000   0.311583    0.000000   0.000000   0.008586
   2 O      -2.350875  -1.301647  -1.072329    0.000706  -0.004172  -0.004342
   3 O       0.048179   2.686741  -1.072329   -0.003966   0.001474  -0.004342
   4 O       2.302697  -1.385094  -1.072329    0.003260   0.002698  -0.004342
   5 O      -0.000000   0.000000   3.090028    0.000000   0.000000   0.000186
   6 H      -2.819151  -2.901225  -0.335417   -0.000819   0.000521   0.001418
   7 H      -1.102959   3.892068  -0.335417    0.000861   0.000449   0.001418
   8 H       3.922110  -0.990844  -0.335417   -0.000042  -0.000970   0.001418
 
  no constraints, skipping   0.000000000000000E+000

  Step       Energy      Delta E   Gmax     Grms     Xrms     Xmax   Walltime
  ---- ---------------- -------- -------- -------- -------- -------- --------
@    5    -644.34174238 -7.7D-06  0.00330  0.00128  0.00281  0.00524    319.8
                                                                    

 Restricting large step in mode    1 eval= 1.5D-03 step=-1.6D+00 new=-3.0D-01
 Restricting overall step due to uphill motion.   alpha=  0.70
  no constraints, skipping   0.000000000000000E+000
  no constraints, skipping   0.000000000000000E+000
  no constraints, skipping   0.000000000000000E+000
  no constraints, skipping   0.000000000000000E+000
  no constraints, skipping   0.000000000000000E+000
  no constraints, skipping   0.000000000000000E+000
  no constraints, skipping   0.000000000000000E+000
  no constraints, skipping   0.000000000000000E+000

          --------
          Step   6
          --------
 
                                 NWChem DFT Module
                                 -----------------
 
 
                                        VX
 
 
 
 
 solvent parameters
 solvname_short: chcl3   
 solvname_long:  chloroform                         
 dielec:        4.7113
 dielecinf:     2.0906

          ---------------
          -cosmo- solvent
          ---------------
 Cosmo: York-Karplus, doi: 10.1021/jp992097l
 dielectric constant -eps-     =   4.71
 screen = (eps-1)/(eps    )    =   0.78774
 surface charge correction     = lagrangian
 -lineq- algorithm             =   0
 -bem- low  level              =   2
 -bem- from -octahedral-
 gaussian surface charge width =   0.98000
 degree of switching           =   1.00000
 switching function tolerance  =   0.00010
 atomic radii = 
 --------------
    1 15.000  2.106
    2  8.000  1.720
    3  8.000  1.720
    4  8.000  1.720
    5  8.000  1.720
    6  1.000  1.300
    7  1.000  1.300
    8  1.000  1.300

 solvent accessible surface
 --------------------------

 ---------- ATOMIC COORDINATES (A.U.) ------------ VDWR(ANG.) --
     1    0.00000000    0.00000000    0.31025906     2.106
     2   -2.36346124   -1.28129480   -1.05783259     1.720
     3    0.07209677    2.68746488   -1.05783259     1.720
     4    2.29136447   -1.40617008   -1.05783259     1.720
     5    0.00000000    0.00000000    3.08875046     1.720
     6   -2.79904973   -2.90332060   -0.34904649     1.300
     7   -1.11482453    3.87570847   -0.34904649     1.300
     8    3.91387426   -0.97238787   -0.34904649     1.300
 number of segments per atom =         32
 number of   points per atom =         32
 atom (   nspa,  nppa )
 ----------------------
    1 (     10,     0 )       0
    2 (     17,     0 )       0
    3 (     19,     0 )       0
    4 (     17,     0 )       0
    5 (     24,     0 )       0
    6 (     18,     0 )       0
    7 (     17,     0 )       0
    8 (     17,     0 )       0
 number of -cosmo- surface points =      139
 molecular surface =    103.607 angstrom**2
 molecular volume  =     57.261 angstrom**3
 G(cav/disp)       =      1.378 kcal/mol
 ...... end of -cosmo- initialization ......


  Caching 1-el integrals 
  Rotation of axis 
   Time after variat. SCF:    320.0
   Time prior to 1st pass:    320.0


         Total DFT energy =     -644.341769543180
      One electron energy =    -1445.401307214547
           Coulomb energy =      579.905119255071
    Exchange-Corr. energy =      -58.987328888618
 Nuclear repulsion energy =      280.030746948592

             COSMO energy =        0.111000356321

 Numeric. integr. density =       49.999999340021

     Total iterative time =     42.3s


                                   COSMO solvation results
                                   -----------------------

                 gas phase energy =      -644.320238199363
                 sol phase energy =      -644.341769543180
 (electrostatic) solvation energy =         0.021531343818 (   13.51 kcal/mol)
 
                  Occupations of the irreducible representations
                  ----------------------------------------------
 
                     irrep           alpha         beta
                     --------     --------     --------
                     a                11.0         11.0
                     e+               14.0         14.0
                     e-                0.0          0.0
 
  Rotation of axis 


                         DFT ENERGY GRADIENTS

    atom               coordinates                        gradient
                 x          y          z           x          y          z
   1 P       0.000000   0.000000   0.310259    0.000000   0.000000   0.004583
   2 O      -2.363461  -1.281295  -1.057833    0.001517  -0.003117  -0.002782
   3 O       0.072097   2.687465  -1.057833   -0.003458   0.000245  -0.002782
   4 O       2.291364  -1.406170  -1.057833    0.001941   0.002872  -0.002782
   5 O       0.000000   0.000000   3.088750    0.000000  -0.000000  -0.000489
   6 H      -2.799050  -2.903321  -0.349046   -0.000234   0.000040   0.001417
   7 H      -1.114825   3.875708  -0.349046    0.000151   0.000183   0.001417
   8 H       3.913874  -0.972388  -0.349046    0.000083  -0.000222   0.001417
 
  no constraints, skipping   0.000000000000000E+000

  Step       Energy      Delta E   Gmax     Grms     Xrms     Xmax   Walltime
  ---- ---------------- -------- -------- -------- -------- -------- --------
@    6    -644.34176954 -2.7D-05  0.00131  0.00062  0.01305  0.02414    370.9
                                                                    

 Restricting large step in mode    1 eval= 1.8D-03 step=-1.1D+00 new=-3.0D-01
  no constraints, skipping   0.000000000000000E+000
  no constraints, skipping   0.000000000000000E+000
  no constraints, skipping   0.000000000000000E+000
  no constraints, skipping   0.000000000000000E+000
  no constraints, skipping   0.000000000000000E+000
  no constraints, skipping   0.000000000000000E+000
  no constraints, skipping   0.000000000000000E+000
  no constraints, skipping   0.000000000000000E+000

          --------
          Step   7
          --------
 
                                 NWChem DFT Module
                                 -----------------
 
 
                                        VX
 
 
 
 
 solvent parameters
 solvname_short: chcl3   
 solvname_long:  chloroform                         
 dielec:        4.7113
 dielecinf:     2.0906

          ---------------
          -cosmo- solvent
          ---------------
 Cosmo: York-Karplus, doi: 10.1021/jp992097l
 dielectric constant -eps-     =   4.71
 screen = (eps-1)/(eps    )    =   0.78774
 surface charge correction     = lagrangian
 -lineq- algorithm             =   0
 -bem- low  level              =   2
 -bem- from -octahedral-
 gaussian surface charge width =   0.98000
 degree of switching           =   1.00000
 switching function tolerance  =   0.00010
 atomic radii = 
 --------------
    1 15.000  2.106
    2  8.000  1.720
    3  8.000  1.720
    4  8.000  1.720
    5  8.000  1.720
    6  1.000  1.300
    7  1.000  1.300
    8  1.000  1.300

 solvent accessible surface
 --------------------------

 ---------- ATOMIC COORDINATES (A.U.) ------------ VDWR(ANG.) --
     1   -0.00000000    0.00000000    0.32005739     2.106
     2   -2.37972719   -1.25363649   -1.03618820     1.720
     3    0.10418255    2.68772244   -1.03618820     1.720
     4    2.27554464   -1.43408596   -1.03618820     1.720
     5    0.00000000   -0.00000000    3.10026217     1.720
     6   -2.77413057   -2.90826965   -0.37779423     1.300
     7   -1.13157011    3.85660237   -0.37779423     1.300
     8    3.90570068   -0.94833272   -0.37779423     1.300
 number of segments per atom =         32
 number of   points per atom =         32
 atom (   nspa,  nppa )
 ----------------------
    1 (     10,     0 )       0
    2 (     17,     0 )       0
    3 (     19,     0 )       0
    4 (     17,     0 )       0
    5 (     24,     0 )       0
    6 (     17,     0 )       0
    7 (     17,     0 )       0
    8 (     18,     0 )       0
 number of -cosmo- surface points =      139
 molecular surface =    103.361 angstrom**2
 molecular volume  =     57.149 angstrom**3
 G(cav/disp)       =      1.377 kcal/mol
 ...... end of -cosmo- initialization ......


  Caching 1-el integrals 
  Rotation of axis 
   Time after variat. SCF:    371.1
   Time prior to 1st pass:    371.1


         Total DFT energy =     -644.341517753835
      One electron energy =    -1445.828930094728
           Coulomb energy =      580.119713905474
    Exchange-Corr. energy =      -58.989679083735
 Nuclear repulsion energy =      280.253012116122

             COSMO energy =        0.104365403031

 Numeric. integr. density =       49.999999307401

     Total iterative time =     44.6s


                                   COSMO solvation results
                                   -----------------------

                 gas phase energy =      -644.319816030039
                 sol phase energy =      -644.341517753835
 (electrostatic) solvation energy =         0.021701723796 (   13.62 kcal/mol)
 
                  Occupations of the irreducible representations
                  ----------------------------------------------
 
                     irrep           alpha         beta
                     --------     --------     --------
                     a                11.0         11.0
                     e+               14.0         14.0
                     e-                0.0          0.0
 
  Rotation of axis 


                         DFT ENERGY GRADIENTS

    atom               coordinates                        gradient
                 x          y          z           x          y          z
   1 P      -0.000000   0.000000   0.320057   -0.000000   0.000000   0.000925
   2 O      -2.379727  -1.253636  -1.036188    0.001783  -0.001712  -0.001383
   3 O       0.104183   2.687722  -1.036188   -0.002374  -0.000688  -0.001383
   4 O       2.275545  -1.434086  -1.036188    0.000591   0.002400  -0.001383
   5 O       0.000000  -0.000000   3.100262    0.000000   0.000000   0.000122
   6 H      -2.774131  -2.908270  -0.377794    0.000538  -0.000760   0.001034
   7 H      -1.131570   3.856602  -0.377794   -0.000927  -0.000086   0.001034
   8 H       3.905701  -0.948333  -0.377794    0.000389   0.000846   0.001034
 
  no constraints, skipping   0.000000000000000E+000

  Step       Energy      Delta E   Gmax     Grms     Xrms     Xmax   Walltime
  ---- ---------------- -------- -------- -------- -------- -------- --------
@    7    -644.34151775  2.5D-04  0.00045  0.00025  0.01933  0.03263    425.1
                                                                    

 Restricting large step in mode    1 eval= 2.7D-03 step=-4.3D-01 new=-3.0D-01
 Restricting overall step due to uphill motion.   alpha=  0.50
  no constraints, skipping   0.000000000000000E+000
  no constraints, skipping   0.000000000000000E+000
  no constraints, skipping   0.000000000000000E+000
  no constraints, skipping   0.000000000000000E+000
  no constraints, skipping   0.000000000000000E+000
  no constraints, skipping   0.000000000000000E+000
  no constraints, skipping   0.000000000000000E+000
  no constraints, skipping   0.000000000000000E+000

          --------
          Step   8
          --------
 
                                 NWChem DFT Module
                                 -----------------
 
 
                                        VX
 
 
 
 
 solvent parameters
 solvname_short: chcl3   
 solvname_long:  chloroform                         
 dielec:        4.7113
 dielecinf:     2.0906

          ---------------
          -cosmo- solvent
          ---------------
 Cosmo: York-Karplus, doi: 10.1021/jp992097l
 dielectric constant -eps-     =   4.71
 screen = (eps-1)/(eps    )    =   0.78774
 surface charge correction     = lagrangian
 -lineq- algorithm             =   0
 -bem- low  level              =   2
 -bem- from -octahedral-
 gaussian surface charge width =   0.98000
 degree of switching           =   1.00000
 switching function tolerance  =   0.00010
 atomic radii = 
 --------------
    1 15.000  2.106
    2  8.000  1.720
    3  8.000  1.720
    4  8.000  1.720
    5  8.000  1.720
    6  1.000  1.300
    7  1.000  1.300
    8  1.000  1.300

 solvent accessible surface
 --------------------------

 ---------- ATOMIC COORDINATES (A.U.) ------------ VDWR(ANG.) --
     1    0.00000000    0.00000000    0.32808917     2.106
     2   -2.38812727   -1.24118415   -1.02475835     1.720
     3    0.11916662    2.68877096   -1.02475835     1.720
     4    2.26896064   -1.44758680   -1.02475835     1.720
     5   -0.00000000    0.00000000    3.10861816     1.720
     6   -2.76337061   -2.91146678   -0.39468667     1.300
     7   -1.13971889    3.84888254   -0.39468667     1.300
     8    3.90308950   -0.93741576   -0.39468667     1.300
 number of segments per atom =         32
 number of   points per atom =         32
 atom (   nspa,  nppa )
 ----------------------
    1 (     10,     0 )       0
    2 (     17,     0 )       0
    3 (     19,     0 )       0
    4 (     17,     0 )       0
    5 (     24,     0 )       0
    6 (     18,     0 )       0
    7 (     17,     0 )       0
    8 (     18,     0 )       0
 number of -cosmo- surface points =      140
 molecular surface =    103.240 angstrom**2
 molecular volume  =     57.095 angstrom**3
 G(cav/disp)       =      1.376 kcal/mol
 ...... end of -cosmo- initialization ......


  Caching 1-el integrals 
  Rotation of axis 
   Time after variat. SCF:    425.2
   Time prior to 1st pass:    425.2


         Total DFT energy =     -644.341325189070
      One electron energy =    -1445.806192513495
           Coulomb energy =      580.107531006114
    Exchange-Corr. energy =      -58.989451568659
 Nuclear repulsion energy =      280.244977567945

             COSMO energy =        0.101810319025

 Numeric. integr. density =       49.999999306367

     Total iterative time =     43.9s


                                   COSMO solvation results
                                   -----------------------

                 gas phase energy =      -644.319561286088
                 sol phase energy =      -644.341325189070
 (electrostatic) solvation energy =         0.021763902982 (   13.66 kcal/mol)
 
                  Occupations of the irreducible representations
                  ----------------------------------------------
 
                     irrep           alpha         beta
                     --------     --------     --------
                     a                11.0         11.0
                     e+               14.0         14.0
                     e-                0.0          0.0
 
  Rotation of axis 


                         DFT ENERGY GRADIENTS

    atom               coordinates                        gradient
                 x          y          z           x          y          z
   1 P       0.000000   0.000000   0.328089    0.000000   0.000000   0.000429
   2 O      -2.388127  -1.241184  -1.024758    0.001343  -0.001397  -0.000894
   3 O       0.119167   2.688771  -1.024758   -0.001881  -0.000465  -0.000894
   4 O       2.268961  -1.447587  -1.024758    0.000538   0.001862  -0.000894
   5 O      -0.000000   0.000000   3.108618    0.000000   0.000000   0.000269
   6 H      -2.763371  -2.911467  -0.394687    0.000905  -0.000996   0.000662
   7 H      -1.139719   3.848883  -0.394687   -0.001315  -0.000286   0.000662
   8 H       3.903089  -0.937416  -0.394687    0.000410   0.001282   0.000662
 
  no constraints, skipping   0.000000000000000E+000

  Step       Energy      Delta E   Gmax     Grms     Xrms     Xmax   Walltime
  ---- ---------------- -------- -------- -------- -------- -------- --------
@    8    -644.34132519  1.9D-04  0.00029  0.00018  0.01003  0.01666    478.0
                                                                    

 Restricting overall step due to uphill motion.   alpha=  0.25
  no constraints, skipping   0.000000000000000E+000
  no constraints, skipping   0.000000000000000E+000
  no constraints, skipping   0.000000000000000E+000
  no constraints, skipping   0.000000000000000E+000

          --------
          Step   9
          --------
 
                                 NWChem DFT Module
                                 -----------------
 
 
                                        VX
 
 
 
 
 solvent parameters
 solvname_short: chcl3   
 solvname_long:  chloroform                         
 dielec:        4.7113
 dielecinf:     2.0906

          ---------------
          -cosmo- solvent
          ---------------
 Cosmo: York-Karplus, doi: 10.1021/jp992097l
 dielectric constant -eps-     =   4.71
 screen = (eps-1)/(eps    )    =   0.78774
 surface charge correction     = lagrangian
 -lineq- algorithm             =   0
 -bem- low  level              =   2
 -bem- from -octahedral-
 gaussian surface charge width =   0.98000
 degree of switching           =   1.00000
 switching function tolerance  =   0.00010
 atomic radii = 
 --------------
    1 15.000  2.106
    2  8.000  1.720
    3  8.000  1.720
    4  8.000  1.720
    5  8.000  1.720
    6  1.000  1.300
    7  1.000  1.300
    8  1.000  1.300

 solvent accessible surface
 --------------------------

 ---------- ATOMIC COORDINATES (A.U.) ------------ VDWR(ANG.) --
     1    0.00000000    0.00000000    0.33111195     2.106
     2   -2.39141002   -1.23669040   -1.02017587     1.720
     3    0.12469971    2.68936703   -1.02017587     1.720
     4    2.26671031   -1.45267663   -1.02017587     1.720
     5    0.00000000    0.00000000    3.11160072     1.720
     6   -2.75954072   -2.91278961   -0.40127094     1.300
     7   -1.14277944    3.84622717   -0.40127094     1.300
     8    3.90232015   -0.93343756   -0.40127094     1.300
 number of segments per atom =         32
 number of   points per atom =         32
 atom (   nspa,  nppa )
 ----------------------
    1 (     10,     0 )       0
    2 (     17,     0 )       0
    3 (     19,     0 )       0
    4 (     17,     0 )       0
    5 (     24,     0 )       0
    6 (     18,     0 )       0
    7 (     17,     0 )       0
    8 (     18,     0 )       0
 number of -cosmo- surface points =      140
 molecular surface =    103.197 angstrom**2
 molecular volume  =     57.076 angstrom**3
 G(cav/disp)       =      1.376 kcal/mol
 ...... end of -cosmo- initialization ......


  Caching 1-el integrals 
  Rotation of axis 
   Time after variat. SCF:    478.1
   Time prior to 1st pass:    478.1


         Total DFT energy =     -644.341248094049
      One electron energy =    -1445.792118149720
           Coulomb energy =      580.100249328454
    Exchange-Corr. energy =      -58.989374303661
 Nuclear repulsion energy =      280.238889391251

             COSMO energy =        0.101105639628

 Numeric. integr. density =       49.999999309722

     Total iterative time =     45.6s


                                   COSMO solvation results
                                   -----------------------

                 gas phase energy =      -644.319460261616
                 sol phase energy =      -644.341248094049
 (electrostatic) solvation energy =         0.021787832433 (   13.67 kcal/mol)
 
                  Occupations of the irreducible representations
                  ----------------------------------------------
 
                     irrep           alpha         beta
                     --------     --------     --------
                     a                11.0         11.0
                     e+               14.0         14.0
                     e-                0.0          0.0
 
  Rotation of axis 


                         DFT ENERGY GRADIENTS

    atom               coordinates                        gradient
                 x          y          z           x          y          z
   1 P       0.000000   0.000000   0.331112   -0.000000   0.000000   0.000318
   2 O      -2.391410  -1.236690  -1.020176    0.001145  -0.001312  -0.000683
   3 O       0.124700   2.689367  -1.020176   -0.001708  -0.000336  -0.000683
   4 O       2.266710  -1.452677  -1.020176    0.000564   0.001647  -0.000683
   5 O       0.000000   0.000000   3.111601    0.000000   0.000000   0.000217
   6 H      -2.759541  -2.912790  -0.401271    0.001034  -0.001074   0.000505
   7 H      -1.142779   3.846227  -0.401271   -0.001447  -0.000358   0.000505
   8 H       3.902320  -0.933438  -0.401271    0.000413   0.001432   0.000505
 
  no constraints, skipping   0.000000000000000E+000

  Step       Energy      Delta E   Gmax     Grms     Xrms     Xmax   Walltime
  ---- ---------------- -------- -------- -------- -------- -------- --------
@    9    -644.34124809  7.7D-05  0.00022  0.00013  0.00383  0.00655    532.8
                                                                    

 Restricting overall step due to uphill motion.   alpha=  0.15
  no constraints, skipping   0.000000000000000E+000
  no constraints, skipping   0.000000000000000E+000
  no constraints, skipping   0.000000000000000E+000
  no constraints, skipping   0.000000000000000E+000

          --------
          Step  10
          --------
 
                                 NWChem DFT Module
                                 -----------------
 
 
                                        VX
 
 
 
 
 solvent parameters
 solvname_short: chcl3   
 solvname_long:  chloroform                         
 dielec:        4.7113
 dielecinf:     2.0906

          ---------------
          -cosmo- solvent
          ---------------
 Cosmo: York-Karplus, doi: 10.1021/jp992097l
 dielectric constant -eps-     =   4.71
 screen = (eps-1)/(eps    )    =   0.78774
 surface charge correction     = lagrangian
 -lineq- algorithm             =   0
 -bem- low  level              =   2
 -bem- from -octahedral-
 gaussian surface charge width =   0.98000
 degree of switching           =   1.00000
 switching function tolerance  =   0.00010
 atomic radii = 
 --------------
    1 15.000  2.106
    2  8.000  1.720
    3  8.000  1.720
    4  8.000  1.720
    5  8.000  1.720
    6  1.000  1.300
    7  1.000  1.300
    8  1.000  1.300

 solvent accessible surface
 --------------------------

 ---------- ATOMIC COORDINATES (A.U.) ------------ VDWR(ANG.) --
     1    0.00000000   -0.00000000    0.33246905     2.106
     2   -2.39286144   -1.23474937   -1.01809972     1.720
     3    0.12710640    2.68965348   -1.01809972     1.720
     4    2.26575504   -1.45490411   -1.01809972     1.720
     5    0.00000000    0.00000000    3.11292511     1.720
     6   -2.75791361   -2.91340467   -0.40424091     1.300
     7   -1.14412565    3.84512558   -0.40424091     1.300
     8    3.90203926   -0.93172091   -0.40424091     1.300
 number of segments per atom =         32
 number of   points per atom =         32
 atom (   nspa,  nppa )
 ----------------------
    1 (     10,     0 )       0
    2 (     17,     0 )       0
    3 (     19,     0 )       0
    4 (     17,     0 )       0
    5 (     24,     0 )       0
    6 (     18,     0 )       0
    7 (     17,     0 )       0
    8 (     18,     0 )       0
 number of -cosmo- surface points =      140
 molecular surface =    103.179 angstrom**2
 molecular volume  =     57.068 angstrom**3
 G(cav/disp)       =      1.376 kcal/mol
 ...... end of -cosmo- initialization ......


  Caching 1-el integrals 
  Rotation of axis 
   Time after variat. SCF:    533.0
   Time prior to 1st pass:    533.0


         Total DFT energy =     -644.341213322146
      One electron energy =    -1445.784559897545
           Coulomb energy =      580.096380973114
    Exchange-Corr. energy =      -58.989335911976
 Nuclear repulsion energy =      280.235441139561

             COSMO energy =        0.100860374700

 Numeric. integr. density =       49.999999310738

     Total iterative time =     42.8s


                                   COSMO solvation results
                                   -----------------------

                 gas phase energy =      -644.319414635727
                 sol phase energy =      -644.341213322146
 (electrostatic) solvation energy =         0.021798686419 (   13.68 kcal/mol)
 
                  Occupations of the irreducible representations
                  ----------------------------------------------
 
                     irrep           alpha         beta
                     --------     --------     --------
                     a                11.0         11.0
                     e+               14.0         14.0
                     e-                0.0          0.0
 
  Rotation of axis 


                         DFT ENERGY GRADIENTS

    atom               coordinates                        gradient
                 x          y          z           x          y          z
   1 P       0.000000  -0.000000   0.332469   -0.000000   0.000000   0.000277
   2 O      -2.392861  -1.234749  -1.018100    0.001054  -0.001278  -0.000587
   3 O       0.127106   2.689653  -1.018100   -0.001634  -0.000274  -0.000587
   4 O       2.265755  -1.454904  -1.018100    0.000580   0.001552  -0.000587
   5 O       0.000000   0.000000   3.112925    0.000000  -0.000000   0.000184
   6 H      -2.757914  -2.913405  -0.404241    0.001086  -0.001107   0.000433
   7 H      -1.144126   3.845126  -0.404241   -0.001502  -0.000387   0.000433
   8 H       3.902039  -0.931721  -0.404241    0.000415   0.001494   0.000433
 
  no constraints, skipping   0.000000000000000E+000

  Step       Energy      Delta E   Gmax     Grms     Xrms     Xmax   Walltime
  ---- ---------------- -------- -------- -------- -------- -------- --------
@   10    -644.34121332  3.5D-05  0.00018  0.00011  0.00170  0.00296    584.3
                                                                    

 Restricting overall step due to uphill motion.   alpha=  0.15
  no constraints, skipping   0.000000000000000E+000
  no constraints, skipping   0.000000000000000E+000
  no constraints, skipping   0.000000000000000E+000
  no constraints, skipping   0.000000000000000E+000

          --------
          Step  11
          --------
 
                                 NWChem DFT Module
                                 -----------------
 
 
                                        VX
 
 
 
 
 solvent parameters
 solvname_short: chcl3   
 solvname_long:  chloroform                         
 dielec:        4.7113
 dielecinf:     2.0906

          ---------------
          -cosmo- solvent
          ---------------
 Cosmo: York-Karplus, doi: 10.1021/jp992097l
 dielectric constant -eps-     =   4.71
 screen = (eps-1)/(eps    )    =   0.78774
 surface charge correction     = lagrangian
 -lineq- algorithm             =   0
 -bem- low  level              =   2
 -bem- from -octahedral-
 gaussian surface charge width =   0.98000
 degree of switching           =   1.00000
 switching function tolerance  =   0.00010
 atomic radii = 
 --------------
    1 15.000  2.106
    2  8.000  1.720
    3  8.000  1.720
    4  8.000  1.720
    5  8.000  1.720
    6  1.000  1.300
    7  1.000  1.300
    8  1.000  1.300

 solvent accessible surface
 --------------------------

 ---------- ATOMIC COORDINATES (A.U.) ------------ VDWR(ANG.) --
     1    0.00000000    0.00000000    0.33362914     2.106
     2   -2.39408373   -1.23312428   -1.01631637     1.720
     3    0.12912491    2.68989947   -1.01631637     1.720
     4    2.26495882   -1.45677519   -1.01631637     1.720
     5    0.00000000    0.00000000    3.11405610     1.720
     6   -2.75656329   -2.91393544   -0.40678795     1.300
     7   -1.14526047    3.84422155   -0.40678795     1.300
     8    3.90182376   -0.93028612   -0.40678795     1.300
 number of segments per atom =         32
 number of   points per atom =         32
 atom (   nspa,  nppa )
 ----------------------
    1 (     10,     0 )       0
    2 (     17,     0 )       0
    3 (     19,     0 )       0
    4 (     17,     0 )       0
    5 (     24,     0 )       0
    6 (     18,     0 )       0
    7 (     17,     0 )       0
    8 (     18,     0 )       0
 number of -cosmo- surface points =      140
 molecular surface =    103.163 angstrom**2
 molecular volume  =     57.061 angstrom**3
 G(cav/disp)       =      1.376 kcal/mol
 ...... end of -cosmo- initialization ......


  Caching 1-el integrals 
  Rotation of axis 
   Time after variat. SCF:    584.4
   Time prior to 1st pass:    584.4


         Total DFT energy =     -644.341183521977
      One electron energy =    -1445.778197779365
           Coulomb energy =      580.093136109188
    Exchange-Corr. energy =      -58.989306543086
 Nuclear repulsion energy =      280.232500780647

             COSMO energy =        0.100683910640

 Numeric. integr. density =       49.999999309770

     Total iterative time =     44.2s


                                   COSMO solvation results
                                   -----------------------

                 gas phase energy =      -644.319375433914
                 sol phase energy =      -644.341183521977
 (electrostatic) solvation energy =         0.021808088063 (   13.68 kcal/mol)
 
                  Occupations of the irreducible representations
                  ----------------------------------------------
 
                     irrep           alpha         beta
                     --------     --------     --------
                     a                11.0         11.0
                     e+               14.0         14.0
                     e-                0.0          0.0
 
  Rotation of axis 


                         DFT ENERGY GRADIENTS

    atom               coordinates                        gradient
                 x          y          z           x          y          z
   1 P       0.000000   0.000000   0.333629   -0.000000   0.000000   0.000241
   2 O      -2.394084  -1.233124  -1.016316    0.000978  -0.001252  -0.000502
   3 O       0.129125   2.689899  -1.016316   -0.001573  -0.000221  -0.000502
   4 O       2.264959  -1.456775  -1.016316    0.000595   0.001473  -0.000502
   5 O       0.000000   0.000000   3.114056    0.000000  -0.000000   0.000155
   6 H      -2.756563  -2.913935  -0.406788    0.001129  -0.001134   0.000370
   7 H      -1.145260   3.844222  -0.406788   -0.001546  -0.000411   0.000370
   8 H       3.901824  -0.930286  -0.406788    0.000417   0.001545   0.000370
 
  no constraints, skipping   0.000000000000000E+000

  Step       Energy      Delta E   Gmax     Grms     Xrms     Xmax   Walltime
  ---- ---------------- -------- -------- -------- -------- -------- --------
@   11    -644.34118352  3.0D-05  0.00016  0.00010  0.00145  0.00254    637.4
                                                                    

 Restricting overall step due to uphill motion.   alpha=  0.15
  no constraints, skipping   0.000000000000000E+000
  no constraints, skipping   0.000000000000000E+000
  no constraints, skipping   0.000000000000000E+000
  no constraints, skipping   0.000000000000000E+000

          --------
          Step  12
          --------
 
                                 NWChem DFT Module
                                 -----------------
 
 
                                        VX
 
 
 
 
 solvent parameters
 solvname_short: chcl3   
 solvname_long:  chloroform                         
 dielec:        4.7113
 dielecinf:     2.0906

          ---------------
          -cosmo- solvent
          ---------------
 Cosmo: York-Karplus, doi: 10.1021/jp992097l
 dielectric constant -eps-     =   4.71
 screen = (eps-1)/(eps    )    =   0.78774
 surface charge correction     = lagrangian
 -lineq- algorithm             =   0
 -bem- low  level              =   2
 -bem- from -octahedral-
 gaussian surface charge width =   0.98000
 degree of switching           =   1.00000
 switching function tolerance  =   0.00010
 atomic radii = 
 --------------
    1 15.000  2.106
    2  8.000  1.720
    3  8.000  1.720
    4  8.000  1.720
    5  8.000  1.720
    6  1.000  1.300
    7  1.000  1.300
    8  1.000  1.300

 solvent accessible surface
 --------------------------

 ---------- ATOMIC COORDINATES (A.U.) ------------ VDWR(ANG.) --
     1   -0.00000000    0.00000000    0.33462258     2.106
     2   -2.39511549   -1.23175440   -1.01478728     1.720
     3    0.13082714    2.69010806   -1.01478728     1.720
     4    2.26428835   -1.45835366   -1.01478728     1.720
     5    0.00000000   -0.00000000    3.11502573     1.720
     6   -2.75543124   -2.91439005   -0.40897140     1.300
     7   -1.14622020    3.84346848   -0.40897140     1.300
     8    3.90165144   -0.92907843   -0.40897140     1.300
 number of segments per atom =         32
 number of   points per atom =         32
 atom (   nspa,  nppa )
 ----------------------
    1 (     10,     0 )       0
    2 (     17,     0 )       0
    3 (     19,     0 )       0
    4 (     17,     0 )       0
    5 (     24,     0 )       0
    6 (     18,     0 )       0
    7 (     17,     0 )       0
    8 (     18,     0 )       0
 number of -cosmo- surface points =      140
 molecular surface =    103.151 angstrom**2
 molecular volume  =     57.056 angstrom**3
 G(cav/disp)       =      1.376 kcal/mol
 ...... end of -cosmo- initialization ......


  Caching 1-el integrals 
  Rotation of axis 
   Time after variat. SCF:    637.6
   Time prior to 1st pass:    637.6


         Total DFT energy =     -644.341157909480
      One electron energy =    -1445.772876091286
           Coulomb energy =      580.090428319013
    Exchange-Corr. energy =      -58.989282908398
 Nuclear repulsion energy =      280.230020159279

             COSMO energy =        0.100552611912

 Numeric. integr. density =       49.999999309464

     Total iterative time =     43.6s


                                   COSMO solvation results
                                   -----------------------

[...]
    4 O                    8.0000     1.20045238    -0.76928997    -0.53300280
    5 O                    8.0000     0.00157460    -0.01243282     1.65138936
    6 H                    1.0000    -1.54249564    -1.48251451    -0.11038422
    7 H                    1.0000    -0.72739003     1.97101545    -0.36970969
    8 H                    1.0000     2.06684612    -0.51406633    -0.18943288


  Geometry after  -50.0% step for mode  2; Step length =  0.256 angstroms 
   Maximum component (any atom: x,y, or z) displacement:  0.277
    1 P                   15.0000    -0.00072077    -0.00075428     0.18012603
    2 O                    8.0000    -1.27078435    -0.65129050    -0.53104106
    3 O                    8.0000     0.06892978     1.42228271    -0.53422017
    4 O                    8.0000     1.19203159    -0.78357524    -0.53151407
    5 O                    8.0000    -0.00157460     0.01243282     1.65138936
    6 H                    1.0000    -1.36708278    -1.60473120    -0.33596698
    7 H                    1.0000    -0.49145397     2.09237623    -0.07664150
    8 H                    1.0000     2.06157630    -0.46207965    -0.25691831


  Geometry after   36.1% step for mode  2; Step length =  0.185 angstroms 
   Maximum component (any atom: x,y, or z) displacement:  0.200
    1 P                   15.0000     0.00052059     0.00054478     0.18012603
    2 O                    8.0000    -1.27034862    -0.64520945    -0.53313769
    3 O                    8.0000     0.07816037     1.42557143    -0.53084155
    4 O                    8.0000     1.19928297    -0.77127378    -0.53279606
    5 O                    8.0000     0.00113727    -0.00897970     1.65138936
    6 H                    1.0000    -1.51813590    -1.49948685    -0.14171110
    7 H                    1.0000    -0.69462538     1.98786893    -0.32901105
    8 H                    1.0000     2.06611429    -0.50684689    -0.19880465


  Geometry after  -36.1% step for mode  2; Step length =  0.185 angstroms 
   Maximum component (any atom: x,y, or z) displacement:  0.200
    1 P                   15.0000    -0.00052059    -0.00054478     0.18012603
    2 O                    8.0000    -1.27071408    -0.65030983    -0.53137917
    3 O                    8.0000     0.07041836     1.42281306    -0.53367531
    4 O                    8.0000     1.19320099    -0.78159143    -0.53172081
    5 O                    8.0000    -0.00113727     0.00897970     1.65138936
    6 H                    1.0000    -1.39144253    -1.58775885    -0.30464010
    7 H                    1.0000    -0.52421862     2.07552275    -0.11734015
    8 H                    1.0000     2.06230813    -0.46929908    -0.24754655


  Geometry after   18.1% step for mode  2; Step length =  0.092 angstroms 
   Maximum component (any atom: x,y, or z) displacement:  0.100
    1 P                   15.0000     0.00026029     0.00027239     0.18012603
    2 O                    8.0000    -1.27043998    -0.64648455    -0.53269806
    3 O                    8.0000     0.07622487     1.42488184    -0.53154999
    4 O                    8.0000     1.19776248    -0.77385319    -0.53252724
    5 O                    8.0000     0.00056863    -0.00448985     1.65138936
    6 H                    1.0000    -1.48646255    -1.52155485    -0.18244335
    7 H                    1.0000    -0.65202369     2.00978239    -0.27609332
    8 H                    1.0000     2.06516275    -0.49745994    -0.21099012


  Geometry after  -18.1% step for mode  2; Step length =  0.092 angstroms 
   Maximum component (any atom: x,y, or z) displacement:  0.100
    1 P                   15.0000    -0.00026029    -0.00027239     0.18012603
    2 O                    8.0000    -1.27062271    -0.64903474    -0.53181880
    3 O                    8.0000     0.07235387     1.42350265    -0.53296687
    4 O                    8.0000     1.19472148    -0.77901201    -0.53198962
    5 O                    8.0000    -0.00056863     0.00448985     1.65138936
    6 H                    1.0000    -1.42311587    -1.56569085    -0.26390785
    7 H                    1.0000    -0.56682031     2.05360930    -0.17025787
    8 H                    1.0000     2.06325967    -0.47868604    -0.23536107


 vib:animation  F
 
 
                                NWChem Input Module
                                -------------------
 
 
                              NWChem Property Module
                              ----------------------
 
 
                                 NWChem DFT Module
                                 -----------------
 
 
                                        VX
 
 
 
 
 solvent parameters
 solvname_short: chcl3   
 solvname_long:  chloroform                         
 dielec:        4.7113
 dielecinf:     2.0906

          ---------------
          -cosmo- solvent
          ---------------
 Cosmo: York-Karplus, doi: 10.1021/jp992097l
 dielectric constant -eps-     =   4.71
 screen = (eps-1)/(eps    )    =   0.78774
 surface charge correction     = lagrangian
 -lineq- algorithm             =   0
 -bem- low  level              =   2
 -bem- from -octahedral-
 gaussian surface charge width =   0.98000
 degree of switching           =   1.00000
 switching function tolerance  =   0.00010
 atomic radii = 
 --------------
    1 15.000  2.106
    2  8.000  1.720
    3  8.000  1.720
    4  8.000  1.720
    5  8.000  1.720
    6  1.000  1.300
    7  1.000  1.300
    8  1.000  1.300

 solvent accessible surface
 --------------------------

 ---------- ATOMIC COORDINATES (A.U.) ------------ VDWR(ANG.) --
     1    0.00000000   -0.00000000    0.34038884     2.106
     2   -2.40095611   -1.22408823   -1.00582259     1.720
     3    0.14038655    2.69133310   -1.00582259     1.720
     4    2.26056956   -1.46724487   -1.00582259     1.720
     5    0.00000000    0.00000000    3.12067339     1.720
     6   -2.74915298   -2.91702422   -0.42174073     1.300
     7   -1.15164059    3.83934843   -0.42174073     1.300
     8    3.90079357   -0.92232421   -0.42174073     1.300
 number of segments per atom =         32
 number of   points per atom =         32
 atom (   nspa,  nppa )
 ----------------------
    1 (     10,     0 )       0
    2 (     17,     0 )       0
    3 (     19,     0 )       0
    4 (     17,     0 )       0
    5 (     24,     0 )       0
    6 (     18,     0 )       0
    7 (     16,     0 )       0
    8 (     18,     0 )       0
 number of -cosmo- surface points =      139
 molecular surface =    103.083 angstrom**2
 molecular volume  =     57.025 angstrom**3
 G(cav/disp)       =      1.375 kcal/mol
 ...... end of -cosmo- initialization ......


  Caching 1-el integrals 
   Time after variat. SCF:   4784.3
   Time prior to 1st pass:   4784.3


         Total DFT energy =     -644.341014724033
      One electron energy =    -1445.740776526698
           Coulomb energy =      580.074247619627
    Exchange-Corr. energy =      -58.989146067348
 Nuclear repulsion energy =      280.214935662814

             COSMO energy =        0.099724587571

 Numeric. integr. density =       49.999999963205

     Total iterative time =    120.8s


                                   COSMO solvation results
                                   -----------------------

                 gas phase energy =      -644.319141101215
                 sol phase energy =      -644.341014724033
 (electrostatic) solvation energy =         0.021873622818 (   13.73 kcal/mol)

          -----------------------------------------
          Chemical Shielding Tensors (GIAO, in ppm)
          -----------------------------------------

    0 giaofock schwarz done =      89.27%
    0 giaofock schwarz done =      87.28%
 
 solvent parameters
 solvname_short: chcl3   
 solvname_long:  chloroform                         
 dielec:        4.7113
 dielecinf:     2.0906

          ---------------
          -cosmo- solvent
          ---------------
 Cosmo: York-Karplus, doi: 10.1021/jp992097l
 dielectric constant -eps-     =   4.71
 screen = (eps-1)/(eps    )    =   0.78774
 surface charge correction     = lagrangian
 -lineq- algorithm             =   0
 -bem- low  level              =   2
 -bem- from -octahedral-
 gaussian surface charge width =   0.98000
 degree of switching           =   1.00000
 switching function tolerance  =   0.00010
 atomic radii = 
 --------------
    1 15.000  2.106
    2  8.000  1.720
    3  8.000  1.720
    4  8.000  1.720
    5  8.000  1.720
    6  1.000  1.300
    7  1.000  1.300
    8  1.000  1.300

 solvent accessible surface
 --------------------------

 ---------- ATOMIC COORDINATES (A.U.) ------------ VDWR(ANG.) --
     1    0.00000000   -0.00000000    0.34038884     2.106
     2   -2.40095611   -1.22408823   -1.00582259     1.720
     3    0.14038655    2.69133310   -1.00582259     1.720
     4    2.26056956   -1.46724487   -1.00582259     1.720
     5    0.00000000    0.00000000    3.12067339     1.720
     6   -2.74915298   -2.91702422   -0.42174073     1.300
     7   -1.15164059    3.83934843   -0.42174073     1.300
     8    3.90079357   -0.92232421   -0.42174073     1.300
 number of segments per atom =         32
 number of   points per atom =         32
 atom (   nspa,  nppa )
 ----------------------
    1 (     10,     0 )       0
    2 (     17,     0 )       0
    3 (     19,     0 )       0
    4 (     17,     0 )       0
    5 (     24,     0 )       0
    6 (     18,     0 )       0
    7 (     16,     0 )       0
    8 (     18,     0 )       0
 number of -cosmo- surface points =      139
 molecular surface =    103.083 angstrom**2
 molecular volume  =     57.025 angstrom**3
 G(cav/disp)       =      1.375 kcal/mol
 ...... end of -cosmo- initialization ......


 SCF residual:   5.482699955308354E-005

 Wrote CPHF data to ./molecule.shieldcphf

 Calc. par tensor-> nonrel
      Atom:    1  P 
        Diamagnetic
    964.1811      0.0214      0.0190
      0.0214    964.2578      0.0075
      0.0190      0.0075    964.1790

        Paramagnetic
   -748.1677     -0.0226      0.1135
     -0.0226   -748.3571     -0.0133
      0.1135     -0.0133   -526.9060

        Total Shielding Tensor
    216.0134     -0.0012      0.1324
     -0.0012    215.9007     -0.0058
      0.1324     -0.0058    437.2730

           isotropic =     289.7290
          anisotropy =     221.3161

          Principal Components and Axis System
                 1           2           3
              437.2731    216.0134    215.9007

      1         0.0006      0.9999      0.0105
      2        -0.0000     -0.0105      0.9999
      3         1.0000     -0.0006      0.0000



      Atom:    2  O 
        Diamagnetic
    389.7648     14.3253      8.3456
     14.3253    393.1848     -2.0706
      8.3456     -2.0706    373.9957

        Paramagnetic
   -138.2531     23.8978     21.9695
     23.8978   -182.7170     34.5882
     21.9695     34.5882   -154.5157

        Total Shielding Tensor
    251.5116     38.2230     30.3151
     38.2230    210.4677     32.5176
     30.3151     32.5176    219.4800

           isotropic =     227.1531
          anisotropy =     106.2917

          Principal Components and Axis System
                 1           2           3
              298.0143    203.4157    180.0294

      1         0.7220     -0.6533     -0.2280
      2         0.4948      0.2572      0.8300
      3         0.4836      0.7121     -0.5090



      Atom:    3  O 
        Diamagnetic
    379.8745     -8.3719     -6.1565
     -8.3719    403.1610     -6.1493
     -6.1565     -6.1493    373.8244

        Paramagnetic
   -192.7091      6.9754     18.9756
      6.9754   -129.7847    -36.2262
     18.9756    -36.2262   -154.5460

        Total Shielding Tensor
    187.1655     -1.3965     12.8192
     -1.3965    273.3763    -42.3754
     12.8192    -42.3754    219.2784

           isotropic =     226.6067
          anisotropy =     105.7415

          Principal Components and Axis System
                 1           2           3
              297.1010    202.9019    179.8172

      1        -0.0677      0.5432      0.8369
      2         0.8715      0.4405     -0.2154
      3        -0.4857      0.7148     -0.5032



      Atom:    4  O 
        Diamagnetic
    404.6762     -5.7982     -2.1557
     -5.7982    378.5785      8.3843
     -2.1557      8.3843    374.0666

        Paramagnetic
   -150.5334    -31.0339    -40.8195
    -31.0339   -170.3686      1.6836
    -40.8195      1.6836   -154.4988

        Total Shielding Tensor
    254.1428    -36.8321    -42.9753
    -36.8321    208.2099     10.0678
    -42.9753     10.0678    219.5678

           isotropic =     227.3068
          anisotropy =     105.9977

          Principal Components and Axis System
                 1           2           3
              297.9720    203.4654    180.4832

      1         0.7904      0.1072      0.6032
      2        -0.3784     -0.6889      0.6182
      3        -0.4818      0.7169      0.5039



      Atom:    5  O 
        Diamagnetic
    384.3911      0.0164      0.1809
      0.0164    384.7195     -0.0851
      0.1809     -0.0851    429.3277

        Paramagnetic
   -227.0963     -0.2211     -0.1785
     -0.2211   -227.5983     -0.2309
     -0.1785     -0.2309   -196.9350

        Total Shielding Tensor
    157.2948     -0.2047      0.0024
     -0.2047    157.1212     -0.3160
      0.0024     -0.3160    232.3927

           isotropic =     182.2696
          anisotropy =      75.1867

          Principal Components and Axis System
                 1           2           3
              232.3940    157.4299    156.9848

      1         0.0000      0.8346      0.5509
      2        -0.0042     -0.5509      0.8345
      3         1.0000     -0.0023      0.0035



      Atom:    6  H 
        Diamagnetic
     25.0174      9.2871      0.2353
      9.2871     40.5729     -4.7019
      0.2353     -4.7019     20.2253

        Paramagnetic
     -0.0792     -2.6676     -0.4443
     -2.6676     -4.6890      2.0828
     -0.4443      2.0828      1.2614

        Total Shielding Tensor
     24.9382      6.6196     -0.2090
      6.6196     35.8839     -2.6191
     -0.2090     -2.6191     21.4867

           isotropic =      27.4362
          anisotropy =      17.8550

          Principal Components and Axis System
                 1           2           3
               39.3396     22.4621     20.5071

      1         0.4154      0.7776     -0.4720
      2         0.8993     -0.2730      0.3416
      3        -0.1368      0.5664      0.8127



      Atom:    7  H 
        Diamagnetic
     28.6490    -11.3681     -4.1892
    -11.3681     37.0041      2.1148
     -4.1892      2.1148     20.2205

        Paramagnetic
     -1.1989      3.3316      2.0542
      3.3316     -3.5153     -0.6627
      2.0542     -0.6627      1.3095

        Total Shielding Tensor
     27.4501     -8.0365     -2.1350
     -8.0365     33.4888      1.4521
     -2.1350      1.4521     21.5300

           isotropic =      27.4896
          anisotropy =      17.8363

          Principal Components and Axis System
                 1           2           3
               39.3805     22.5249     20.5635

      1        -0.5700      0.6275      0.5304
      2         0.8106      0.5349      0.2384
      3         0.1341     -0.5659      0.8135



      Atom:    8  H 
        Diamagnetic
     44.7195      2.0929      3.9473
      2.0929     20.8792      2.5776
      3.9473      2.5776     20.2238

        Paramagnetic
     -5.8181     -0.6493     -1.5865
     -0.6493      1.0700     -1.4404
     -1.5865     -1.4404      1.2665

        Total Shielding Tensor
     38.9014      1.4435      2.3608
      1.4435     21.9492      1.1373
      2.3608      1.1373     21.4903

           isotropic =      27.4469
          anisotropy =      17.8692

          Principal Components and Axis System
                 1           2           3
               39.3598     22.4752     20.5058

      1         0.9865     -0.1527     -0.0586
      2         0.0907      0.8088     -0.5810
      3         0.1361      0.5679      0.8118



 
 
                                NWChem Input Module
                                -------------------
 
 
 
 
                                     CITATION
                                     --------
                Please cite the following reference when publishing
                           results obtained with NWChem:
 
          E. Apr, E. J. Bylaska, W. A. de Jong, N. Govind, K. Kowalski,
       T. P. Straatsma, M. Valiev, H. J. J. van Dam, Y. Alexeev, J. Anchell,
       V. Anisimov, F. W. Aquino, R. Atta-Fynn, J. Autschbach, N. P. Bauman,
     J. C. Becca, D. E. Bernholdt, K. Bhaskaran-Nair, S. Bogatko, P. Borowski,
        J. Boschen, J. Brabec, A. Bruner, E. Caut, Y. Chen, G. N. Chuev,
      C. J. Cramer, J. Daily, M. J. O. Deegan, T. H. Dunning Jr., M. Dupuis,
   K. G. Dyall, G. I. Fann, S. A. Fischer, A. Fonari, H. Frchtl, L. Gagliardi,
      J. Garza, N. Gawande, S. Ghosh, K. Glaesemann, A. W. Gtz, J. Hammond,
       V. Helms, E. D. Hermes, K. Hirao, S. Hirata, M. Jacquelin, L. Jensen,
   B. G. Johnson, H. Jnsson, R. A. Kendall, M. Klemm, R. Kobayashi, V. Konkov,
      S. Krishnamoorthy, M. Krishnan, Z. Lin, R. D. Lins, R. J. Littlefield,
      A. J. Logsdail, K. Lopata, W. Ma, A. V. Marenich, J. Martin del Campo,
   D. Mejia-Rodriguez, J. E. Moore, J. M. Mullin, T. Nakajima, D. R. Nascimento,
    J. A. Nichols, P. J. Nichols, J. Nieplocha, A. Otero-de-la-Roza, B. Palmer,
    A. Panyala, T. Pirojsirikul, B. Peng, R. Peverati, J. Pittner, L. Pollack,
   R. M. Richard, P. Sadayappan, G. C. Schatz, W. A. Shelton, D. W. Silverstein,
   D. M. A. Smith, T. A. Soares, D. Song, M. Swart, H. L. Taylor, G. S. Thomas,
            V. Tipparaju, D. G. Truhlar, K. Tsemekhman, T. Van Voorhis,
     . Vzquez-Mayagoitia, P. Verma, O. Villa, A. Vishnu, K. D. Vogiatzis,
        D. Wang, J. H. Weare, M. J. Williamson, T. L. Windus, K. Woliski,
        A. T. Wong, Q. Wu, C. Yang, Q. Yu, M. Zacharias, Z. Zhang, Y. Zhao,
                                and R. J. Harrison
                        "NWChem: Past, present, and future
                         J. Chem. Phys. 152, 184102 (2020)
                               doi:10.1063/5.0004997
 
                                      AUTHORS
                                      -------
     E. Apra, E. J. Bylaska, N. Govind, K. Kowalski, M. Valiev, W. A. de Jong,
      T. P. Straatsma, H. J. J. van Dam, D. Wang, T. L. Windus, N. P. Bauman,
       A. Panyala, J. Hammond, J. Autschbach, K. Bhaskaran-Nair, J. Brabec,
    K. Lopata, S. A. Fischer, S. Krishnamoorthy, M. Jacquelin, W. Ma, M. Klemm,
       O. Villa, Y. Chen, V. Anisimov, F. Aquino, S. Hirata, M. T. Hackler,
           Eric Hermes, L. Jensen, J. E. Moore, J. C. Becca, V. Konjkov,
            D. Mejia-Rodriguez, T. Risthaus, M. Malagoli, A. Marenich,
   A. Otero-de-la-Roza, J. Mullin, P. Nichols, R. Peverati, J. Pittner, Y. Zhao,
        P.-D. Fan, A. Fonari, M. J. Williamson, R. J. Harrison, J. R. Rehr,
      M. Dupuis, D. Silverstein, D. M. A. Smith, J. Nieplocha, V. Tipparaju,
      M. Krishnan, B. E. Van Kuiken, A. Vazquez-Mayagoitia, M. Swart, Q. Wu,
   T. Van Voorhis, A. A. Auer, M. Nooijen, L. D. Crosby, E. Brown, G. Cisneros,
     G. I. Fann, H. Fruchtl, J. Garza, K. Hirao, R. A. Kendall, J. A. Nichols,
       K. Tsemekhman, K. Wolinski, J. Anchell, D. E. Bernholdt, P. Borowski,
       T. Clark, D. Clerc, H. Dachsel, M. J. O. Deegan, K. Dyall, D. Elwood,
      E. Glendening, M. Gutowski, A. C. Hess, J. Jaffe, B. G. Johnson, J. Ju,
        R. Kobayashi, R. Kutteh, Z. Lin, R. Littlefield, X. Long, B. Meng,
      T. Nakajima, S. Niu, L. Pollack, M. Rosing, K. Glaesemann, G. Sandrone,
      M. Stave, H. Taylor, G. Thomas, J. H. van Lenthe, A. T. Wong, Z. Zhang.

 Total times  cpu:     5213.6s     wall:     5224.1s
