 argument  1 = /home/milias/Work/open-collection/theoretical_chemistry/projects/nmr_diplomovky/reference_compounds/phosphoric_acid/nwchem/cosmo-chcl3/h3po4.geopt_freq_nmrshield_b3lyp_6-311++g2d_2p_cosmo-chcl3.nw
 


============================== echo of input deck ==============================
echo

start molecule

# https://nwchemgit.github.io/Memory.html
memory total 40 gb

print low

title "H3PO4"
charge 0

geometry units angstroms print xyz autosym
  load format xyz h3po4_startgeom.xyz
end

basis
  * library 6-311++G(2d,2p)
end

dft
  #grid fine
  grid huge
  xc b3lyp
  mult 1
# Reduce output during geometry optimization
  noprint "final vectors analysis"
  print low
end

driver
#  clear
  tight
#  linopt 0
  maxiter 9999
  xyz h3po4_geom
  print low
end

property
  giao
  shielding
end

cosmo
  solvent chcl3
end

task dft optimize
task dft freq
task dft property

================================================================================


                                         
                                         
 
 
             Northwest Computational Chemistry Package (NWChem) 7.0.1
             --------------------------------------------------------
 
 
                    Environmental Molecular Sciences Laboratory
                       Pacific Northwest National Laboratory
                                Richland, WA 99352
 
                              Copyright (c) 1994-2020
                       Pacific Northwest National Laboratory
                            Battelle Memorial Institute
 
             NWChem is an open-source computational chemistry package
                        distributed under the terms of the
                      Educational Community License (ECL) 2.0
             A copy of the license is included with this distribution
                              in the LICENSE.TXT file
 
                                  ACKNOWLEDGMENT
                                  --------------

            This software and its documentation were developed at the
            EMSL at Pacific Northwest National Laboratory, a multiprogram
            national laboratory, operated for the U.S. Department of Energy
            by Battelle under Contract Number DE-AC05-76RL01830. Support
            for this work was provided by the Department of Energy Office
            of Biological and Environmental Research, Office of Basic
            Energy Sciences, and the Office of Advanced Scientific Computing.


           Job information
           ---------------

    hostname        = comp20
    program         = /home/milias/Work/qch/software/nwchem_suite/nwchem_master/bin/LINUX64/nwchem
    date            = Thu Mar  4 07:53:29 2021

    compiled        = Sun_Jan_31_23:21:07_2021
    source          = /home/milias/Work/qch/software/nwchem_suite/nwchem_master
    nwchem branch   = 7.0.0
    nwchem revision = nwchem_on_git-2308-gc943026
    ga revision     = 5.8.0
    use scalapack   = F
    input           = /home/milias/Work/open-collection/theoretical_chemistry/projects/nmr_diplomovky/reference_compounds/phosphoric_acid/nwchem/cosmo-chcl3/h3po4.geopt_freq_nmrshield_b3lyp_6-311++g2d_2p_cosmo-chcl3.nw
    prefix          = molecule.
    data base       = ./molecule.db
    status          = startup
    nproc           =       12
    time left       =     -1s



           Memory information
           ------------------

    heap     = 1342177280 doubles =  10240.0 Mbytes
    stack    = 1342177277 doubles =  10240.0 Mbytes
    global   = 2684354560 doubles =  20480.0 Mbytes (distinct from heap & stack)
    total    = 5368709117 doubles =  40960.0 Mbytes
    verify   = yes
    hardfail = no 


           Directory information
           ---------------------
 
  0 permanent = .
  0 scratch   = .
 
 
 
 
                                NWChem Input Module
                                -------------------
 
 
                                       H3PO4
                                       -----

 Scaling coordinates for geometry "geometry" by  1.889725989
 (inverse scale =  0.529177249)


          ------
          auto-z
          ------
  no constraints, skipping   0.000000000000000E+000
  no constraints, skipping   0.000000000000000E+000
 
 
                             Geometry "geometry" -> ""
                             -------------------------
 
 Output coordinates in angstroms (scale by  1.889725989 to convert to a.u.)
 
  No.       Tag          Charge          X              Y              Z
 ---- ---------------- ---------- -------------- -------------- --------------
    1 P                   15.0000     0.00000000    -0.00000000     0.13074051
    2 O                    8.0000    -0.00000000     1.42612848    -0.58164395
    3 O                    8.0000     1.23506350    -0.71306424    -0.58164395
    4 O                    8.0000    -1.23506350    -0.71306424    -0.58164395
    5 O                    8.0000     0.00000000    -0.00000000     1.60200384
    6 H                    1.0000    -0.71442896     1.99719163    -0.27256112
    7 H                    1.0000     2.08683317    -0.37988219    -0.27256112
    8 H                    1.0000    -1.37240421    -1.61730944    -0.27256112
 
      Atomic Mass 
      ----------- 
 
      P                 30.973760
      O                 15.994910
      H                  1.007825
 

 Effective nuclear repulsion energy (a.u.)     280.2149359505

            Nuclear Dipole moment (a.u.) 
            ----------------------------
        X                 Y               Z
 ---------------- ---------------- ----------------
     0.0000000000     0.0000000000     0.0000000000
 
      Symmetry information
      --------------------
 
 Group name             C3        
 Group number              5
 Group order               3
 No. of unique centers     4
 
      Symmetry unique atoms
 
     1    2    5    6
 


                                Z-matrix (autoz)
                                -------- 

 Units are Angstrom for bonds and degrees for angles
 
      Type          Name      I     J     K     L     M      Value
      ----------- --------  ----- ----- ----- ----- ----- ----------
    1 Stretch                  1     2                       1.59416
    2 Stretch                  1     3                       1.59416
    3 Stretch                  1     4                       1.59416
    4 Stretch                  1     5                       1.47126
    5 Stretch                  2     6                       0.96543
    6 Stretch                  3     7                       0.96543
    7 Stretch                  4     8                       0.96543
    8 Bend                     1     2     6               112.71197
    9 Bend                     1     3     7               112.71197
   10 Bend                     1     4     8               112.71197
   11 Bend                     2     1     3               101.56372
   12 Bend                     2     1     4               101.56372
   13 Bend                     2     1     5               116.54320
   14 Bend                     3     1     4               101.56372
   15 Bend                     3     1     5               116.54320
   16 Bend                     4     1     5               116.54320
   17 Torsion                  2     1     3     7          74.39769
   18 Torsion                  2     1     4     8         178.91753
   19 Torsion                  3     1     2     6         178.91753
   20 Torsion                  3     1     4     8          74.39769
   21 Torsion                  4     1     2     6          74.39769
   22 Torsion                  4     1     3     7         178.91753
   23 Torsion                  5     1     2     6         -53.34239
   24 Torsion                  5     1     3     7         -53.34239
   25 Torsion                  5     1     4     8         -53.34239
 
 
            XYZ format geometry
            -------------------
     8
 geometry
 P                     0.00000000    -0.00000000     0.13074051
 O                    -0.00000000     1.42612848    -0.58164395
 O                     1.23506350    -0.71306424    -0.58164395
 O                    -1.23506350    -0.71306424    -0.58164395
 O                     0.00000000    -0.00000000     1.60200384
 H                    -0.71442896     1.99719163    -0.27256112
 H                     2.08683317    -0.37988219    -0.27256112
 H                    -1.37240421    -1.61730944    -0.27256112
 
 ==============================================================================
                                internuclear distances
 ------------------------------------------------------------------------------
       center one      |      center two      | atomic units |  angstroms
 ------------------------------------------------------------------------------
    2 O                |   1 P                |     3.01252  |     1.59416
    3 O                |   1 P                |     3.01252  |     1.59416
    4 O                |   1 P                |     3.01252  |     1.59416
    5 O                |   1 P                |     2.78028  |     1.47126
    6 H                |   2 O                |     1.82440  |     0.96543
    7 H                |   3 O                |     1.82440  |     0.96543
    8 H                |   4 O                |     1.82440  |     0.96543
 ------------------------------------------------------------------------------
                         number of included internuclear distances:          7
 ==============================================================================



 ==============================================================================
                                 internuclear angles
 ------------------------------------------------------------------------------
        center 1       |       center 2       |       center 3       |  degrees
 ------------------------------------------------------------------------------
    2 O                |   1 P                |   3 O                |   101.56
    2 O                |   1 P                |   4 O                |   101.56
    2 O                |   1 P                |   5 O                |   116.54
    3 O                |   1 P                |   4 O                |   101.56
    3 O                |   1 P                |   5 O                |   116.54
    4 O                |   1 P                |   5 O                |   116.54
    1 P                |   2 O                |   6 H                |   112.71
    1 P                |   3 O                |   7 H                |   112.71
    1 P                |   4 O                |   8 H                |   112.71
 ------------------------------------------------------------------------------
                            number of included internuclear angles:          9
 ==============================================================================



  library name resolved from: environment
  library file name is: </usr/share/nwchem/libraries/>
  


 Summary of "ao basis" -> "" (cartesian)
 ------------------------------------------------------------------------------
       Tag                 Description            Shells   Functions and Types
 ---------------- ------------------------------  ------  ---------------------
 *                      6-311++G(2d,2p)               on all atoms 


 
 
                           NWChem Geometry Optimization
                           ----------------------------
 
 
 
 
                                       H3PO4
 
 
  no constraints, skipping   0.000000000000000E+000
 maximum gradient threshold         (gmax) =   0.000015
 rms gradient threshold             (grms) =   0.000010
 maximum cartesian step threshold   (xmax) =   0.000060
 rms cartesian step threshold       (xrms) =   0.000040
 fixed trust radius                (trust) =   0.300000
 maximum step size to saddle      (sadstp) =   0.100000
 energy precision                  (eprec) =   5.0D-06
 maximum number of steps          (nptopt) = 9999
 initial hessian option           (inhess) =    0
 line search option               (linopt) =    1
 hessian update option            (modupd) =    1
 saddle point option              (modsad) =    0
 initial eigen-mode to follow     (moddir) =    0
 initial variable to follow       (vardir) =    0
 follow first negative mode     (firstneg) =    T
 apply conjugacy                    (opcg) =    F
 source of zmatrix                         =   autoz   


          -------------------
          Energy Minimization
          -------------------

 
 Names of Z-matrix variables 
    1              2              3              4              5         
    6              7              8              9             10         
   11             12             13             14             15         
   16             17             18             19             20         
   21             22             23             24             25         
 
 Variables with the same non-blank name are constrained to be equal
 
 
 Using diagonal initial Hessian 
 Scaling for Hessian diagonals: bonds = 1.00  angles = 0.25  torsions = 0.10

          --------
          Step   0
          --------
 
                                 NWChem DFT Module
                                 -----------------
 
 
                                       H3PO4
 
 
                      Basis "ao basis" -> "ao basis" (cartesian)
                      -----
  P (Phosphorous)
  ---------------
            Exponent  Coefficients 
       -------------- ---------------------------------------------------------
  1 S  7.74924000E+04  0.000781
  1 S  1.16058000E+04  0.006068
  1 S  2.64596000E+03  0.031160
  1 S  7.54976000E+02  0.123431
  1 S  2.48755000E+02  0.378209
  1 S  9.11565000E+01  0.563262
 
  2 S  9.11565000E+01  0.160255
  2 S  3.62257000E+01  0.627647
  2 S  1.52113000E+01  0.263849
 
  3 S  4.79417000E+00  1.000000
 
  4 S  1.80793000E+00  1.000000
 
  5 S  3.56816000E-01  1.000000
 
  6 S  1.14783000E-01  1.000000
 
  7 P  3.84843000E+02  0.009206
  7 P  9.05521000E+01  0.069874
  7 P  2.91339000E+01  0.292470
  7 P  1.08862000E+01  0.728103
 
  8 P  4.35259000E+00  0.628349
  8 P  1.77706000E+00  0.428044
 
  9 P  6.97005000E-01  1.000000
 
 10 P  2.53532000E-01  1.000000
 
 11 P  6.84930000E-02  1.000000
 
 12 S  3.48000000E-02  1.000000
 
 13 P  3.48000000E-02  1.000000
 
 14 D  1.10000000E+00  1.000000
 
 15 D  2.75000000E-01  1.000000
 
  O (Oxygen)
  ----------
            Exponent  Coefficients 
       -------------- ---------------------------------------------------------
  1 S  8.58850000E+03  0.001895
  1 S  1.29723000E+03  0.014386
  1 S  2.99296000E+02  0.070732
  1 S  8.73771000E+01  0.240001
  1 S  2.56789000E+01  0.594797
  1 S  3.74004000E+00  0.280802
 
  2 S  4.21175000E+01  0.113889
  2 S  9.62837000E+00  0.920811
  2 S  2.85332000E+00 -0.003274
 
  3 P  4.21175000E+01  0.036511
  3 P  9.62837000E+00  0.237153
  3 P  2.85332000E+00  0.819702
 
  4 S  9.05661000E-01  1.000000
 
  5 P  9.05661000E-01  1.000000
 
  6 S  2.55611000E-01  1.000000
 
  7 P  2.55611000E-01  1.000000
 
  8 S  8.45000000E-02  1.000000
 
  9 P  8.45000000E-02  1.000000
 
 10 D  2.58400000E+00  1.000000
 
 11 D  6.46000000E-01  1.000000
 
  H (Hydrogen)
  ------------
            Exponent  Coefficients 
       -------------- ---------------------------------------------------------
  1 S  3.38650000E+01  0.025494
  1 S  5.09479000E+00  0.190373
  1 S  1.15879000E+00  0.852161
 
  2 S  3.25840000E-01  1.000000
 
  3 S  1.02741000E-01  1.000000
 
  4 S  3.60000000E-02  1.000000
 
  5 P  1.50000000E+00  1.000000
 
  6 P  3.75000000E-01  1.000000
 


 Summary of "ao basis" -> "ao basis" (cartesian)
 ------------------------------------------------------------------------------
       Tag                 Description            Shells   Functions and Types
 ---------------- ------------------------------  ------  ---------------------
 P                      6-311++G(2d,2p)             15       37   7s6p2d
 O                      6-311++G(2d,2p)             11       29   5s4p2d
 H                      6-311++G(2d,2p)              6       10   4s2p


 
 
 solvent parameters
 solvname_short: chcl3   
 solvname_long:  chloroform                         
 dielec:        4.7113
 dielecinf:     2.0906

          ---------------
          -cosmo- solvent
          ---------------
 Cosmo: York-Karplus, doi: 10.1021/jp992097l
 dielectric constant -eps-     =   4.71
 screen = (eps-1)/(eps    )    =   0.78774
 surface charge correction     = lagrangian
 -lineq- algorithm             =   0
 -bem- low  level              =   2
 -bem- from -octahedral-
 gaussian surface charge width =   0.98000
 degree of switching           =   1.00000
 switching function tolerance  =   0.00010
 atomic radii = 
 --------------
    1 15.000  2.106
    2  8.000  1.720
    3  8.000  1.720
    4  8.000  1.720
    5  8.000  1.720
    6  1.000  1.300
    7  1.000  1.300
    8  1.000  1.300

 solvent accessible surface
 --------------------------

 ---------- ATOMIC COORDINATES (A.U.) ------------ VDWR(ANG.) --
     1    0.00000000   -0.00000000    0.24706373     2.106
     2   -0.00000000    2.69499206   -1.09914770     1.720
     3    2.33393159   -1.34749603   -1.09914770     1.720
     4   -2.33393159   -1.34749603   -1.09914770     1.720
     5    0.00000000   -0.00000000    3.02734828     1.720
     6   -1.35007497    3.77414493   -0.51506584     1.300
     7    3.94354288   -0.71787325   -0.51506584     1.300
     8   -2.59346791   -3.05627169   -0.51506584     1.300
 number of segments per atom =         32
 number of   points per atom =         32
 atom (   nspa,  nppa )
 ----------------------
    1 (     10,     0 )       0
    2 (     21,     0 )       0
    3 (     17,     0 )       0
    4 (     17,     0 )       0
    5 (     24,     0 )       0
    6 (     17,     0 )       0
    7 (     18,     0 )       0
    8 (     18,     0 )       0
 number of -cosmo- surface points =      142
 molecular surface =    102.499 angstrom**2
 molecular volume  =     56.611 angstrom**3
 G(cav/disp)       =      1.372 kcal/mol
 ...... end of -cosmo- initialization ......


  Caching 1-el integrals 
  Rotation of axis 
   Time after variat. SCF:      2.1
   Time prior to 1st pass:      2.1
  Resetting Diis


         Total DFT energy =     -644.340835744479
      One electron energy =    -1445.749523622028
           Coulomb energy =      580.076946828079
    Exchange-Corr. energy =      -58.989061084799
 Nuclear repulsion energy =      280.214935950469

             COSMO energy =        0.105866183799

 Numeric. integr. density =       49.999999309890

     Total iterative time =     46.8s


                                   COSMO solvation results
                                   -----------------------

                 gas phase energy =      -644.319140854190
                 sol phase energy =      -644.340835744479
 (electrostatic) solvation energy =         0.021694890289 (   13.61 kcal/mol)
 
                  Occupations of the irreducible representations
                  ----------------------------------------------
 
                     irrep           alpha         beta
                     --------     --------     --------
                     a                11.0         11.0
                     e+               14.0         14.0
                     e-                0.0          0.0
 
  Rotation of axis 


                         DFT ENERGY GRADIENTS

    atom               coordinates                        gradient
                 x          y          z           x          y          z
   1 P       0.000000  -0.000000   0.247064    0.000000   0.000000   0.001677
   2 O      -0.000000   2.694992  -1.099148    0.001434   0.004230  -0.001230
   3 O       2.333932  -1.347496  -1.099148    0.002946  -0.003357  -0.001230
   4 O      -2.333932  -1.347496  -1.099148   -0.004381  -0.000873  -0.001230
   5 O       0.000000  -0.000000   3.027348    0.000000  -0.000000   0.000902
   6 H      -1.350075   3.774145  -0.515066    0.000179  -0.003911   0.000370
   7 H       3.943543  -0.717873  -0.515066   -0.003477   0.001801   0.000370
   8 H      -2.593468  -3.056272  -0.515066    0.003298   0.002110   0.000370
 
  no constraints, skipping   0.000000000000000E+000

@ Step       Energy      Delta E   Gmax     Grms     Xrms     Xmax   Walltime
@ ---- ---------------- -------- -------- -------- -------- -------- --------
@    0    -644.34083574  0.0D+00  0.00283  0.00133  0.00000  0.00000     57.5
                                                                    

  no constraints, skipping   0.000000000000000E+000
  no constraints, skipping   0.000000000000000E+000
  no constraints, skipping   0.000000000000000E+000
  no constraints, skipping   0.000000000000000E+000
  no constraints, skipping   0.000000000000000E+000
  no constraints, skipping   0.000000000000000E+000
  no constraints, skipping   0.000000000000000E+000
  no constraints, skipping   0.000000000000000E+000
 
                                 NWChem DFT Module
                                 -----------------
 
 
                                       H3PO4
 
 
 
 
 solvent parameters
 solvname_short: chcl3   
 solvname_long:  chloroform                         
 dielec:        4.7113
 dielecinf:     2.0906

          ---------------
          -cosmo- solvent
          ---------------
 Cosmo: York-Karplus, doi: 10.1021/jp992097l
 dielectric constant -eps-     =   4.71
 screen = (eps-1)/(eps    )    =   0.78774
 surface charge correction     = lagrangian
 -lineq- algorithm             =   0
 -bem- low  level              =   2
 -bem- from -octahedral-
 gaussian surface charge width =   0.98000
 degree of switching           =   1.00000
 switching function tolerance  =   0.00010
 atomic radii = 
 --------------
    1 15.000  2.106
    2  8.000  1.720
    3  8.000  1.720
    4  8.000  1.720
    5  8.000  1.720
    6  1.000  1.300
    7  1.000  1.300
    8  1.000  1.300

 solvent accessible surface
 --------------------------

 ---------- ATOMIC COORDINATES (A.U.) ------------ VDWR(ANG.) --
     1   -0.00000000    0.00000000    0.25691811     2.106
     2   -0.01231497    2.69240093   -1.09123526     1.720
     3    2.33784509   -1.33553539   -1.09123526     1.720
     4   -2.32553012   -1.35686554   -1.09123526     1.720
     5    0.00000000    0.00000000    3.03577394     1.720
     6   -1.35270535    3.80607775   -0.52907162     1.300
     7    3.97251270   -0.73156168   -0.52907162     1.300
     8   -2.61980735   -3.07451607   -0.52907162     1.300
 number of segments per atom =         32
 number of   points per atom =         32
 atom (   nspa,  nppa )
 ----------------------
    1 (     10,     0 )       0
    2 (     21,     0 )       0
    3 (     17,     0 )       0
    4 (     17,     0 )       0
    5 (     24,     0 )       0
    6 (     17,     0 )       0
    7 (     19,     0 )       0
    8 (     18,     0 )       0
 number of -cosmo- surface points =      143
 molecular surface =    102.694 angstrom**2
 molecular volume  =     56.713 angstrom**3
 G(cav/disp)       =      1.373 kcal/mol
 ...... end of -cosmo- initialization ......


  Caching 1-el integrals 
  Rotation of axis 
   Time after variat. SCF:     57.7
   Time prior to 1st pass:     57.7


         Total DFT energy =     -644.340946977497
      One electron energy =    -1445.646644154531
           Coulomb energy =      580.042055875327
    Exchange-Corr. energy =      -58.984634035105
 Nuclear repulsion energy =      280.121900420089

             COSMO energy =        0.126374916724

 Numeric. integr. density =       49.999999317778

     Total iterative time =     41.8s


                                   COSMO solvation results
                                   -----------------------

                 gas phase energy =      -644.319025141803
                 sol phase energy =      -644.340946977497
 (electrostatic) solvation energy =         0.021921835693 (   13.76 kcal/mol)
 
                  Occupations of the irreducible representations
                  ----------------------------------------------
 
                     irrep           alpha         beta
                     --------     --------     --------
                     a                11.0         11.0
                     e+               14.0         14.0
                     e-                0.0          0.0
 
 Line search: 
     step= 1.00 grad=-4.9D-04 hess= 3.7D-04 energy=   -644.340947 mode=downhill
 new step= 0.65                   predicted energy=   -644.340993
  no constraints, skipping   0.000000000000000E+000
  no constraints, skipping   0.000000000000000E+000
  no constraints, skipping   0.000000000000000E+000
  no constraints, skipping   0.000000000000000E+000

          --------
          Step   1
          --------
 
                                 NWChem DFT Module
                                 -----------------
 
 
                                       H3PO4
 
 
 
 
 solvent parameters
 solvname_short: chcl3   
 solvname_long:  chloroform                         
 dielec:        4.7113
 dielecinf:     2.0906

          ---------------
          -cosmo- solvent
          ---------------
 Cosmo: York-Karplus, doi: 10.1021/jp992097l
 dielectric constant -eps-     =   4.71
 screen = (eps-1)/(eps    )    =   0.78774
 surface charge correction     = lagrangian
 -lineq- algorithm             =   0
 -bem- low  level              =   2
 -bem- from -octahedral-
 gaussian surface charge width =   0.98000
 degree of switching           =   1.00000
 switching function tolerance  =   0.00010
 atomic radii = 
 --------------
    1 15.000  2.106
    2  8.000  1.720
    3  8.000  1.720
    4  8.000  1.720
    5  8.000  1.720
    6  1.000  1.300
    7  1.000  1.300
    8  1.000  1.300

 solvent accessible surface
 --------------------------

 ---------- ATOMIC COORDINATES (A.U.) ------------ VDWR(ANG.) --
     1    0.00000000    0.00000000    0.25342459     2.106
     2   -0.00797009    2.69331765   -1.09404705     1.720
     3    2.33646655   -1.33975652   -1.09404705     1.720
     4   -2.32849646   -1.35356113   -1.09404705     1.720
     5    0.00000000    0.00000000    3.03278220     1.720
     6   -1.35181976    3.79493135   -0.52409808     1.300
     7    3.96241683   -0.72675542   -0.52409808     1.300
     8   -2.61059707   -3.06817593   -0.52409808     1.300
 number of segments per atom =         32
 number of   points per atom =         32
 atom (   nspa,  nppa )
 ----------------------
    1 (     10,     0 )       0
    2 (     21,     0 )       0
    3 (     17,     0 )       0
    4 (     17,     0 )       0
    5 (     24,     0 )       0
    6 (     17,     0 )       0
    7 (     18,     0 )       0
    8 (     18,     0 )       0
 number of -cosmo- surface points =      142
 molecular surface =    102.631 angstrom**2
 molecular volume  =     56.681 angstrom**3
 G(cav/disp)       =      1.373 kcal/mol
 ...... end of -cosmo- initialization ......


  Caching 1-el integrals 
  Rotation of axis 
   Time after variat. SCF:     99.7
   Time prior to 1st pass:     99.7


         Total DFT energy =     -644.340949459633
      One electron energy =    -1445.681653420681
           Coulomb energy =      580.053828784670
    Exchange-Corr. energy =      -58.986184982544
 Nuclear repulsion energy =      280.153995695169

             COSMO energy =        0.119064463753

 Numeric. integr. density =       49.999999327553

     Total iterative time =     43.7s


                                   COSMO solvation results
                                   -----------------------

                 gas phase energy =      -644.319104173622
                 sol phase energy =      -644.340949459633
 (electrostatic) solvation energy =         0.021845286010 (   13.71 kcal/mol)
 
                  Occupations of the irreducible representations
                  ----------------------------------------------
 
                     irrep           alpha         beta
                     --------     --------     --------
                     a                11.0         11.0
                     e+               14.0         14.0
                     e-                0.0          0.0
 
  Rotation of axis 


                         DFT ENERGY GRADIENTS

    atom               coordinates                        gradient
                 x          y          z           x          y          z
   1 P       0.000000   0.000000   0.253425    0.000000   0.000000   0.001415
   2 O      -0.007970   2.693318  -1.094047    0.002086   0.002223  -0.001006
   3 O       2.336467  -1.339757  -1.094047    0.000882  -0.002918  -0.001006
   4 O      -2.328496  -1.353561  -1.094047   -0.002968   0.000695  -0.001006
   5 O       0.000000   0.000000   3.032782    0.000000   0.000000   0.000220
   6 H      -1.351820   3.794931  -0.524098   -0.001479  -0.001265   0.000461
   7 H       3.962417  -0.726755  -0.524098   -0.000356   0.001913   0.000461
   8 H      -2.610597  -3.068176  -0.524098    0.001835  -0.000648   0.000461
 
  no constraints, skipping   0.000000000000000E+000

  Step       Energy      Delta E   Gmax     Grms     Xrms     Xmax   Walltime
  ---- ---------------- -------- -------- -------- -------- -------- --------
@    1    -644.34094946 -1.1D-04  0.00146  0.00068  0.00886  0.02052    152.6
                                                                    

  no constraints, skipping   0.000000000000000E+000
  no constraints, skipping   0.000000000000000E+000
  no constraints, skipping   0.000000000000000E+000
  no constraints, skipping   0.000000000000000E+000
  no constraints, skipping   0.000000000000000E+000
  no constraints, skipping   0.000000000000000E+000
  no constraints, skipping   0.000000000000000E+000
  no constraints, skipping   0.000000000000000E+000
 
                                 NWChem DFT Module
                                 -----------------
 
 
                                       H3PO4
 
 
 
 
 solvent parameters
 solvname_short: chcl3   
 solvname_long:  chloroform                         
 dielec:        4.7113
 dielecinf:     2.0906

          ---------------
          -cosmo- solvent
          ---------------
 Cosmo: York-Karplus, doi: 10.1021/jp992097l
 dielectric constant -eps-     =   4.71
 screen = (eps-1)/(eps    )    =   0.78774
 surface charge correction     = lagrangian
 -lineq- algorithm             =   0
 -bem- low  level              =   2
 -bem- from -octahedral-
 gaussian surface charge width =   0.98000
 degree of switching           =   1.00000
 switching function tolerance  =   0.00010
 atomic radii = 
 --------------
    1 15.000  2.106
    2  8.000  1.720
    3  8.000  1.720
    4  8.000  1.720
    5  8.000  1.720
    6  1.000  1.300
    7  1.000  1.300
    8  1.000  1.300

 solvent accessible surface
 --------------------------

 ---------- ATOMIC COORDINATES (A.U.) ------------ VDWR(ANG.) --
     1   -0.00000000    0.00000000    0.26435575     2.106
     2   -0.02177337    2.68608018   -1.08755212     1.720
     3    2.33710036   -1.32418380   -1.08755212     1.720
     4   -2.31532699   -1.36189638   -1.08755212     1.720
     5    0.00000000   -0.00000000    3.04320048     1.720
     6   -1.34877449    3.81392420   -0.53770949     1.300
     7    3.97734249   -0.73888913   -0.53770949     1.300
     8   -2.62856800   -3.07503507   -0.53770949     1.300
 number of segments per atom =         32
 number of   points per atom =         32
 atom (   nspa,  nppa )
 ----------------------
    1 (     10,     0 )       0
    2 (     21,     0 )       0
    3 (     17,     0 )       0
    4 (     17,     0 )       0
    5 (     24,     0 )       0
    6 (     17,     0 )       0
    7 (     19,     0 )       0
    8 (     18,     0 )       0
 number of -cosmo- surface points =      143
 molecular surface =    102.586 angstrom**2
 molecular volume  =     56.661 angstrom**3
 G(cav/disp)       =      1.373 kcal/mol
 ...... end of -cosmo- initialization ......


  Caching 1-el integrals 
  Rotation of axis 
   Time after variat. SCF:    152.8
   Time prior to 1st pass:    152.8


         Total DFT energy =     -644.340924249074
      One electron energy =    -1446.152936624967
           Coulomb energy =      580.301905411915
    Exchange-Corr. energy =      -58.991070502574
 Nuclear repulsion energy =      280.368413135995

             COSMO energy =        0.132764330557

 Numeric. integr. density =       49.999999323530

     Total iterative time =     43.6s


                                   COSMO solvation results
                                   -----------------------

                 gas phase energy =      -644.318983816376
                 sol phase energy =      -644.340924249074
 (electrostatic) solvation energy =         0.021940432699 (   13.77 kcal/mol)
 
                  Occupations of the irreducible representations
                  ----------------------------------------------
 
                     irrep           alpha         beta
                     --------     --------     --------
                     a                11.0         11.0
                     e+               14.0         14.0
                     e-                0.0          0.0
 
 Line search: 
     step= 1.00 grad=-2.4D-04 hess= 2.7D-04 energy=   -644.340924 mode=bracket 
 new step= 0.45                   predicted energy=   -644.341004
  no constraints, skipping   0.000000000000000E+000
  no constraints, skipping   0.000000000000000E+000
  no constraints, skipping   0.000000000000000E+000
  no constraints, skipping   0.000000000000000E+000
  no constraints, skipping   0.000000000000000E+000
  no constraints, skipping   0.000000000000000E+000
  no constraints, skipping   0.000000000000000E+000
  no constraints, skipping   0.000000000000000E+000

          --------
          Step   2
          --------
 
                                 NWChem DFT Module
                                 -----------------
 
 
                                       H3PO4
 
 
 
 
 solvent parameters
 solvname_short: chcl3   
 solvname_long:  chloroform                         
 dielec:        4.7113
 dielecinf:     2.0906

          ---------------
          -cosmo- solvent
          ---------------
 Cosmo: York-Karplus, doi: 10.1021/jp992097l
 dielectric constant -eps-     =   4.71
 screen = (eps-1)/(eps    )    =   0.78774
 surface charge correction     = lagrangian
 -lineq- algorithm             =   0
 -bem- low  level              =   2
 -bem- from -octahedral-
 gaussian surface charge width =   0.98000
 degree of switching           =   1.00000
 switching function tolerance  =   0.00010
 atomic radii = 
 --------------
    1 15.000  2.106
    2  8.000  1.720
    3  8.000  1.720
    4  8.000  1.720
    5  8.000  1.720
    6  1.000  1.300
    7  1.000  1.300
    8  1.000  1.300

 solvent accessible surface
 --------------------------

 ---------- ATOMIC COORDINATES (A.U.) ------------ VDWR(ANG.) --
     1    0.00000000    0.00000000    0.25834590     2.106
     2   -0.01422261    2.69005130   -1.09113643     1.720
     3    2.33676407   -1.33270851   -1.09113643     1.720
     4   -2.32254146   -1.35734279   -1.09113643     1.720
     5    0.00000000    0.00000000    3.03747134     1.720
     6   -1.35047108    3.80362158   -0.53021218     1.300
     7    3.96926846   -0.73226853   -0.53021218     1.300
     8   -2.61879738   -3.07135306   -0.53021218     1.300
 number of segments per atom =         32
 number of   points per atom =         32
 atom (   nspa,  nppa )
 ----------------------
    1 (     10,     0 )       0
    2 (     21,     0 )       0
    3 (     17,     0 )       0
    4 (     17,     0 )       0
    5 (     24,     0 )       0
    6 (     17,     0 )       0
    7 (     19,     0 )       0
    8 (     18,     0 )       0
 number of -cosmo- surface points =      143
 molecular surface =    102.616 angstrom**2
 molecular volume  =     56.675 angstrom**3
 G(cav/disp)       =      1.373 kcal/mol
 ...... end of -cosmo- initialization ......


  Caching 1-el integrals 
  Rotation of axis 
   Time after variat. SCF:    196.7
   Time prior to 1st pass:    196.7


         Total DFT energy =     -644.340964527500
      One electron energy =    -1445.893765416231
           Coulomb energy =      580.165576787281
    Exchange-Corr. energy =      -58.988393471830
 Nuclear repulsion energy =      280.250432232523

             COSMO energy =        0.125185340758

 Numeric. integr. density =       49.999999318908

     Total iterative time =     42.4s


                                   COSMO solvation results
                                   -----------------------

                 gas phase energy =      -644.319072995495
                 sol phase energy =      -644.340964527500
 (electrostatic) solvation energy =         0.021891532004 (   13.74 kcal/mol)
 
                  Occupations of the irreducible representations
                  ----------------------------------------------
 
                     irrep           alpha         beta
                     --------     --------     --------
                     a                11.0         11.0
                     e+               14.0         14.0
                     e-                0.0          0.0
 
  Rotation of axis 


                         DFT ENERGY GRADIENTS

    atom               coordinates                        gradient
                 x          y          z           x          y          z
   1 P       0.000000   0.000000   0.258346    0.000000   0.000000   0.000825
   2 O      -0.014223   2.690051  -1.091136    0.001191   0.001603  -0.000240
   3 O       2.336764  -1.332709  -1.091136    0.000793  -0.001833  -0.000240
   4 O      -2.322541  -1.357343  -1.091136   -0.001983   0.000230  -0.000240
   5 O       0.000000   0.000000   3.037471    0.000000  -0.000000   0.000062
   6 H      -1.350471   3.803622  -0.530212   -0.001127  -0.000910  -0.000056
   7 H       3.969268  -0.732269  -0.530212   -0.000225   0.001431  -0.000056
   8 H      -2.618797  -3.071353  -0.530212    0.001351  -0.000521  -0.000056
 
  no constraints, skipping   0.000000000000000E+000

  Step       Energy      Delta E   Gmax     Grms     Xrms     Xmax   Walltime
  ---- ---------------- -------- -------- -------- -------- -------- --------
@    2    -644.34096453 -1.5D-05  0.00087  0.00042  0.00483  0.00843    248.0
                                                                    

  no constraints, skipping   0.000000000000000E+000
  no constraints, skipping   0.000000000000000E+000
  no constraints, skipping   0.000000000000000E+000
  no constraints, skipping   0.000000000000000E+000
  no constraints, skipping   0.000000000000000E+000
  no constraints, skipping   0.000000000000000E+000
  no constraints, skipping   0.000000000000000E+000
  no constraints, skipping   0.000000000000000E+000
 
                                 NWChem DFT Module
                                 -----------------
 
 
                                       H3PO4
 
 
 
 
 solvent parameters
 solvname_short: chcl3   
 solvname_long:  chloroform                         
 dielec:        4.7113
 dielecinf:     2.0906

          ---------------
          -cosmo- solvent
          ---------------
 Cosmo: York-Karplus, doi: 10.1021/jp992097l
 dielectric constant -eps-     =   4.71
 screen = (eps-1)/(eps    )    =   0.78774
 surface charge correction     = lagrangian
 -lineq- algorithm             =   0
 -bem- low  level              =   2
 -bem- from -octahedral-
 gaussian surface charge width =   0.98000
 degree of switching           =   1.00000
 switching function tolerance  =   0.00010
 atomic radii = 
 --------------
    1 15.000  2.106
    2  8.000  1.720
    3  8.000  1.720
    4  8.000  1.720
    5  8.000  1.720
    6  1.000  1.300
    7  1.000  1.300
    8  1.000  1.300

 solvent accessible surface
 --------------------------

 ---------- ATOMIC COORDINATES (A.U.) ------------ VDWR(ANG.) --
     1    0.00000000    0.00000000    0.26318945     2.106
     2   -0.02440101    2.68418673   -1.08919914     1.720
     3    2.33677440   -1.32096148   -1.08919914     1.720
     4   -2.31237340   -1.36322526   -1.08919914     1.720
     5   -0.00000000    0.00000000    3.04217896     1.720
     6   -1.34754326    3.81571135   -0.53533319     1.300
     7    3.97827459   -0.74084898   -0.53533319     1.300
     8   -2.63073133   -3.07486237   -0.53533319     1.300
 number of segments per atom =         32
 number of   points per atom =         32
 atom (   nspa,  nppa )
 ----------------------
    1 (     10,     0 )       0
    2 (     21,     0 )       0
    3 (     17,     0 )       0
    4 (     17,     0 )       0
    5 (     24,     0 )       0
    6 (     17,     0 )       0
    7 (     19,     0 )       0
    8 (     18,     0 )       0
 number of -cosmo- surface points =      143
 molecular surface =    102.553 angstrom**2
 molecular volume  =     56.637 angstrom**3
 G(cav/disp)       =      1.373 kcal/mol
 ...... end of -cosmo- initialization ......


  Caching 1-el integrals 
  Rotation of axis 
   Time after variat. SCF:    248.2
   Time prior to 1st pass:    248.2


         Total DFT energy =     -644.340942165528
      One electron energy =    -1446.321776080352
           Coulomb energy =      580.388508893062
    Exchange-Corr. energy =      -58.991762958959
 Nuclear repulsion energy =      280.449564312344

             COSMO energy =        0.134523668378

 Numeric. integr. density =       49.999999077202

     Total iterative time =     43.3s


                                   COSMO solvation results
                                   -----------------------

                 gas phase energy =      -644.318993130731
                 sol phase energy =      -644.340942165528
 (electrostatic) solvation energy =         0.021949034797 (   13.77 kcal/mol)
 
                  Occupations of the irreducible representations
                  ----------------------------------------------
 
                     irrep           alpha         beta
                     --------     --------     --------
                     a                11.0         11.0
                     e+               14.0         14.0
                     e-                0.0          0.0
 
 Line search: 
     step= 1.00 grad=-1.0D-04 hess= 1.3D-04 energy=   -644.340942 mode=bracket 
 new step= 0.41                   predicted energy=   -644.340986
  no constraints, skipping   0.000000000000000E+000
  no constraints, skipping   0.000000000000000E+000
  no constraints, skipping   0.000000000000000E+000
  no constraints, skipping   0.000000000000000E+000

          --------
          Step   3
          --------
 
                                 NWChem DFT Module
                                 -----------------
 
 
                                       H3PO4
 
 
 
 
 solvent parameters
 solvname_short: chcl3   
 solvname_long:  chloroform                         
 dielec:        4.7113
 dielecinf:     2.0906

          ---------------
          -cosmo- solvent
          ---------------
 Cosmo: York-Karplus, doi: 10.1021/jp992097l
 dielectric constant -eps-     =   4.71
 screen = (eps-1)/(eps    )    =   0.78774
 surface charge correction     = lagrangian
 -lineq- algorithm             =   0
 -bem- low  level              =   2
 -bem- from -octahedral-
 gaussian surface charge width =   0.98000
 degree of switching           =   1.00000
 switching function tolerance  =   0.00010
 atomic radii = 
 --------------
    1 15.000  2.106
    2  8.000  1.720
    3  8.000  1.720
    4  8.000  1.720
    5  8.000  1.720
    6  1.000  1.300
    7  1.000  1.300
    8  1.000  1.300

 solvent accessible surface
 --------------------------

 ---------- ATOMIC COORDINATES (A.U.) ------------ VDWR(ANG.) --
     1   -0.00000000    0.00000000    0.26032288     2.106
     2   -0.01841336    2.68764347   -1.09035675     1.720
     3    2.33677420   -1.32787530   -1.09035675     1.720
     4   -2.31836084   -1.35976817   -1.09035675     1.720
     5    0.00000000   -0.00000000    3.03939240     1.720
     6   -1.34927613    3.80862902   -0.53229121     1.300
     7    3.97300755   -0.73580710   -0.53229121     1.300
     8   -2.62373142   -3.07282192   -0.53229121     1.300
 number of segments per atom =         32
 number of   points per atom =         32
 atom (   nspa,  nppa )
 ----------------------
    1 (     10,     0 )       0
    2 (     21,     0 )       0
    3 (     17,     0 )       0
    4 (     17,     0 )       0
    5 (     24,     0 )       0
    6 (     17,     0 )       0
    7 (     19,     0 )       0
    8 (     18,     0 )       0
 number of -cosmo- surface points =      143
 molecular surface =    102.591 angstrom**2
 molecular volume  =     56.660 angstrom**3
 G(cav/disp)       =      1.373 kcal/mol
 ...... end of -cosmo- initialization ......


  Caching 1-el integrals 
  Rotation of axis 
   Time after variat. SCF:    291.7
   Time prior to 1st pass:    291.7


         Total DFT energy =     -644.340965317406
      One electron energy =    -1446.069369754098
           Coulomb energy =      580.257061874723
    Exchange-Corr. energy =      -58.989777628907
 Nuclear repulsion energy =      280.332104156186

             COSMO energy =        0.129016034691

 Numeric. integr. density =       49.999999320679

     Total iterative time =     43.1s


                                   COSMO solvation results
                                   -----------------------

                 gas phase energy =      -644.319049473556
                 sol phase energy =      -644.340965317406
 (electrostatic) solvation energy =         0.021915843850 (   13.75 kcal/mol)
 
                  Occupations of the irreducible representations
                  ----------------------------------------------
 
                     irrep           alpha         beta
                     --------     --------     --------
                     a                11.0         11.0
                     e+               14.0         14.0
                     e-                0.0          0.0
 
  Rotation of axis 


                         DFT ENERGY GRADIENTS

    atom               coordinates                        gradient
                 x          y          z           x          y          z
   1 P      -0.000000   0.000000   0.260323    0.000000   0.000000   0.000341
   2 O      -0.018413   2.687643  -1.090357    0.000892   0.000958   0.000161
   3 O       2.336774  -1.327875  -1.090357    0.000384  -0.001251   0.000161
   4 O      -2.318361  -1.359768  -1.090357   -0.001276   0.000294   0.000161
   5 O       0.000000  -0.000000   3.039392   -0.000000   0.000000   0.000000
   6 H      -1.349276   3.808629  -0.532291   -0.001090  -0.000628  -0.000275
   7 H       3.973008  -0.735807  -0.532291    0.000001   0.001258  -0.000275
   8 H      -2.623731  -3.072822  -0.532291    0.001089  -0.000630  -0.000275
 
  no constraints, skipping   0.000000000000000E+000

  Step       Energy      Delta E   Gmax     Grms     Xrms     Xmax   Walltime
  ---- ---------------- -------- -------- -------- -------- -------- --------
@    3    -644.34096532 -7.9D-07  0.00048  0.00025  0.00267  0.00492    343.7
                                                                    

  no constraints, skipping   0.000000000000000E+000
  no constraints, skipping   0.000000000000000E+000
  no constraints, skipping   0.000000000000000E+000
  no constraints, skipping   0.000000000000000E+000
  no constraints, skipping   0.000000000000000E+000
  no constraints, skipping   0.000000000000000E+000
  no constraints, skipping   0.000000000000000E+000
  no constraints, skipping   0.000000000000000E+000
 
                                 NWChem DFT Module
                                 -----------------
 
 
                                       H3PO4
 
 
 
 
 solvent parameters
 solvname_short: chcl3   
 solvname_long:  chloroform                         
 dielec:        4.7113
 dielecinf:     2.0906

          ---------------
          -cosmo- solvent
          ---------------
 Cosmo: York-Karplus, doi: 10.1021/jp992097l
 dielectric constant -eps-     =   4.71
 screen = (eps-1)/(eps    )    =   0.78774
 surface charge correction     = lagrangian
 -lineq- algorithm             =   0
 -bem- low  level              =   2
 -bem- from -octahedral-
 gaussian surface charge width =   0.98000
 degree of switching           =   1.00000
 switching function tolerance  =   0.00010
 atomic radii = 
 --------------
    1 15.000  2.106
    2  8.000  1.720
    3  8.000  1.720
    4  8.000  1.720
    5  8.000  1.720
    6  1.000  1.300
    7  1.000  1.300
    8  1.000  1.300

 solvent accessible surface
 --------------------------

 ---------- ATOMIC COORDINATES (A.U.) ------------ VDWR(ANG.) --
     1    0.00000000    0.00000000    0.26148837     2.106
     2   -0.03000226    2.68305364   -1.09089827     1.720
     3    2.33859374   -1.31554411   -1.09089827     1.720
     4   -2.30859149   -1.36750954   -1.09089827     1.720
     5   -0.00000000    0.00000000    3.04053698     1.720
     6   -1.34529701    3.82054342   -0.53251971     1.300
     7    3.98133616   -0.74521032   -0.53251971     1.300
     8   -2.63603915   -3.07533310   -0.53251971     1.300
 number of segments per atom =         32
 number of   points per atom =         32
 atom (   nspa,  nppa )
 ----------------------
    1 (     10,     0 )       0
    2 (     21,     0 )       0
    3 (     17,     0 )       0
    4 (     17,     0 )       0
    5 (     24,     0 )       0
    6 (     17,     0 )       0
    7 (     20,     0 )       0
    8 (     18,     0 )       0
 number of -cosmo- surface points =      144
 molecular surface =    102.535 angstrom**2
 molecular volume  =     56.623 angstrom**3
 G(cav/disp)       =      1.373 kcal/mol
 ...... end of -cosmo- initialization ......


  Caching 1-el integrals 
  Rotation of axis 
   Time after variat. SCF:    343.9
   Time prior to 1st pass:    343.9


         Total DFT energy =     -644.340973429225
      One electron energy =    -1446.423383489887
           Coulomb energy =      580.441040295858
    Exchange-Corr. energy =      -58.992840081330
 Nuclear repulsion energy =      280.496563397807

             COSMO energy =        0.137646448327

 Numeric. integr. density =       49.999999170567

     Total iterative time =     42.8s


                                   COSMO solvation results
                                   -----------------------

                 gas phase energy =      -644.319023368763
                 sol phase energy =      -644.340973429225
 (electrostatic) solvation energy =         0.021950060462 (   13.77 kcal/mol)
 
                  Occupations of the irreducible representations
                  ----------------------------------------------
 
                     irrep           alpha         beta
                     --------     --------     --------
                     a                11.0         11.0
                     e+               14.0         14.0
                     e-                0.0          0.0
 
 Line search: 
     step= 1.00 grad=-8.0D-05 hess= 7.1D-05 energy=   -644.340973 mode=downhill
 new step= 0.56                   predicted energy=   -644.340987
  no constraints, skipping   0.000000000000000E+000
  no constraints, skipping   0.000000000000000E+000
  no constraints, skipping   0.000000000000000E+000
  no constraints, skipping   0.000000000000000E+000

          --------
          Step   4
          --------
 
                                 NWChem DFT Module
                                 -----------------
 
 
                                       H3PO4
 
 
 
 
 solvent parameters
 solvname_short: chcl3   
 solvname_long:  chloroform                         
 dielec:        4.7113
 dielecinf:     2.0906

          ---------------
          -cosmo- solvent
          ---------------
 Cosmo: York-Karplus, doi: 10.1021/jp992097l
 dielectric constant -eps-     =   4.71
 screen = (eps-1)/(eps    )    =   0.78774
 surface charge correction     = lagrangian
 -lineq- algorithm             =   0
 -bem- low  level              =   2
 -bem- from -octahedral-
 gaussian surface charge width =   0.98000
 degree of switching           =   1.00000
 switching function tolerance  =   0.00010
 atomic radii = 
 --------------
    1 15.000  2.106
    2  8.000  1.720
    3  8.000  1.720
    4  8.000  1.720
    5  8.000  1.720
    6  1.000  1.300
    7  1.000  1.300
    8  1.000  1.300

 solvent accessible surface
 --------------------------

 ---------- ATOMIC COORDINATES (A.U.) ------------ VDWR(ANG.) --
     1    0.00000000    0.00000000    0.26095229     2.106
     2   -0.02486748    2.68509439   -1.09067860     1.720
     3    2.33779369   -1.32101133   -1.09067860     1.720
     4   -2.31292621   -1.36408306   -1.09067860     1.720
     5    0.00000000    0.00000000    3.04001017     1.720
     6   -1.34706932    3.81529057   -0.53238509     1.300
     7    3.97767321   -0.74104904   -0.53238509     1.300
     8   -2.63060390   -3.07424153   -0.53238509     1.300
 number of segments per atom =         32
 number of   points per atom =         32
 atom (   nspa,  nppa )
 ----------------------
    1 (     10,     0 )       0
    2 (     21,     0 )       0
    3 (     17,     0 )       0
    4 (     17,     0 )       0
    5 (     24,     0 )       0
    6 (     17,     0 )       0
    7 (     19,     0 )       0
    8 (     18,     0 )       0
 number of -cosmo- surface points =      143
 molecular surface =    102.559 angstrom**2
 molecular volume  =     56.639 angstrom**3
 G(cav/disp)       =      1.373 kcal/mol
 ...... end of -cosmo- initialization ......


  Caching 1-el integrals 
  Rotation of axis 
   Time after variat. SCF:    386.8
   Time prior to 1st pass:    386.8


         Total DFT energy =     -644.340977154965
      One electron energy =    -1446.266134760836
           Coulomb energy =      580.359325808945
    Exchange-Corr. energy =      -58.991480836002
 Nuclear repulsion energy =      280.423479679165

             COSMO energy =        0.133832953764

 Numeric. integr. density =       49.999999418418

     Total iterative time =     42.7s


                                   COSMO solvation results
                                   -----------------------

                 gas phase energy =      -644.319042295101
                 sol phase energy =      -644.340977154965
 (electrostatic) solvation energy =         0.021934859864 (   13.76 kcal/mol)
 
                  Occupations of the irreducible representations
                  ----------------------------------------------
 
                     irrep           alpha         beta
                     --------     --------     --------
                     a                11.0         11.0
                     e+               14.0         14.0
                     e-                0.0          0.0
 
  Rotation of axis 


                         DFT ENERGY GRADIENTS

    atom               coordinates                        gradient
                 x          y          z           x          y          z
   1 P       0.000000   0.000000   0.260952    0.000000   0.000000  -0.000278
   2 O      -0.024867   2.685094  -1.090679    0.000545   0.000325   0.000670
   3 O       2.337794  -1.321011  -1.090679    0.000009  -0.000635   0.000670
   4 O      -2.312926  -1.364083  -1.090679   -0.000554   0.000309   0.000670
   5 O       0.000000   0.000000   3.040010   -0.000000   0.000000  -0.000063
   6 H      -1.347069   3.815291  -0.532385   -0.001004  -0.000393  -0.000556
   7 H       3.977673  -0.741049  -0.532385    0.000162   0.001066  -0.000556
   8 H      -2.630604  -3.074242  -0.532385    0.000842  -0.000673  -0.000556
 
  no constraints, skipping   0.000000000000000E+000

  Step       Energy      Delta E   Gmax     Grms     Xrms     Xmax   Walltime
  ---- ---------------- -------- -------- -------- -------- -------- --------
@    4    -644.34097715 -1.2D-05  0.00024  0.00014  0.00348  0.00687    438.1
                                                                    

  no constraints, skipping   0.000000000000000E+000
  no constraints, skipping   0.000000000000000E+000
  no constraints, skipping   0.000000000000000E+000
  no constraints, skipping   0.000000000000000E+000
  no constraints, skipping   0.000000000000000E+000
  no constraints, skipping   0.000000000000000E+000
  no constraints, skipping   0.000000000000000E+000
  no constraints, skipping   0.000000000000000E+000
 
                                 NWChem DFT Module
                                 -----------------
 
 
                                       H3PO4
 
 
 
 
 solvent parameters
 solvname_short: chcl3   
 solvname_long:  chloroform                         
 dielec:        4.7113
 dielecinf:     2.0906

          ---------------
          -cosmo- solvent
          ---------------
 Cosmo: York-Karplus, doi: 10.1021/jp992097l
 dielectric constant -eps-     =   4.71
 screen = (eps-1)/(eps    )    =   0.78774
 surface charge correction     = lagrangian
 -lineq- algorithm             =   0
 -bem- low  level              =   2
 -bem- from -octahedral-
 gaussian surface charge width =   0.98000
 degree of switching           =   1.00000
 switching function tolerance  =   0.00010
 atomic radii = 
 --------------
    1 15.000  2.106
    2  8.000  1.720
    3  8.000  1.720
    4  8.000  1.720
    5  8.000  1.720
    6  1.000  1.300
    7  1.000  1.300
    8  1.000  1.300

 solvent accessible surface
 --------------------------

 ---------- ATOMIC COORDINATES (A.U.) ------------ VDWR(ANG.) --
     1    0.00000000    0.00000000    0.25832903     2.106
     2   -0.04090959    2.68077637   -1.09451632     1.720
     3    2.34207523   -1.30495944   -1.09451632     1.720
     4   -2.30116564   -1.37581693   -1.09451632     1.720
     5   -0.00000000    0.00000000    3.03749765     1.720
     6   -1.34098207    3.83010498   -0.52683544     1.300
     7    3.98745925   -0.75372795   -0.52683544     1.300
     8   -2.64647717   -3.07637703   -0.52683544     1.300
 number of segments per atom =         32
 number of   points per atom =         32
 atom (   nspa,  nppa )
 ----------------------
    1 (     10,     0 )       0
    2 (     19,     0 )       0
    3 (     17,     0 )       0
    4 (     17,     0 )       0
    5 (     24,     0 )       0
    6 (     16,     0 )       0
    7 (     20,     0 )       0
    8 (     18,     0 )       0
 number of -cosmo- surface points =      141
 molecular surface =    102.514 angstrom**2
 molecular volume  =     56.602 angstrom**3
 G(cav/disp)       =      1.373 kcal/mol
 ...... end of -cosmo- initialization ......


  Caching 1-el integrals 
  Rotation of axis 
   Time after variat. SCF:    438.3
   Time prior to 1st pass:    438.3


         Total DFT energy =     -644.341018478349
      One electron energy =    -1446.594781694386
           Coulomb energy =      580.530221880087
    Exchange-Corr. energy =      -58.994415278222
 Nuclear repulsion energy =      280.574256057663

             COSMO energy =        0.143700556510

 Numeric. integr. density =       49.999999390583

     Total iterative time =     43.4s


                                   COSMO solvation results
                                   -----------------------

                 gas phase energy =      -644.319063400329
                 sol phase energy =      -644.341018478349
 (electrostatic) solvation energy =         0.021955078020 (   13.78 kcal/mol)
 
                  Occupations of the irreducible representations
                  ----------------------------------------------
 
                     irrep           alpha         beta
                     --------     --------     --------
                     a                11.0         11.0
                     e+               14.0         14.0
                     e-                0.0          0.0
 
 Line search: 
     step= 1.00 grad=-8.3D-05 hess= 4.2D-05 energy=   -644.341018 mode=accept  
 new step= 1.00                   predicted energy=   -644.341018
  no constraints, skipping   0.000000000000000E+000
  no constraints, skipping   0.000000000000000E+000
  no constraints, skipping   0.000000000000000E+000
  no constraints, skipping   0.000000000000000E+000
  no constraints, skipping   0.000000000000000E+000
  no constraints, skipping   0.000000000000000E+000
  no constraints, skipping   0.000000000000000E+000
  no constraints, skipping   0.000000000000000E+000

          --------
          Step   5
          --------
 
                                 NWChem DFT Module
                                 -----------------
 
 
                                       H3PO4
 
 
 
 
 solvent parameters
 solvname_short: chcl3   
 solvname_long:  chloroform                         
 dielec:        4.7113
 dielecinf:     2.0906

          ---------------
          -cosmo- solvent
          ---------------
 Cosmo: York-Karplus, doi: 10.1021/jp992097l
 dielectric constant -eps-     =   4.71
 screen = (eps-1)/(eps    )    =   0.78774
 surface charge correction     = lagrangian
 -lineq- algorithm             =   0
 -bem- low  level              =   2
 -bem- from -octahedral-
 gaussian surface charge width =   0.98000
 degree of switching           =   1.00000
 switching function tolerance  =   0.00010
 atomic radii = 
 --------------
    1 15.000  2.106
    2  8.000  1.720
    3  8.000  1.720
    4  8.000  1.720
    5  8.000  1.720
    6  1.000  1.300
    7  1.000  1.300
    8  1.000  1.300

 solvent accessible surface
 --------------------------

 ---------- ATOMIC COORDINATES (A.U.) ------------ VDWR(ANG.) --
     1    0.00000000    0.00000000    0.25832903     2.106
     2   -0.04090959    2.68077637   -1.09451632     1.720
     3    2.34207523   -1.30495944   -1.09451632     1.720
     4   -2.30116564   -1.37581693   -1.09451632     1.720
     5   -0.00000000    0.00000000    3.03749765     1.720
     6   -1.34098207    3.83010498   -0.52683544     1.300
     7    3.98745925   -0.75372795   -0.52683544     1.300
     8   -2.64647717   -3.07637703   -0.52683544     1.300
 number of segments per atom =         32
 number of   points per atom =         32
 atom (   nspa,  nppa )
 ----------------------
    1 (     10,     0 )       0
    2 (     19,     0 )       0
    3 (     17,     0 )       0
    4 (     17,     0 )       0
    5 (     24,     0 )       0
    6 (     16,     0 )       0
    7 (     20,     0 )       0
    8 (     18,     0 )       0
 number of -cosmo- surface points =      141
 molecular surface =    102.514 angstrom**2
 molecular volume  =     56.602 angstrom**3
 G(cav/disp)       =      1.373 kcal/mol
 ...... end of -cosmo- initialization ......



  The DFT is already converged 

         Total DFT energy =   -644.341018478349

  Rotation of axis 


                         DFT ENERGY GRADIENTS

    atom               coordinates                        gradient
                 x          y          z           x          y          z
   1 P       0.000000   0.000000   0.258329    0.000000   0.000000  -0.001471
   2 O      -0.040910   2.680776  -1.094516    0.000083  -0.000708   0.001609
   3 O       2.342075  -1.304959  -1.094516   -0.000655   0.000282   0.001609
   4 O      -2.301166  -1.375817  -1.094516    0.000572   0.000426   0.001609
   5 O      -0.000000   0.000000   3.037498   -0.000000   0.000000  -0.000149
   6 H      -1.340982   3.830105  -0.526835   -0.000926  -0.000006  -0.001069
   7 H       3.987459  -0.753728  -0.526835    0.000458   0.000805  -0.001069
   8 H      -2.646477  -3.076377  -0.526835    0.000468  -0.000799  -0.001069
 
  no constraints, skipping   0.000000000000000E+000

  Step       Energy      Delta E   Gmax     Grms     Xrms     Xmax   Walltime
  ---- ---------------- -------- -------- -------- -------- -------- --------
@    5    -644.34101848 -4.1D-05  0.00071  0.00038  0.00848  0.01609    491.3
                                                                    

  no constraints, skipping   0.000000000000000E+000
  no constraints, skipping   0.000000000000000E+000
  no constraints, skipping   0.000000000000000E+000
  no constraints, skipping   0.000000000000000E+000
  no constraints, skipping   0.000000000000000E+000
  no constraints, skipping   0.000000000000000E+000
  no constraints, skipping   0.000000000000000E+000
  no constraints, skipping   0.000000000000000E+000
 
                                 NWChem DFT Module
                                 -----------------
 
 
                                       H3PO4
 
 
 
 
 solvent parameters
 solvname_short: chcl3   
 solvname_long:  chloroform                         
 dielec:        4.7113
 dielecinf:     2.0906

          ---------------
          -cosmo- solvent
          ---------------
 Cosmo: York-Karplus, doi: 10.1021/jp992097l
 dielectric constant -eps-     =   4.71
 screen = (eps-1)/(eps    )    =   0.78774
 surface charge correction     = lagrangian
 -lineq- algorithm             =   0
 -bem- low  level              =   2
 -bem- from -octahedral-
 gaussian surface charge width =   0.98000
 degree of switching           =   1.00000
 switching function tolerance  =   0.00010
 atomic radii = 
 --------------
    1 15.000  2.106
    2  8.000  1.720
    3  8.000  1.720
    4  8.000  1.720
    5  8.000  1.720
    6  1.000  1.300
    7  1.000  1.300
    8  1.000  1.300

 solvent accessible surface
 --------------------------

 ---------- ATOMIC COORDINATES (A.U.) ------------ VDWR(ANG.) --
     1   -0.00000000    0.00000000    0.24871630     2.106
     2   -0.07010333    2.67543835   -1.10523861     1.720
     3    2.35204925   -1.27700791   -1.10523861     1.720
     4   -2.28194591   -1.39843044   -1.10523861     1.720
     5    0.00000000   -0.00000000    3.02819496     1.720
     6   -1.32881199    3.85386315   -0.50980801     1.300
     7    4.00194939   -0.77614663   -0.50980801     1.300
     8   -2.67313739   -3.07771652   -0.50980801     1.300
 number of segments per atom =         32
 number of   points per atom =         32
 atom (   nspa,  nppa )
 ----------------------
    1 (     11,     0 )       0
    2 (     19,     0 )       0
    3 (     17,     0 )       0
    4 (     17,     0 )       0
    5 (     24,     0 )       0
    6 (     17,     0 )       0
    7 (     19,     0 )       0
    8 (     18,     0 )       0
 number of -cosmo- surface points =      142
 molecular surface =    102.521 angstrom**2
 molecular volume  =     56.580 angstrom**3
 G(cav/disp)       =      1.373 kcal/mol
 ...... end of -cosmo- initialization ......


  Caching 1-el integrals 
  Rotation of axis 
   Time after variat. SCF:    491.5
   Time prior to 1st pass:    491.5


         Total DFT energy =     -644.341080379284
      One electron energy =    -1446.967044248433
           Coulomb energy =      580.724162486704
    Exchange-Corr. energy =      -58.998003961874
 Nuclear repulsion energy =      280.741883023827

             COSMO energy =        0.157922320492

 Numeric. integr. density =       49.999999399808

     Total iterative time =     43.0s


                                   COSMO solvation results
                                   -----------------------

                 gas phase energy =      -644.319117296210
                 sol phase energy =      -644.341080379284
 (electrostatic) solvation energy =         0.021963083075 (   13.78 kcal/mol)
 
                  Occupations of the irreducible representations
                  ----------------------------------------------
 
                     irrep           alpha         beta
                     --------     --------     --------
                     a                11.0         11.0
                     e+               14.0         14.0
                     e-                0.0          0.0
 
 Line search: 
     step= 1.00 grad=-1.2D-04 hess= 6.3D-05 energy=   -644.341080 mode=accept  
 new step= 1.00                   predicted energy=   -644.341080
  no constraints, skipping   0.000000000000000E+000
  no constraints, skipping   0.000000000000000E+000
  no constraints, skipping   0.000000000000000E+000
  no constraints, skipping   0.000000000000000E+000
  no constraints, skipping   0.000000000000000E+000
  no constraints, skipping   0.000000000000000E+000
  no constraints, skipping   0.000000000000000E+000
  no constraints, skipping   0.000000000000000E+000

          --------
          Step   6
          --------
 
                                 NWChem DFT Module
                                 -----------------
 
 
                                       H3PO4
 
 
 
 
 solvent parameters
 solvname_short: chcl3   
 solvname_long:  chloroform                         
 dielec:        4.7113
 dielecinf:     2.0906

          ---------------
          -cosmo- solvent
          ---------------
 Cosmo: York-Karplus, doi: 10.1021/jp992097l
 dielectric constant -eps-     =   4.71
 screen = (eps-1)/(eps    )    =   0.78774
 surface charge correction     = lagrangian
 -lineq- algorithm             =   0
 -bem- low  level              =   2
 -bem- from -octahedral-
 gaussian surface charge width =   0.98000
 degree of switching           =   1.00000
 switching function tolerance  =   0.00010
 atomic radii = 
 --------------
    1 15.000  2.106
    2  8.000  1.720
    3  8.000  1.720
    4  8.000  1.720
    5  8.000  1.720
    6  1.000  1.300
    7  1.000  1.300
    8  1.000  1.300

 solvent accessible surface
 --------------------------

 ---------- ATOMIC COORDINATES (A.U.) ------------ VDWR(ANG.) --
     1   -0.00000000    0.00000000    0.24871630     2.106
     2   -0.07010333    2.67543835   -1.10523861     1.720
     3    2.35204925   -1.27700791   -1.10523861     1.720
     4   -2.28194591   -1.39843044   -1.10523861     1.720
     5    0.00000000   -0.00000000    3.02819496     1.720
     6   -1.32881199    3.85386315   -0.50980801     1.300
     7    4.00194939   -0.77614663   -0.50980801     1.300
     8   -2.67313739   -3.07771652   -0.50980801     1.300
 number of segments per atom =         32
 number of   points per atom =         32
 atom (   nspa,  nppa )
 ----------------------
    1 (     11,     0 )       0
    2 (     19,     0 )       0
    3 (     17,     0 )       0
    4 (     17,     0 )       0
    5 (     24,     0 )       0
    6 (     17,     0 )       0
    7 (     19,     0 )       0
    8 (     18,     0 )       0
 number of -cosmo- surface points =      142
 molecular surface =    102.521 angstrom**2
 molecular volume  =     56.580 angstrom**3
 G(cav/disp)       =      1.373 kcal/mol
 ...... end of -cosmo- initialization ......



  The DFT is already converged 

         Total DFT energy =   -644.341080379284

  Rotation of axis 


                         DFT ENERGY GRADIENTS

    atom               coordinates                        gradient
                 x          y          z           x          y          z
   1 P      -0.000000   0.000000   0.248716    0.000000   0.000000  -0.003052
   2 O      -0.070103   2.675438  -1.105239   -0.000321  -0.001721   0.002872
   3 O       2.352049  -1.277008  -1.105239   -0.001330   0.001139   0.002872
   4 O      -2.281946  -1.398430  -1.105239    0.001651   0.000583   0.002872
   5 O       0.000000  -0.000000   3.028195   -0.000000  -0.000000  -0.000246
   6 H      -1.328812   3.853863  -0.509808   -0.000885   0.000416  -0.001773
   7 H       4.001949  -0.776147  -0.509808    0.000803   0.000559  -0.001773
   8 H      -2.673137  -3.077717  -0.509808    0.000083  -0.000974  -0.001773
 
  no constraints, skipping   0.000000000000000E+000

  Step       Energy      Delta E   Gmax     Grms     Xrms     Xmax   Walltime
  ---- ---------------- -------- -------- -------- -------- -------- --------
@    6    -644.34108038 -6.2D-05  0.00147  0.00075  0.01585  0.02934    543.5
                                                                    

 Restricting large step in mode    1 eval= 3.5D-04 step= 1.3D+00 new= 3.0D-01
  no constraints, skipping   0.000000000000000E+000
  no constraints, skipping   0.000000000000000E+000
  no constraints, skipping   0.000000000000000E+000
  no constraints, skipping   0.000000000000000E+000
 
                                 NWChem DFT Module
                                 -----------------
 
 
                                       H3PO4
 
 
 
 
 solvent parameters
 solvname_short: chcl3   
 solvname_long:  chloroform                         
 dielec:        4.7113
 dielecinf:     2.0906

          ---------------
          -cosmo- solvent
          ---------------
 Cosmo: York-Karplus, doi: 10.1021/jp992097l
 dielectric constant -eps-     =   4.71
 screen = (eps-1)/(eps    )    =   0.78774
 surface charge correction     = lagrangian
 -lineq- algorithm             =   0
 -bem- low  level              =   2
 -bem- from -octahedral-
 gaussian surface charge width =   0.98000
 degree of switching           =   1.00000
 switching function tolerance  =   0.00010
 atomic radii = 
 --------------
    1 15.000  2.106
    2  8.000  1.720
    3  8.000  1.720
    4  8.000  1.720
    5  8.000  1.720
    6  1.000  1.300
    7  1.000  1.300
    8  1.000  1.300

 solvent accessible surface
 --------------------------

 ---------- ATOMIC COORDINATES (A.U.) ------------ VDWR(ANG.) --
     1   -0.00000000    0.00000000    0.23383857     2.106
     2   -0.10391380    2.67092920   -1.12078317     1.720
     3    2.36504943   -1.24547261   -1.12078317     1.720
     4   -2.26113564   -1.42545659   -1.12078317     1.720
     5    0.00000000   -0.00000000    3.01379196     1.720
     6   -1.31326096    3.87706392   -0.48450321     1.300
     7    4.01426632   -0.80121461   -0.48450321     1.300
     8   -2.70100537   -3.07584931   -0.48450321     1.300
 number of segments per atom =         32
 number of   points per atom =         32
 atom (   nspa,  nppa )
 ----------------------
    1 (     12,     0 )       0
    2 (     19,     0 )       0
    3 (     17,     0 )       0
    4 (     17,     0 )       0
    5 (     24,     0 )       0
    6 (     17,     0 )       0
    7 (     19,     0 )       0
    8 (     18,     0 )       0
 number of -cosmo- surface points =      143
 molecular surface =    102.572 angstrom**2
 molecular volume  =     56.574 angstrom**3
 G(cav/disp)       =      1.373 kcal/mol
 ...... end of -cosmo- initialization ......


  Caching 1-el integrals 
  Rotation of axis 
   Time after variat. SCF:    543.7
   Time prior to 1st pass:    543.7


         Total DFT energy =     -644.341129065337
      One electron energy =    -1447.229726621651
           Coulomb energy =      580.860949372574
    Exchange-Corr. energy =      -59.000784662095
 Nuclear repulsion energy =      280.858031280729

             COSMO energy =        0.170401565107

 Numeric. integr. density =       49.999999151701

     Total iterative time =     43.7s


                                   COSMO solvation results
                                   -----------------------

                 gas phase energy =      -644.319185462718
                 sol phase energy =      -644.341129065337
 (electrostatic) solvation energy =         0.021943602618 (   13.77 kcal/mol)
 
                  Occupations of the irreducible representations
                  ----------------------------------------------
 
                     irrep           alpha         beta
                     --------     --------     --------
                     a                11.0         11.0
                     e+               14.0         14.0
                     e-                0.0          0.0
 
 Line search: 
     step= 1.00 grad=-1.9D-04 hess= 1.4D-04 energy=   -644.341129 mode=downhill
 new step= 0.68                   predicted energy=   -644.341143
  no constraints, skipping   0.000000000000000E+000
  no constraints, skipping   0.000000000000000E+000
  no constraints, skipping   0.000000000000000E+000
  no constraints, skipping   0.000000000000000E+000

          --------
          Step   7
          --------
 
                                 NWChem DFT Module
                                 -----------------
 
 
                                       H3PO4
 
 
 
 
 solvent parameters
 solvname_short: chcl3   
 solvname_long:  chloroform                         
 dielec:        4.7113
 dielecinf:     2.0906

          ---------------
          -cosmo- solvent
          ---------------
 Cosmo: York-Karplus, doi: 10.1021/jp992097l
 dielectric constant -eps-     =   4.71
 screen = (eps-1)/(eps    )    =   0.78774
 surface charge correction     = lagrangian
 -lineq- algorithm             =   0
 -bem- low  level              =   2
 -bem- from -octahedral-
 gaussian surface charge width =   0.98000
 degree of switching           =   1.00000
 switching function tolerance  =   0.00010
 atomic radii = 
 --------------
    1 15.000  2.106
    2  8.000  1.720
    3  8.000  1.720
    4  8.000  1.720
    5  8.000  1.720
    6  1.000  1.300
    7  1.000  1.300
    8  1.000  1.300

 solvent accessible surface
 --------------------------

 ---------- ATOMIC COORDINATES (A.U.) ------------ VDWR(ANG.) --
     1   -0.00000000    0.00000000    0.23847761     2.106
     2   -0.09296856    2.67242888   -1.11593006     1.720
     3    2.36087558   -1.25570131   -1.11593006     1.720
     4   -2.26790702   -1.41672758   -1.11593006     1.720
     5    0.00000000    0.00000000    3.01827833     1.720
     6   -1.31835417    3.86972570   -0.49239812     1.300
     7    4.01045784   -0.79313465   -0.49239812     1.300
     8   -2.69210368   -3.07659105   -0.49239812     1.300
 number of segments per atom =         32
 number of   points per atom =         32
 atom (   nspa,  nppa )
 ----------------------
    1 (     12,     0 )       0
    2 (     19,     0 )       0
    3 (     17,     0 )       0
    4 (     17,     0 )       0
    5 (     24,     0 )       0
    6 (     17,     0 )       0
    7 (     19,     0 )       0
    8 (     18,     0 )       0
 number of -cosmo- surface points =      143
 molecular surface =    102.559 angstrom**2
 molecular volume  =     56.578 angstrom**3
 G(cav/disp)       =      1.373 kcal/mol
 ...... end of -cosmo- initialization ......


  Caching 1-el integrals 
  Rotation of axis 
   Time after variat. SCF:    587.6
   Time prior to 1st pass:    587.6


         Total DFT energy =     -644.341130422845
      One electron energy =    -1447.144841540841
           Coulomb energy =      580.816732185844
    Exchange-Corr. energy =      -58.999882440078
 Nuclear repulsion energy =      280.820404205298

             COSMO energy =        0.166457166931

 Numeric. integr. density =       49.999999115786

     Total iterative time =     43.9s


                                   COSMO solvation results
                                   -----------------------

                 gas phase energy =      -644.319181130214
                 sol phase energy =      -644.341130422845
 (electrostatic) solvation energy =         0.021949292631 (   13.77 kcal/mol)
 
                  Occupations of the irreducible representations
                  ----------------------------------------------
 
                     irrep           alpha         beta
                     --------     --------     --------
                     a                11.0         11.0
                     e+               14.0         14.0
                     e-                0.0          0.0
 
[...]
    4 O                    8.0000    -1.06447786    -0.92990908    -0.68598412
    5 O                    8.0000     0.00477561    -0.00831696     1.51226319
    6 H                    1.0000    -0.54283080     2.10085031    -0.12300139
    7 H                    1.0000     2.05515589    -0.72292103    -0.07166894
    8 H                    1.0000    -1.45137847    -1.62804800    -0.11375045


  Geometry after  -50.0% step for mode  3; Step length =  0.213 angstroms 
   Maximum component (any atom: x,y, or z) displacement:  0.266
    1 P                   15.0000    -0.00036231     0.00049460     0.04075433
    2 O                    8.0000    -0.29573447     1.38758780    -0.67893725
    3 O                    8.0000     1.32936897    -0.45076254    -0.69853607
    4 O                    8.0000    -1.02431710    -0.96185977    -0.69699431
    5 O                    8.0000    -0.00477561     0.00831696     1.51226319
    6 H                    1.0000    -0.54289084     2.10787146    -0.08261246
    7 H                    1.0000     2.13256490    -0.44117734    -0.13394492
    8 H                    1.0000    -1.65062068    -1.41657541    -0.09186340


  Geometry after   37.6% step for mode  3; Step length =  0.160 angstroms 
   Maximum component (any atom: x,y, or z) displacement:  0.200
    1 P                   15.0000     0.00027220    -0.00037159     0.04075433
    2 O                    8.0000    -0.29788282     1.36977572    -0.70091936
    3 O                    8.0000     1.35036641    -0.41708525    -0.68619498
    4 O                    8.0000    -1.05948365    -0.93388232    -0.68735329
    5 O                    8.0000     0.00358786    -0.00624844     1.51226319
    6 H                    1.0000    -0.54283827     2.10172343    -0.11797880
    7 H                    1.0000     2.06478213    -0.68788463    -0.07941330
    8 H                    1.0000    -1.47615535    -1.60175020    -0.11102867


  Geometry after  -37.6% step for mode  3; Step length =  0.160 angstroms 
   Maximum component (any atom: x,y, or z) displacement:  0.200
    1 P                   15.0000    -0.00027220     0.00037159     0.04075433
    2 O                    8.0000    -0.29603957     1.38505820    -0.68205907
    3 O                    8.0000     1.33235094    -0.44597982    -0.69678344
    4 O                    8.0000    -1.02931131    -0.95788652    -0.69562513
    5 O                    8.0000    -0.00358786     0.00624844     1.51226319
    6 H                    1.0000    -0.54288337     2.10699834    -0.08763505
    7 H                    1.0000     2.12293866    -0.47621373    -0.12620055
    8 H                    1.0000    -1.62584380    -1.44287321    -0.09458518


  Geometry after   18.8% step for mode  3; Step length =  0.080 angstroms 
   Maximum component (any atom: x,y, or z) displacement:  0.100
    1 P                   15.0000     0.00013610    -0.00018579     0.04075433
    2 O                    8.0000    -0.29742201     1.37359634    -0.69620428
    3 O                    8.0000     1.34586255    -0.42430890    -0.68884210
    4 O                    8.0000    -1.05194056    -0.93988337    -0.68942125
    5 O                    8.0000     0.00179393    -0.00312422     1.51226319
    6 H                    1.0000    -0.54284954     2.10304216    -0.11039286
    7 H                    1.0000     2.07932127    -0.63496691    -0.09111011
    8 H                    1.0000    -1.51357746    -1.56203095    -0.10691780


  Geometry after  -18.8% step for mode  3; Step length =  0.080 angstroms 
   Maximum component (any atom: x,y, or z) displacement:  0.100
    1 P                   15.0000    -0.00013610     0.00018579     0.04075433
    2 O                    8.0000    -0.29650039     1.38123758    -0.68677414
    3 O                    8.0000     1.33685481    -0.43875618    -0.69413633
    4 O                    8.0000    -1.03685440    -0.95188547    -0.69355717
    5 O                    8.0000    -0.00179393     0.00312422     1.51226319
    6 H                    1.0000    -0.54287210     2.10567962    -0.09522099
    7 H                    1.0000     2.10839953    -0.52913146    -0.11450374
    8 H                    1.0000    -1.58842169    -1.48259246    -0.09869605


 vib:animation  F
 
 
                                NWChem Input Module
                                -------------------
 
 
                              NWChem Property Module
                              ----------------------
 
 
                                 NWChem DFT Module
                                 -----------------
 
 
                                       H3PO4
 
 
 
 
 solvent parameters
 solvname_short: chcl3   
 solvname_long:  chloroform                         
 dielec:        4.7113
 dielecinf:     2.0906

          ---------------
          -cosmo- solvent
          ---------------
 Cosmo: York-Karplus, doi: 10.1021/jp992097l
 dielectric constant -eps-     =   4.71
 screen = (eps-1)/(eps    )    =   0.78774
 surface charge correction     = lagrangian
 -lineq- algorithm             =   0
 -bem- low  level              =   2
 -bem- from -octahedral-
 gaussian surface charge width =   0.98000
 degree of switching           =   1.00000
 switching function tolerance  =   0.00010
 atomic radii = 
 --------------
    1 15.000  2.106
    2  8.000  1.720
    3  8.000  1.720
    4  8.000  1.720
    5  8.000  1.720
    6  1.000  1.300
    7  1.000  1.300
    8  1.000  1.300

 solvent accessible surface
 --------------------------

 ---------- ATOMIC COORDINATES (A.U.) ------------ VDWR(ANG.) --
     1    0.00000000    0.00000000    0.07701452     2.106
     2   -0.56117529    2.60294063   -1.30672513     1.720
     3    2.53480035   -0.81547825   -1.30672513     1.720
     4   -1.97362506   -1.78746237   -1.30672513     1.720
     5    0.00000000   -0.00000000    2.85776305     1.720
     6   -1.02585820    3.97666546   -0.19427692     1.300
     7    3.95682241   -1.09991347   -0.19427692     1.300
     8   -2.93096421   -2.87675199   -0.19427692     1.300
 number of segments per atom =         32
 number of   points per atom =         32
 atom (   nspa,  nppa )
 ----------------------
    1 (     14,     0 )       0
    2 (     17,     0 )       0
    3 (     17,     0 )       0
    4 (     15,     0 )       0
    5 (     24,     0 )       0
    6 (     17,     0 )       0
    7 (     18,     0 )       0
    8 (     16,     0 )       0
 number of -cosmo- surface points =      138
 molecular surface =    105.807 angstrom**2
 molecular volume  =     58.417 angstrom**3
 G(cav/disp)       =      1.389 kcal/mol
 ...... end of -cosmo- initialization ......


  Caching 1-el integrals 
   Time after variat. SCF:  38587.1
   Time prior to 1st pass:  38587.1


         Total DFT energy =     -644.338552306074
      One electron energy =    -1447.039052388290
           Coulomb energy =      580.768857363636
    Exchange-Corr. energy =      -58.999035170813
 Nuclear repulsion energy =      280.758806200015

             COSMO energy =        0.171871689379

 Numeric. integr. density =       49.999999987091

     Total iterative time =    122.1s


                                   COSMO solvation results
                                   -----------------------

                 gas phase energy =      -644.318151983033
                 sol phase energy =      -644.338552306074
 (electrostatic) solvation energy =         0.020400323041 (   12.80 kcal/mol)

          -----------------------------------------
          Chemical Shielding Tensors (GIAO, in ppm)
          -----------------------------------------

    0 giaofock schwarz done =      84.00%
    0 giaofock schwarz done =      86.36%
 
 solvent parameters
 solvname_short: chcl3   
 solvname_long:  chloroform                         
 dielec:        4.7113
 dielecinf:     2.0906

          ---------------
          -cosmo- solvent
          ---------------
 Cosmo: York-Karplus, doi: 10.1021/jp992097l
 dielectric constant -eps-     =   4.71
 screen = (eps-1)/(eps    )    =   0.78774
 surface charge correction     = lagrangian
 -lineq- algorithm             =   0
 -bem- low  level              =   2
 -bem- from -octahedral-
 gaussian surface charge width =   0.98000
 degree of switching           =   1.00000
 switching function tolerance  =   0.00010
 atomic radii = 
 --------------
    1 15.000  2.106
    2  8.000  1.720
    3  8.000  1.720
    4  8.000  1.720
    5  8.000  1.720
    6  1.000  1.300
    7  1.000  1.300
    8  1.000  1.300

 solvent accessible surface
 --------------------------

 ---------- ATOMIC COORDINATES (A.U.) ------------ VDWR(ANG.) --
     1    0.00000000    0.00000000    0.07701452     2.106
     2   -0.56117529    2.60294063   -1.30672513     1.720
     3    2.53480035   -0.81547825   -1.30672513     1.720
     4   -1.97362506   -1.78746237   -1.30672513     1.720
     5    0.00000000   -0.00000000    2.85776305     1.720
     6   -1.02585820    3.97666546   -0.19427692     1.300
     7    3.95682241   -1.09991347   -0.19427692     1.300
     8   -2.93096421   -2.87675199   -0.19427692     1.300
 number of segments per atom =         32
 number of   points per atom =         32
 atom (   nspa,  nppa )
 ----------------------
    1 (     14,     0 )       0
    2 (     17,     0 )       0
    3 (     17,     0 )       0
    4 (     15,     0 )       0
    5 (     24,     0 )       0
    6 (     17,     0 )       0
    7 (     18,     0 )       0
    8 (     16,     0 )       0
 number of -cosmo- surface points =      138
 molecular surface =    105.807 angstrom**2
 molecular volume  =     58.417 angstrom**3
 G(cav/disp)       =      1.389 kcal/mol
 ...... end of -cosmo- initialization ......


 SCF residual:   4.127236778148138E-005

 Wrote CPHF data to ./molecule.shieldcphf

 Calc. par tensor-> nonrel
      Atom:    1  P 
        Diamagnetic
    965.0226     -0.0277     -0.0069
     -0.0277    965.0385      0.0079
     -0.0069      0.0079    965.0605

        Paramagnetic
   -737.1665      0.0902      0.1472
      0.0902   -737.1086      0.0266
      0.1472      0.0266   -553.9727

        Total Shielding Tensor
    227.8561      0.0625      0.1403
      0.0625    227.9299      0.0345
      0.1403      0.0345    411.0878

           isotropic =     288.9579
          anisotropy =     183.1950

          Principal Components and Axis System
                 1           2           3
              411.0879    227.9654    227.8204

      1         0.0008      0.4953      0.8687
      2         0.0002      0.8687     -0.4953
      3         1.0000     -0.0005     -0.0006



      Atom:    2  O 
        Diamagnetic
    374.6635    -10.5477     -0.5569
    -10.5477    412.3594     -1.9561
     -0.5569     -1.9561    388.1624

        Paramagnetic
   -175.6959     -7.6090     13.2641
     -7.6090   -139.6852    -47.1790
     13.2641    -47.1790   -182.7370

        Total Shielding Tensor
    198.9676    -18.1567     12.7072
    -18.1567    272.6742    -49.1351
     12.7072    -49.1351    205.4254

           isotropic =     225.6891
          anisotropy =     116.3089

          Principal Components and Axis System
                 1           2           3
              303.2284    194.8103    179.0285

      1        -0.2065      0.9633     -0.1716
      2         0.8633      0.2619      0.4314
      3        -0.4605      0.0590      0.8857



      Atom:    3  O 
        Diamagnetic
    411.9655    -11.1589     -1.4008
    -11.1589    375.0360      1.5572
     -1.4008      1.5572    388.1159

        Paramagnetic
   -141.8190    -11.8111    -47.4449
    -11.8111   -173.2623     12.2661
    -47.4449     12.2661   -182.6062

        Total Shielding Tensor
    270.1466    -22.9700    -48.8457
    -22.9700    201.7738     13.8233
    -48.8457     13.8233    205.5097

           isotropic =     225.8100
          anisotropy =     116.4606

          Principal Components and Axis System
                 1           2           3
              303.4504    194.8238    179.1559

      1         0.8505      0.2620      0.4560
      2        -0.2547      0.9638     -0.0787
      3        -0.4601     -0.0492      0.8865



      Atom:    4  O 
        Diamagnetic
    393.7832     21.4574      2.0208
     21.4574    393.1248      0.6158
      2.0208      0.6158    388.0618

        Paramagnetic
   -154.8398     19.4948     34.2035
     19.4948   -159.7221     34.8709
     34.2035     34.8709   -182.6389

        Total Shielding Tensor
    238.9433     40.9521     36.2243
     40.9521    233.4027     35.4867
     36.2243     35.4867    205.4228

           isotropic =     225.9230
          anisotropy =     116.2792

          Principal Components and Axis System
                 1           2           3
              303.4424    195.1945    179.1320

      1         0.6454     -0.7068     -0.2896
      2         0.6102      0.7052     -0.3611
      3         0.4594      0.0563      0.8864



      Atom:    5  O 
        Diamagnetic
    388.1683     -0.0874     -0.0153
     -0.0874    388.2256     -0.0157
     -0.0153     -0.0157    430.1223

        Paramagnetic
   -215.4208      0.0111     -0.0832
      0.0111   -215.4612     -0.1200
     -0.0832     -0.1200   -175.4129

        Total Shielding Tensor
    172.7476     -0.0763     -0.0985
     -0.0763    172.7644     -0.1357
     -0.0985     -0.1357    254.7094

           isotropic =     200.0738
          anisotropy =      81.9540

          Principal Components and Axis System
                 1           2           3
              254.7098    172.8328    172.6788

      1        -0.0012     -0.6676      0.7445
      2        -0.0017      0.7445      0.6676
      3         1.0000      0.0004      0.0020



      Atom:    6  H 
        Diamagnetic
     19.7270     -6.9477     -2.8060
     -6.9477     41.2569      8.1244
     -2.8060      8.1244     26.4166

        Paramagnetic
      1.9817      2.4767      0.9848
      2.4767     -5.9227     -2.6732
      0.9848     -2.6732     -2.0800

        Total Shielding Tensor
     21.7087     -4.4710     -1.8212
     -4.4710     35.3342      5.4511
     -1.8212      5.4511     24.3366

           isotropic =      27.1265
          anisotropy =      17.7074

          Principal Components and Axis System
                 1           2           3
               38.9314     22.0927     20.3553

      1        -0.2699      0.0095      0.9628
      2         0.8905     -0.3779      0.2533
      3         0.3663      0.9258      0.0936



      Atom:    7  H 
        Diamagnetic
     41.8620     -5.8710      8.4389
     -5.8710     19.1168     -1.6236
      8.4389     -1.6236     26.4182

        Paramagnetic
     -6.0601      2.2214     -2.8027
      2.2214      2.1226      0.4749
     -2.8027      0.4749     -2.0779

        Total Shielding Tensor
     35.8019     -3.6497      5.6361
     -3.6497     21.2394     -1.1486
      5.6361     -1.1486     24.3404

           isotropic =      27.1272
          anisotropy =      17.7056

          Principal Components and Axis System
                 1           2           3
               38.9310     22.0913     20.3594

      1         0.9062     -0.3331      0.2606
      2        -0.2107      0.1786      0.9611
      3         0.3666      0.9258     -0.0916



      Atom:    8  H 
        Diamagnetic
     29.8168     12.7861     -5.6335
     12.7861     31.0564     -6.4777
     -5.6335     -6.4777     26.3381

        Paramagnetic
     -1.8062     -4.6474      1.8139
     -4.6474     -2.1030      2.1610
      1.8139      2.1610     -2.0184

        Total Shielding Tensor
     28.0106      8.1387     -3.8196
      8.1387     28.9534     -4.3167
     -3.8196     -4.3167     24.3197

           isotropic =      27.0946
          anisotropy =      17.7223

          Principal Components and Axis System
                 1           2           3
               38.9094     22.0619     20.3123

      1         0.6357      0.3230      0.7011
      2         0.6789      0.1983     -0.7069
      3        -0.3673      0.9254     -0.0932



 
 
                                NWChem Input Module
                                -------------------
 
 
 
 
                                     CITATION
                                     --------
                Please cite the following reference when publishing
                           results obtained with NWChem:
 
          E. Apr, E. J. Bylaska, W. A. de Jong, N. Govind, K. Kowalski,
       T. P. Straatsma, M. Valiev, H. J. J. van Dam, Y. Alexeev, J. Anchell,
       V. Anisimov, F. W. Aquino, R. Atta-Fynn, J. Autschbach, N. P. Bauman,
     J. C. Becca, D. E. Bernholdt, K. Bhaskaran-Nair, S. Bogatko, P. Borowski,
        J. Boschen, J. Brabec, A. Bruner, E. Caut, Y. Chen, G. N. Chuev,
      C. J. Cramer, J. Daily, M. J. O. Deegan, T. H. Dunning Jr., M. Dupuis,
   K. G. Dyall, G. I. Fann, S. A. Fischer, A. Fonari, H. Frchtl, L. Gagliardi,
      J. Garza, N. Gawande, S. Ghosh, K. Glaesemann, A. W. Gtz, J. Hammond,
       V. Helms, E. D. Hermes, K. Hirao, S. Hirata, M. Jacquelin, L. Jensen,
   B. G. Johnson, H. Jnsson, R. A. Kendall, M. Klemm, R. Kobayashi, V. Konkov,
      S. Krishnamoorthy, M. Krishnan, Z. Lin, R. D. Lins, R. J. Littlefield,
      A. J. Logsdail, K. Lopata, W. Ma, A. V. Marenich, J. Martin del Campo,
   D. Mejia-Rodriguez, J. E. Moore, J. M. Mullin, T. Nakajima, D. R. Nascimento,
    J. A. Nichols, P. J. Nichols, J. Nieplocha, A. Otero-de-la-Roza, B. Palmer,
    A. Panyala, T. Pirojsirikul, B. Peng, R. Peverati, J. Pittner, L. Pollack,
   R. M. Richard, P. Sadayappan, G. C. Schatz, W. A. Shelton, D. W. Silverstein,
   D. M. A. Smith, T. A. Soares, D. Song, M. Swart, H. L. Taylor, G. S. Thomas,
            V. Tipparaju, D. G. Truhlar, K. Tsemekhman, T. Van Voorhis,
     . Vzquez-Mayagoitia, P. Verma, O. Villa, A. Vishnu, K. D. Vogiatzis,
        D. Wang, J. H. Weare, M. J. Williamson, T. L. Windus, K. Woliski,
        A. T. Wong, Q. Wu, C. Yang, Q. Yu, M. Zacharias, Z. Zhang, Y. Zhao,
                                and R. J. Harrison
                        "NWChem: Past, present, and future
                         J. Chem. Phys. 152, 184102 (2020)
                               doi:10.1063/5.0004997
 
                                      AUTHORS
                                      -------
     E. Apra, E. J. Bylaska, N. Govind, K. Kowalski, M. Valiev, W. A. de Jong,
      T. P. Straatsma, H. J. J. van Dam, D. Wang, T. L. Windus, N. P. Bauman,
       A. Panyala, J. Hammond, J. Autschbach, K. Bhaskaran-Nair, J. Brabec,
    K. Lopata, S. A. Fischer, S. Krishnamoorthy, M. Jacquelin, W. Ma, M. Klemm,
       O. Villa, Y. Chen, V. Anisimov, F. Aquino, S. Hirata, M. T. Hackler,
           Eric Hermes, L. Jensen, J. E. Moore, J. C. Becca, V. Konjkov,
            D. Mejia-Rodriguez, T. Risthaus, M. Malagoli, A. Marenich,
   A. Otero-de-la-Roza, J. Mullin, P. Nichols, R. Peverati, J. Pittner, Y. Zhao,
        P.-D. Fan, A. Fonari, M. J. Williamson, R. J. Harrison, J. R. Rehr,
      M. Dupuis, D. Silverstein, D. M. A. Smith, J. Nieplocha, V. Tipparaju,
      M. Krishnan, B. E. Van Kuiken, A. Vazquez-Mayagoitia, M. Swart, Q. Wu,
   T. Van Voorhis, A. A. Auer, M. Nooijen, L. D. Crosby, E. Brown, G. Cisneros,
     G. I. Fann, H. Fruchtl, J. Garza, K. Hirao, R. A. Kendall, J. A. Nichols,
       K. Tsemekhman, K. Wolinski, J. Anchell, D. E. Bernholdt, P. Borowski,
       T. Clark, D. Clerc, H. Dachsel, M. J. O. Deegan, K. Dyall, D. Elwood,
      E. Glendening, M. Gutowski, A. C. Hess, J. Jaffe, B. G. Johnson, J. Ju,
        R. Kobayashi, R. Kutteh, Z. Lin, R. Littlefield, X. Long, B. Meng,
      T. Nakajima, S. Niu, L. Pollack, M. Rosing, K. Glaesemann, G. Sandrone,
      M. Stave, H. Taylor, G. Thomas, J. H. van Lenthe, A. T. Wong, Z. Zhang.

 Total times  cpu:    38763.4s     wall:    39031.3s
