
     Program PWSCF v.7.4.1 starts on 19Feb2026 at 16:30:50 

     This program is part of the open-source Quantum ESPRESSO suite
     for quantum simulation of materials; please cite
         "P. Giannozzi et al., J. Phys.:Condens. Matter 21 395502 (2009);
         "P. Giannozzi et al., J. Phys.:Condens. Matter 29 465901 (2017);
         "P. Giannozzi et al., J. Chem. Phys. 152 154105 (2020);
          URL http://www.quantum-espresso.org", 
     in publications or presentations arising from this work. More details at
     http://www.quantum-espresso.org/quote

     Parallel version (MPI), running on     4 processors

     MPI processes distributed on     1 nodes
     15217 MiB available memory on the printing compute node when the environment starts

     Reading input from espresso.pwi
Warning: card &CELL ignored
Warning: card / ignored
Warning: card &FCP ignored
Warning: card / ignored
Warning: card &RISM ignored
Warning: card / ignored

     Current dimensions of program PWSCF are:
     Max number of different atomic species (ntypx) = 10
     Max number of k-points (npk) =  40000
     Max angular momentum in pseudopotentials (lmaxx) =  4
     Message from routine setup:
     using ibrav=0 with symmetry is DISCOURAGED, use correct ibrav instead

     R & G space division:  proc/nbgrp/npool/nimage =       4
     Subspace diagonalization in iterative solution of the eigenvalue problem:
     a serial algorithm will be used


     Parallelization info
     --------------------
     sticks:   dense  smooth     PW     G-vecs:    dense   smooth      PW
     Min        2271    2271    563               163167   163167   20327
     Max        2272    2272    564               163170   163170   20330
     Sum        9085    9085   2253               652671   652671   81313

     Using Slab Decomposition



     bravais-lattice index     =            0
     lattice parameter (alat)  =      18.8973  a.u.
     unit-cell volume          =    6748.3345 (a.u.)^3
     number of atoms/cell      =            1
     number of atomic types    =            1
     number of electrons       =         1.00
     number of Kohn-Sham states=            5
     kinetic-energy cutoff     =      80.0000  Ry
     charge density cutoff     =     320.0000  Ry
     scf convergence threshold =      1.0E-10
     mixing beta               =       0.7000
     number of iterations used =            8  plain     mixing
     Exchange-correlation= PBE
                           (   1   4   3   4   0   0   0)

     celldm(1)=  18.897261  celldm(2)=   0.000000  celldm(3)=   0.000000
     celldm(4)=   0.000000  celldm(5)=   0.000000  celldm(6)=   0.000000

     crystal axes: (cart. coord. in units of alat)
               a(1) = (   1.000000   0.000000   0.000000 )  
               a(2) = (   0.000000   1.000000   0.000000 )  
               a(3) = (   0.000000   0.000000   1.000000 )  

     reciprocal axes: (cart. coord. in units 2 pi/alat)
               b(1) = (  1.000000  0.000000  0.000000 )  
               b(2) = (  0.000000  1.000000  0.000000 )  
               b(3) = (  0.000000  0.000000  1.000000 )  


     PseudoPot. # 1 for H  read from file:
     ./H.upf
     MD5 check sum: e96aa7e3e4a958db16958554ea960e2a
     Pseudo is Norm-conserving, Zval =  1.0
     Generated using ONCVPSP code by D. R. Hamann
     Using radial grid of 1166 points,  3 beta functions with: 
                l(1) =   0
                l(2) =   0
                l(3) =   1

     atomic species   valence    mass     pseudopotential
     H                 1.00     1.00800     H ( 1.00)

     Starting magnetic structure 
     atomic species   magnetization
     H               0.000

     48 Sym. Ops., with inversion, found



   Cartesian axes

     site n.     atom                  positions (alat units)
         1        H      tau(   1) = (   0.5000000   0.5000000   0.5000000  )

     --------------------------------------------
     DFT-D3 Dispersion Correction (3-body terms):
     --------------------------------------------
       Reference C6 values for interpolation: 

         atom   Coordination number   C6
         H          0.912             6.05
         H          0.000            15.18

       Values used:

         atom   Coordination number  R0_AB[au]  C6      C8
         H          0.000            2.062     14.79    178.78

         Molecular C6 ( Ry / a.u.^6 ) =        14.79


     number of k points=     1  Gaussian smearing, width (Ry)=  0.0100
                       cart. coord. in units 2pi/alat
        k(    1) = (   0.0000000   0.0000000   0.0000000), wk =   1.0000000

     Dense  grid:   652671 G-vectors     FFT dimensions: ( 108, 108, 108)

     Estimated max dynamical RAM per process >     163.97 MB

     Estimated total dynamical RAM >     655.88 MB
     Generating pointlists ...
     new r_m :   0.4125 (alat units)  7.7951 (a.u.) for type    1

     Initial potential from superposition of free atoms

     starting charge       1.0000, renormalised to       1.0000

     negative rho (up, down):  3.394E-06 3.394E-06
     Starting wfcs are    1 randomized atomic wfcs +    4 random wfcs

     total cpu time spent up to now is        0.9 secs

     Self-consistent Calculation

     iteration #  1     ecut=    80.00 Ry     beta= 0.70
     Davidson diagonalization with overlap
     ethr =  1.00E-02,  avg # of iterations =  8.0

     Threshold (ethr) on eigenvalues was too large:
     Diagonalizing with lowered threshold

     Davidson diagonalization with overlap
     c_bands:  3 eigenvalues not converged
     c_bands:  3 eigenvalues not converged
     ethr =  6.26E-09,  avg # of iterations = 20.0

     negative rho (up, down):  3.233E-07 3.235E-07

     total cpu time spent up to now is        6.3 secs

     total energy              =      -0.92310687 Ry
     estimated scf accuracy    <       0.00000001 Ry

     total magnetization       =    -0.00 Bohr mag/cell
     absolute magnetization    =     0.00 Bohr mag/cell

     iteration #  2     ecut=    80.00 Ry     beta= 0.70
     Davidson diagonalization with overlap
     ethr =  1.49E-09,  avg # of iterations = 15.5

     negative rho (up, down):  1.138E-08 1.144E-08

     total cpu time spent up to now is        9.0 secs

     total energy              =      -0.92310693 Ry
     estimated scf accuracy    <          5.1E-10 Ry

     total magnetization       =    -0.00 Bohr mag/cell
     absolute magnetization    =     0.00 Bohr mag/cell

     iteration #  3     ecut=    80.00 Ry     beta= 0.70
     Davidson diagonalization with overlap
     ethr =  5.11E-11,  avg # of iterations =  2.0

     total cpu time spent up to now is       10.2 secs

     total energy              =      -0.92310693 Ry
     estimated scf accuracy    <          6.1E-10 Ry

     total magnetization       =    -0.00 Bohr mag/cell
     absolute magnetization    =     0.00 Bohr mag/cell

     iteration #  4     ecut=    80.00 Ry     beta= 0.70
     Davidson diagonalization with overlap
     ethr =  5.11E-11,  avg # of iterations =  1.0

     total cpu time spent up to now is       11.4 secs

     total energy              =      -0.92310692 Ry
     estimated scf accuracy    <          4.6E-09 Ry

     total magnetization       =    -0.00 Bohr mag/cell
     absolute magnetization    =     0.00 Bohr mag/cell

     iteration #  5     ecut=    80.00 Ry     beta= 0.70
     Davidson diagonalization with overlap
     ethr =  5.11E-11,  avg # of iterations =  1.0

     Magnetic moment per site  (integrated on atomic sphere of radius R)
     atom   1 (R=0.413)  charge=  0.9999  magn=  0.0000

     total cpu time spent up to now is       12.4 secs

     End of self-consistent calculation

 ------ SPIN UP ------------


          k = 0.0000 0.0000 0.0000 ( 81313 PWs)   bands (ev):

    -6.4629  -0.2593   0.8042   0.8042   0.8042

 ------ SPIN DOWN ----------


          k = 0.0000 0.0000 0.0000 ( 81313 PWs)   bands (ev):

    -6.4629  -0.2593   0.8042   0.8042   0.8042

     the Fermi energy is    -6.4629 ev

!    total energy              =      -0.92310692 Ry
     estimated scf accuracy    <          1.6E-12 Ry
     smearing contrib. (-TS)   =      -0.00564190 Ry
     internal energy E=F+TS    =      -0.91746502 Ry

     The total energy is F=E-TS. E is the sum of the following terms:
     one-electron contribution =      -0.69668791 Ry
     hartree contribution      =       0.43118527 Ry
     xc contribution           =      -0.50181768 Ry
     ewald contribution        =      -0.15014332 Ry
     DFT-D3 Dispersion         =      -0.00000139 Ry

     total magnetization       =     0.00 Bohr mag/cell
     absolute magnetization    =     0.00 Bohr mag/cell

     convergence has been achieved in   5 iterations

     Forces acting on atoms (cartesian axes, Ry/au):

     atom    1 type  1   force =     0.00000000    0.00000000    0.00000000

     Total force =     0.000000     Total SCF correction =     0.000000


     Computing stress (Cartesian axis) and pressure

          total   stress  (Ry/bohr**3)                   (kbar)     P=       -0.00
  -0.00000001   0.00000000   0.00000000           -0.00        0.00        0.00
   0.00000000  -0.00000001   0.00000000            0.00       -0.00        0.00
   0.00000000   0.00000000  -0.00000001            0.00        0.00       -0.00


     Writing all to output data dir ./tmp/energy.save/ :
     XML data file, charge density, pseudopotentials, collected wavefunctions

     init_run     :      0.88s CPU      0.92s WALL (       1 calls)
     electrons    :     12.49s CPU     11.54s WALL (       1 calls)
     forces       :      0.07s CPU      0.07s WALL (       1 calls)
     force_dftd3  :      0.00s CPU      0.00s WALL (       1 calls)
     stress       :      0.56s CPU      0.54s WALL (       1 calls)
     stres_dftd3  :      0.00s CPU      0.00s WALL (       1 calls)

     Called by init_run:
     wfcinit      :      0.17s CPU      0.16s WALL (       1 calls)
     potinit      :      0.47s CPU      0.52s WALL (       1 calls)
     hinit0       :      0.04s CPU      0.04s WALL (       1 calls)

     Called by electrons:
     c_bands      :      8.03s CPU      7.32s WALL (       6 calls)
     sum_band     :      1.21s CPU      1.17s WALL (       6 calls)
     v_of_rho     :      2.98s CPU      2.80s WALL (       6 calls)
     mix_rho      :      0.56s CPU      0.57s WALL (       6 calls)
     energy_dftd3 :      0.00s CPU      0.00s WALL (       1 calls)

     Called by c_bands:
     init_us_2    :      0.09s CPU      0.09s WALL (      30 calls)
     cegterg      :      7.96s CPU      7.26s WALL (      12 calls)

     Called by *egterg:
     cdiaghg      :      0.00s CPU      0.00s WALL (     105 calls)
     h_psi        :      6.99s CPU      6.39s WALL (     109 calls)
     g_psi        :      0.03s CPU      0.02s WALL (      95 calls)

     Called by h_psi:
     h_psi:calbec :      0.15s CPU      0.14s WALL (     109 calls)
     vloc_psi     :      6.68s CPU      6.10s WALL (     109 calls)
     add_vuspsi   :      0.11s CPU      0.11s WALL (     109 calls)

     General routines
     calbec       :      0.19s CPU      0.18s WALL (     143 calls)
     fft          :      2.25s CPU      2.11s WALL (     125 calls)
     ffts         :      0.20s CPU      0.19s WALL (      12 calls)
     fftw         :      5.35s CPU      4.90s WALL (     886 calls)

     Parallel routines

     PWSCF        :     14.03s CPU     13.14s WALL


   This run was terminated on:  16:31: 3  19Feb2026            

=------------------------------------------------------------------------------=
   JOB DONE.
=------------------------------------------------------------------------------=
