Successfully read 1 atoms from h.vasp

Running SCF calculation...
  Total energy: -12.559508 eV
  Fermi level: -6.462900 eV
