
     Program PWSCF v.7.4.1 starts on 30May2025 at 10:52:36 
        Git branch: develop
        Last git commit: 95bc91b9c3ff25f565697dd77c0850e0757537c6
        Last git commit date: Sun May 11 00:26:41 2025 +0000
        Last git commit subject: Merge branch 'print-cmake-flags' into 'develop'

     This program is part of the open-source Quantum ESPRESSO suite
     for quantum simulation of materials; please cite
         "P. Giannozzi et al., J. Phys.:Condens. Matter 21 395502 (2009);
         "P. Giannozzi et al., J. Phys.:Condens. Matter 29 465901 (2017);
         "P. Giannozzi et al., J. Chem. Phys. 152 154105 (2020);
          URL http://www.quantum-espresso.org", 
     in publications or presentations arising from this work. More details at
     http://www.quantum-espresso.org/quote

     Parallel version (MPI), running on    40 processors

     MPI processes distributed on     2 nodes
     1372018 MiB available memory on the printing compute node when the environment starts

     Waiting for input...
     Reading input from standard input

     Current dimensions of program PWSCF are:
     Max number of different atomic species (ntypx) = 10
     Max number of k-points (npk) =  40000
     Max angular momentum in pseudopotentials (lmaxx) =  4

     K-points division:     npool     =       2
     R & G space division:  proc/nbgrp/npool/nimage =      20
     Subspace diagonalization in iterative solution of the eigenvalue problem:
     one sub-group per band group will be used
     custom distributed-memory algorithm (size of sub-group:  4*  4 procs)


     Parallelization info
     --------------------
     sticks:   dense  smooth     PW     G-vecs:    dense   smooth      PW
     Min         673     673    175                73153    73153    9744
     Max         674     674    176                73158    73158    9748
     Sum       13473   13473   3515              1463107  1463107  194917

     Using Slab Decomposition



     bravais-lattice index     =            0
     lattice parameter (alat)  =      24.6592  a.u.
     unit-cell volume          =   23302.3946 (a.u.)^3
     number of atoms/cell      =           55
     number of atomic types    =            2
     number of electrons       =       886.00
     number of Kohn-Sham states=         1064
     kinetic-energy cutoff     =      60.0000  Ry
     charge density cutoff     =     240.0000  Ry
     scf convergence threshold =      1.0E-09
     mixing beta               =       0.2000
     number of iterations used =            8  plain     mixing
     energy convergence thresh.=      1.0E-08
     force convergence thresh. =      1.0E-04
     Exchange-correlation= PBE
                           (   1   4   3   4   0   0   0)
     nstep                     =            2

     Non magnetic calculation with spin-orbit


     celldm(1)=  24.659173  celldm(2)=   0.000000  celldm(3)=   0.000000
     celldm(4)=   0.000000  celldm(5)=   0.000000  celldm(6)=   0.000000

     crystal axes: (cart. coord. in units of alat)
               a(1) = (   1.000000   0.000000   0.000000 )  
               a(2) = (   0.000000   1.159736   0.000000 )  
               a(3) = (   0.000000   0.000000   1.340003 )  

     reciprocal axes: (cart. coord. in units 2 pi/alat)
               b(1) = (  1.000000 -0.000000  0.000000 )  
               b(2) = ( -0.000000  0.862265  0.000000 )  
               b(3) = (  0.000000  0.000000  0.746267 )  


     PseudoPot. # 1 for Se read from file:
     ./Se_r.upf
     MD5 check sum: cb2cefba1335ec1a0ef320de5a6fd81a
     Pseudo is Norm-conserving + core correction, Zval = 16.0
     Generated using ONCVPSP code by D. R. Hamann
     Using radial grid of 1214 points, 10 beta functions with: 
                l(1) =   0
                l(2) =   0
                l(3) =   1
                l(4) =   1
                l(5) =   1
                l(6) =   1
                l(7) =   2
                l(8) =   2
                l(9) =   2
               l(10) =   2

     PseudoPot. # 2 for Fl read from file:
     ./Fl-6spd_r.upf
     MD5 check sum: b85b9b71a88d70a023db0b659bf16840
     Pseudo is Norm-conserving + core correction, Zval = 22.0
     Generated using ONCVPSP code by D. R. Hamann
     Using radial grid of 2000 points, 12 beta functions with: 
                l(1) =   0
                l(2) =   0
                l(3) =   1
                l(4) =   1
                l(5) =   1
                l(6) =   1
                l(7) =   2
                l(8) =   2
                l(9) =   2
               l(10) =   2
               l(11) =   3
               l(12) =   3

     atomic species   valence    mass     pseudopotential
     Se               16.00    78.96000     Se( 1.00)
     Fl               22.00   289.00000     Fl( 1.00)

     No symmetry found



   Cartesian axes

     site n.     atom                  positions (alat units)
         1        Se     tau(   1) = (   0.1265139   0.1290319   0.2899348  )
         2        Se     tau(   2) = (   0.2898730   0.1222560   0.5698847  )
         3        Se     tau(   3) = (   0.2424917   0.2574301   0.2214487  )
         4        Se     tau(   4) = (   0.0739760   0.2586025   0.5065604  )
         5        Se     tau(   5) = (   0.1310203   0.0010567   0.1588305  )
         6        Se     tau(   6) = (   0.2881107  -0.0045116   0.4367615  )
         7        Se     tau(   7) = (   0.4598471   0.1290321   0.2899346  )
         8        Se     tau(   8) = (   0.6346464   0.1264925   0.5702974  )
         9        Se     tau(   9) = (   0.5758247   0.2574302   0.2214482  )
        10        Se     tau(  10) = (   0.4001475   0.2530642   0.5076568  )
        11        Se     tau(  11) = (   0.4643531   0.0010568   0.1588304  )
        12        Se     tau(  12) = (   0.6317777  -0.0006482   0.4393781  )
        13        Se     tau(  13) = (   0.7931807   0.1290319   0.2899341  )
        14        Se     tau(  14) = (   0.9622465   0.1273954   0.5664070  )
        15        Se     tau(  15) = (   0.9091586   0.2574301   0.2214482  )
        16        Se     tau(  16) = (   0.7430044   0.2593948   0.5061921  )
        17        Se     tau(  17) = (   0.7976871   0.0010567   0.1588299  )
        18        Se     tau(  18) = (   0.9639387   0.0080696   0.4269225  )
        19        Se     tau(  19) = (   0.1264983   0.5155936   0.2899296  )
        20        Se     tau(  20) = (   0.2642202   0.4986246   0.5650334  )
        21        Se     tau(  21) = (   0.2424688   0.6440249   0.2214632  )
        22        Se     tau(  22) = (   0.0696216   0.6422763   0.5067810  )
        23        Se     tau(  23) = (   0.1310206   0.3876536   0.1587981  )
        24        Se     tau(  24) = (   0.2826288   0.3741124   0.4309008  )
        25        Se     tau(  25) = (   0.4598315   0.5155937   0.2899294  )
        26        Se     tau(  26) = (   0.6341014   0.5196800   0.5643143  )
        27        Se     tau(  27) = (   0.5758018   0.6440250   0.2214627  )
        28        Se     tau(  28) = (   0.3697647   0.6329002   0.5038083  )
        29        Se     tau(  29) = (   0.4643534   0.3876537   0.1587979  )
        30        Se     tau(  30) = (   0.6258541   0.3871753   0.4381309  )
        31        Se     tau(  31) = (   0.7931651   0.5155936   0.2899289  )
        32        Se     tau(  32) = (   0.9564171   0.5117758   0.5702177  )
        33        Se     tau(  33) = (   0.9091357   0.6440249   0.2214627  )
        34        Se     tau(  34) = (   0.7590143   0.6395492   0.5020283  )
        35        Se     tau(  35) = (   0.7976875   0.3876535   0.1587975  )
        36        Se     tau(  36) = (   0.9581180   0.3862323   0.4364536  )
        37        Se     tau(  37) = (   0.1264959   0.9021877   0.2899756  )
        38        Se     tau(  38) = (   0.2465976   0.8943075   0.5600303  )
        39        Se     tau(  39) = (   0.2424890   1.0305767   0.2214989  )
        40        Se     tau(  40) = (   0.0822127   1.0376567   0.4923804  )
        41        Se     tau(  41) = (   0.1310011   0.7742540   0.1588314  )
        42        Se     tau(  42) = (   0.2614756   0.7654932   0.4262535  )
        43        Se     tau(  43) = (   0.4598291   0.9021878   0.2899754  )
        44        Se     tau(  44) = (   0.6889943   0.9030670   0.5652884  )
        45        Se     tau(  45) = (   0.5758220   1.0305769   0.2214984  )
        46        Se     tau(  46) = (   0.3812438   1.0129064   0.5189388  )
        47        Se     tau(  47) = (   0.4643340   0.7742541   0.1588312  )
        48        Se     tau(  48) = (   0.6537216   0.7769724   0.4336812  )
        49        Se     tau(  49) = (   0.7931627   0.9021876   0.2899749  )
        50        Se     tau(  50) = (   0.9656118   0.9089626   0.5593483  )
        51        Se     tau(  51) = (   0.9091559   1.0305767   0.2214984  )
        52        Se     tau(  52) = (   0.7731218   1.0458403   0.4884361  )
        53        Se     tau(  53) = (   0.7976680   0.7742539   0.1588308  )
        54        Se     tau(  54) = (   0.9585930   0.7747748   0.4343037  )
        55        Fl     tau(  55) = (   0.4803595   0.8097371   0.6223285  )

     number of k points=     4  Gaussian smearing, width (Ry)=  0.0200
                       cart. coord. in units 2pi/alat
        k(    1) = (   0.0000000   0.0000000   0.0000000), wk =   0.2500000
        k(    2) = (   0.0000000  -0.4311326   0.0000000), wk =   0.2500000
        k(    3) = (  -0.5000000   0.0000000   0.0000000), wk =   0.2500000
        k(    4) = (  -0.5000000  -0.4311326   0.0000000), wk =   0.2500000

     Dense  grid:  1463107 G-vectors     FFT dimensions: ( 125, 144, 180)

     Estimated max dynamical RAM per process >       2.50 GB

     Estimated total dynamical RAM >      98.51 GB
 ----2D----2D----2D----2D----2D----2D----2D----2D----2D----2D----2D----2D
  The code is running with the 2D cutoff
  Please refer to:
  Sohier, T., Calandra, M., & Mauri, F. (2017), 
  Density functional perturbation theory for gated two-dimensional heterostructures:
  Theoretical developments and application to flexural phonons in graphene.
  Physical Review B, 96(7), 75448. https://doi.org/10.1103/PhysRevB.96.075448
 ----2D----2D----2D----2D----2D----2D----2D----2D----2D----2D----2D----2D

     Initial potential from superposition of free atoms

     starting charge     885.9890, renormalised to     886.0000

     negative rho (up, down):  7.547E-03 0.000E+00
     Starting wfcs are  998 randomized atomic wfcs +   66 random wfcs

     total cpu time spent up to now is     2019.6 secs

     per-process dynamical memory:  1293.4 Mb

     Self-consistent Calculation

     iteration #  1     ecut=    60.00 Ry     beta= 0.20
     Davidson diagonalization with overlap
     ethr =  1.00E-02,  avg # of iterations =  7.5

     Threshold (ethr) on eigenvalues was too large:
     Diagonalizing with lowered threshold

     Davidson diagonalization with overlap
     ethr =  9.82E-05,  avg # of iterations = 11.0

     negative rho (up, down):  5.774E-03 0.000E+00

     total cpu time spent up to now is    28647.5 secs

     total energy              =  -13470.53511495 Ry
     estimated scf accuracy    <       0.86953961 Ry

     iteration #  2     ecut=    60.00 Ry     beta= 0.20
     Davidson diagonalization with overlap
     ethr =  9.81E-05,  avg # of iterations =  2.0

     negative rho (up, down):  3.040E-03 0.000E+00

     total cpu time spent up to now is    35503.0 secs

     total energy              =  -13470.43146651 Ry
     estimated scf accuracy    <       0.45722421 Ry

     iteration #  3     ecut=    60.00 Ry     beta= 0.20
     Davidson diagonalization with overlap
     ethr =  5.16E-05,  avg # of iterations =  2.0

     negative rho (up, down):  1.086E-03 0.000E+00

     total cpu time spent up to now is    42048.7 secs

     total energy              =  -13470.41197609 Ry
     estimated scf accuracy    <       0.17328267 Ry

     iteration #  4     ecut=    60.00 Ry     beta= 0.20
     Davidson diagonalization with overlap
     c_bands:  2 eigenvalues not converged
     ethr =  1.96E-05,  avg # of iterations = 13.5

     negative rho (up, down):  3.119E-04 0.000E+00

     total cpu time spent up to now is    48995.2 secs

     total energy              =  -13470.42594607 Ry
     estimated scf accuracy    <       0.03332108 Ry

     iteration #  5     ecut=    60.00 Ry     beta= 0.20
     Davidson diagonalization with overlap
     c_bands:  2 eigenvalues not converged
     ethr =  3.76E-06,  avg # of iterations = 15.2

     negative rho (up, down):  3.494E-05 0.000E+00

     total cpu time spent up to now is    56477.8 secs

     total energy              =  -13470.42940472 Ry
     estimated scf accuracy    <       0.00678271 Ry

     iteration #  6     ecut=    60.00 Ry     beta= 0.20
     Davidson diagonalization with overlap
     ethr =  7.66E-07,  avg # of iterations =  2.2

     negative rho (up, down):  9.217E-07 0.000E+00

     total cpu time spent up to now is    63123.7 secs

     total energy              =  -13470.43005197 Ry
     estimated scf accuracy    <       0.00177344 Ry

     iteration #  7     ecut=    60.00 Ry     beta= 0.20
     Davidson diagonalization with overlap
     ethr =  2.00E-07,  avg # of iterations =  2.0

     total cpu time spent up to now is    69492.0 secs

     total energy              =  -13470.43018939 Ry
     estimated scf accuracy    <       0.00068567 Ry

     iteration #  8     ecut=    60.00 Ry     beta= 0.20
     Davidson diagonalization with overlap
     ethr =  7.74E-08,  avg # of iterations =  2.0

     total cpu time spent up to now is    75915.2 secs

     total energy              =  -13470.43024491 Ry
     estimated scf accuracy    <       0.00023423 Ry

     iteration #  9     ecut=    60.00 Ry     beta= 0.20
     Davidson diagonalization with overlap
     ethr =  2.64E-08,  avg # of iterations =  2.0

     total cpu time spent up to now is    82479.6 secs

     total energy              =  -13470.43025770 Ry
     estimated scf accuracy    <       0.00005197 Ry

     iteration # 10     ecut=    60.00 Ry     beta= 0.20
     Davidson diagonalization with overlap
     ethr =  5.87E-09,  avg # of iterations =  2.0

     total cpu time spent up to now is    89536.3 secs

     total energy              =  -13470.43026191 Ry
     estimated scf accuracy    <       0.00000677 Ry

     iteration # 11     ecut=    60.00 Ry     beta= 0.20
     Davidson diagonalization with overlap
     ethr =  7.64E-10,  avg # of iterations =  2.0

     total cpu time spent up to now is    96175.3 secs

     total energy              =  -13470.43026244 Ry
     estimated scf accuracy    <       0.00000183 Ry

     iteration # 12     ecut=    60.00 Ry     beta= 0.20
     Davidson diagonalization with overlap
     ethr =  2.07E-10,  avg # of iterations =  2.5

     total cpu time spent up to now is   102966.4 secs

     total energy              =  -13470.43026256 Ry
     estimated scf accuracy    <       0.00000065 Ry

     iteration # 13     ecut=    60.00 Ry     beta= 0.20
     Davidson diagonalization with overlap
     ethr =  7.36E-11,  avg # of iterations =  2.0

     total cpu time spent up to now is   109517.1 secs

     total energy              =  -13470.43026261 Ry
     estimated scf accuracy    <       0.00000022 Ry

     iteration # 14     ecut=    60.00 Ry     beta= 0.20
     Davidson diagonalization with overlap
     ethr =  2.52E-11,  avg # of iterations =  2.0

     total cpu time spent up to now is   116942.2 secs

     total energy              =  -13470.43026264 Ry
     estimated scf accuracy    <       0.00000005 Ry

     iteration # 15     ecut=    60.00 Ry     beta= 0.20
     Davidson diagonalization with overlap
     ethr =  5.55E-12,  avg # of iterations =  2.0

     total cpu time spent up to now is   123817.0 secs

     total energy              =  -13470.43026265 Ry
     estimated scf accuracy    <       0.00000002 Ry

     iteration # 16     ecut=    60.00 Ry     beta= 0.20
     Davidson diagonalization with overlap
     ethr =  2.52E-12,  avg # of iterations =  2.0

     total cpu time spent up to now is   132633.9 secs

     total energy              =  -13470.43026266 Ry
     estimated scf accuracy    <       0.00000001 Ry

     iteration # 17     ecut=    60.00 Ry     beta= 0.20
     Davidson diagonalization with overlap
     ethr =  1.17E-12,  avg # of iterations =  2.0

     total cpu time spent up to now is   143317.9 secs

     total energy              =  -13470.43026266 Ry
     estimated scf accuracy    <          2.1E-09 Ry

     iteration # 18     ecut=    60.00 Ry     beta= 0.20
     Davidson diagonalization with overlap
     ethr =  2.40E-13,  avg # of iterations =  2.0

     total cpu time spent up to now is   150612.3 secs

     End of self-consistent calculation

          k = 0.0000 0.0000 0.0000 (182899 PWs)   bands (ev):

  -160.9085-160.9085-117.7440-117.7440 -64.7368 -64.7368 -64.7221 -64.7221
   -53.9626 -53.9626 -53.9605 -53.9605 -53.9082 -53.9082 -53.8894 -53.8894
   -53.8835 -53.8835 -53.8782 -53.8782 -53.8575 -53.8575 -53.8390 -53.8390
   -53.8335 -53.8335 -53.8287 -53.8287 -53.8226 -53.8226 -53.8189 -53.8189
   -53.8176 -53.8176 -53.8136 -53.8136 -53.8131 -53.8131 -53.8065 -53.8065
   -53.8050 -53.8050 -53.8042 -53.8042 -53.8030 -53.8030 -53.7997 -53.7997
   -53.7984 -53.7984 -53.7858 -53.7858 -53.7831 -53.7831 -53.7766 -53.7766
   -53.7711 -53.7711 -53.7638 -53.7638 -53.7597 -53.7597 -53.7585 -53.7585
   -53.7549 -53.7549 -53.7536 -53.7536 -53.7348 -53.7348 -53.7332 -53.7332
   -53.7324 -53.7324 -53.7308 -53.7308 -53.7273 -53.7273 -53.7240 -53.7240
   -53.7213 -53.7213 -53.7205 -53.7205 -53.7190 -53.7190 -53.7140 -53.7140
   -53.7118 -53.7118 -53.7047 -53.7047 -53.7023 -53.7023 -53.6989 -53.6989
   -53.6858 -53.6858 -53.6776 -53.6776 -53.6720 -53.6720 -53.6525 -53.6525
   -53.6465 -53.6465 -53.6450 -53.6450 -53.6398 -53.6398 -53.6390 -53.6390
   -53.6313 -53.6313 -53.6302 -53.6302 -53.6225 -53.6225 -53.6171 -53.6171
   -53.6160 -53.6160 -53.6147 -53.6147 -53.5959 -53.5959 -53.5826 -53.5826
   -53.5812 -53.5812 -53.5757 -53.5757 -53.5640 -53.5640 -53.5584 -53.5584
   -53.5541 -53.5541 -53.5538 -53.5538 -53.5483 -53.5483 -53.5476 -53.5476
   -53.5451 -53.5451 -53.5437 -53.5437 -53.5426 -53.5426 -53.5379 -53.5379
   -53.5274 -53.5274 -53.5263 -53.5263 -53.5249 -53.5249 -53.5227 -53.5227
   -53.5217 -53.5217 -53.5110 -53.5110 -53.5083 -53.5083 -53.5021 -53.5021
   -53.4954 -53.4954 -53.4940 -53.4940 -53.4841 -53.4841 -53.4771 -53.4771
   -53.4746 -53.4746 -53.4663 -53.4663 -53.4638 -53.4638 -53.4616 -53.4616
   -53.4560 -53.4560 -53.4496 -53.4496 -53.4476 -53.4476 -53.4467 -53.4467
   -53.4461 -53.4461 -53.4422 -53.4422 -53.4334 -53.4334 -53.4316 -53.4316
   -53.4296 -53.4296 -53.4112 -53.4112 -53.4066 -53.4066 -53.3710 -53.3710
   -53.3691 -53.3691 -53.3674 -53.3674 -53.3658 -53.3658 -53.3647 -53.3647
   -53.3541 -53.3541 -53.3478 -53.3478 -53.3051 -53.3051 -53.2454 -53.2454
   -53.1108 -53.1108 -53.1050 -53.1050 -53.0586 -53.0586 -53.0306 -53.0306
   -53.0278 -53.0278 -53.0250 -53.0250 -53.0063 -53.0063 -52.9895 -52.9895
   -52.9800 -52.9800 -52.9781 -52.9781 -52.9763 -52.9763 -52.9678 -52.9678
   -52.9663 -52.9663 -52.9648 -52.9648 -52.9608 -52.9608 -52.9572 -52.9572
   -52.9525 -52.9525 -52.9519 -52.9519 -52.9507 -52.9507 -52.9453 -52.9453
   -52.9429 -52.9429 -52.9321 -52.9321 -52.9294 -52.9294 -52.9211 -52.9211
   -52.9178 -52.9178 -52.9120 -52.9120 -52.9087 -52.9087 -52.9045 -52.9045
   -52.9027 -52.9027 -52.9011 -52.9011 -52.9004 -52.9004 -52.8891 -52.8891
   -52.8808 -52.8808 -52.8799 -52.8799 -52.8742 -52.8742 -52.8720 -52.8720
   -52.8701 -52.8701 -52.8688 -52.8688 -52.8640 -52.8640 -52.8625 -52.8625
   -52.8615 -52.8615 -52.8540 -52.8540 -52.8473 -52.8473 -52.8412 -52.8412
   -52.8372 -52.8372 -52.8355 -52.8355 -52.8337 -52.8337 -52.8184 -52.8184
   -52.8176 -52.8176 -52.8158 -52.8158 -52.8021 -52.8021 -52.8004 -52.8004
   -52.7958 -52.7958 -52.7834 -52.7834 -52.7829 -52.7829 -52.7824 -52.7824
   -52.7820 -52.7820 -52.7741 -52.7741 -52.7708 -52.7708 -52.7635 -52.7635
   -52.7611 -52.7611 -52.7578 -52.7578 -52.7558 -52.7558 -52.7521 -52.7521
   -52.7445 -52.7445 -52.7390 -52.7390 -52.7362 -52.7362 -52.7354 -52.7354
   -52.7349 -52.7349 -52.7335 -52.7335 -52.7324 -52.7324 -52.7309 -52.7309
   -52.7304 -52.7304 -52.7287 -52.7287 -52.7275 -52.7275 -52.7264 -52.7264
   -52.7179 -52.7179 -52.7168 -52.7168 -52.7135 -52.7135 -52.7123 -52.7123
   -52.7075 -52.7075 -52.6999 -52.6999 -52.6988 -52.6988 -52.6957 -52.6957
   -52.6896 -52.6896 -52.6884 -52.6884 -52.6852 -52.6852 -52.6758 -52.6758
   -52.6711 -52.6711 -52.6698 -52.6698 -52.6685 -52.6685 -52.6677 -52.6677
   -52.6585 -52.6585 -52.6572 -52.6572 -52.6548 -52.6548 -52.6539 -52.6539
   -52.6489 -52.6489 -52.6456 -52.6456 -52.6438 -52.6438 -52.6425 -52.6425
   -52.6415 -52.6415 -52.6401 -52.6401 -52.6382 -52.6382 -52.6369 -52.6369
   -52.6342 -52.6342 -52.6331 -52.6331 -52.6325 -52.6325 -52.6297 -52.6297
   -52.6272 -52.6272 -52.6256 -52.6256 -52.6248 -52.6248 -52.6223 -52.6223
   -52.6179 -52.6179 -52.6168 -52.6168 -52.6157 -52.6157 -52.6104 -52.6104
   -52.6071 -52.6071 -52.6007 -52.6007 -52.5998 -52.5998 -52.5989 -52.5989
   -52.5979 -52.5979 -52.5970 -52.5970 -52.5886 -52.5886 -52.5830 -52.5830
   -52.5794 -52.5794 -52.5724 -52.5724 -52.5690 -52.5690 -52.5654 -52.5654
   -52.5609 -52.5609 -52.5595 -52.5595 -52.5571 -52.5571 -52.5568 -52.5568
   -52.5562 -52.5562 -52.5510 -52.5510 -52.5485 -52.5485 -52.5444 -52.5444
   -52.5435 -52.5435 -52.5417 -52.5417 -52.5395 -52.5395 -52.5363 -52.5363
   -52.5306 -52.5306 -52.5216 -52.5216 -52.5208 -52.5208 -52.5192 -52.5192
   -52.5183 -52.5183 -52.5146 -52.5146 -52.5060 -52.5060 -52.5045 -52.5045
   -52.5038 -52.5038 -52.4974 -52.4974 -52.4871 -52.4871 -52.4815 -52.4815
   -52.4434 -52.4434 -52.4425 -52.4425 -52.4415 -52.4415 -52.4398 -52.4398
   -52.4394 -52.4394 -52.4376 -52.4376 -52.4270 -52.4270 -52.4204 -52.4204
   -52.3775 -52.3775 -52.3156 -52.3156 -20.4429 -20.4429 -20.1875 -20.1875
   -20.1188 -20.1188 -20.0849 -20.0849 -19.9669 -19.9669 -19.9422 -19.9422
   -19.9239 -19.9239 -19.8936 -19.8936 -19.7276 -19.7276 -19.6971 -19.6971
   -19.6583 -19.6583 -19.6500 -19.6500 -19.6270 -19.6270 -19.6184 -19.6184
   -19.4943 -19.4943 -19.4747 -19.4747 -19.4692 -19.4692 -19.4109 -19.4109
   -18.5904 -18.5904 -18.5423 -18.5423 -18.4285 -18.4285 -18.4071 -18.4071
   -18.3984 -18.3984 -18.3823 -18.3823 -18.3655 -18.3655 -18.3591 -18.3591
   -18.2913 -18.2913 -18.2838 -18.2838 -18.2420 -18.2420 -18.2112 -18.2112
   -17.5916 -17.5916 -17.5561 -17.5561 -17.0216 -17.0216 -16.9691 -16.9691
   -16.9522 -16.9522 -16.8923 -16.8923 -16.8665 -16.8665 -16.6957 -16.6957
   -16.6269 -16.6269 -16.5819 -16.5819 -16.5174 -16.5174 -16.4884 -16.4884
   -16.4426 -16.4426 -16.4240 -16.4240 -15.7414 -15.7414 -15.6655 -15.6655
   -15.6360 -15.6360 -15.6045 -15.6045 -15.4972 -15.4972 -15.3951 -15.3951
   -15.3830 -15.3830 -15.3668 -15.3668 -15.3219 -15.3219 -15.3097 -15.3097
   -14.9064 -14.9064 -14.8690 -14.8690 -14.1187 -14.1187 -13.3656 -13.3656
   -13.3523 -13.3523 -13.3193 -13.3193 -10.3501 -10.3501 -10.2797 -10.2797
   -10.2511 -10.2511 -10.2068 -10.2068 -10.1786 -10.1786 -10.1202 -10.1202
   -10.1017 -10.1017 -10.0683 -10.0683 -10.0370 -10.0370  -9.9848  -9.9848
    -9.8894  -9.8894  -9.8325  -9.8325  -9.7944  -9.7944  -9.7708  -9.7708
    -9.7582  -9.7582  -9.7404  -9.7404  -9.7081  -9.7081  -9.6817  -9.6817
    -9.6557  -9.6557  -9.5622  -9.5622  -9.5291  -9.5291  -9.5028  -9.5028
    -9.4363  -9.4363  -9.4184  -9.4184  -9.3686  -9.3686  -9.3521  -9.3521
    -9.3195  -9.3195  -9.2940  -9.2940  -9.2584  -9.2584  -9.2340  -9.2340
    -9.2170  -9.2170  -9.1672  -9.1672  -8.9313  -8.9313  -8.8951  -8.8951
    -8.8452  -8.8452  -8.8168  -8.8168  -8.7671  -8.7671  -8.7357  -8.7357
    -8.6103  -8.6103  -8.5619  -8.5619  -8.4514  -8.4514  -8.4071  -8.4071
    -8.3770  -8.3770  -8.3420  -8.3420  -8.3139  -8.3139  -8.2957  -8.2957
    -8.2609  -8.2609  -8.2117  -8.2117  -8.1854  -8.1854  -8.1332  -8.1332
    -8.0950  -8.0950  -8.0693  -8.0693  -7.9868  -7.9868  -7.8820  -7.8820
    -7.5754  -7.5754  -7.4634  -7.4634  -7.3875  -7.3875  -7.3614  -7.3614
    -7.3171  -7.3171  -7.0248  -7.0248  -6.9407  -6.9407  -6.9095  -6.9095
    -6.8716  -6.8716  -6.8289  -6.8289  -6.8062  -6.8062  -6.7745  -6.7745
    -6.7566  -6.7566  -6.7279  -6.7279  -6.6931  -6.6931  -6.6651  -6.6651
    -6.6312  -6.6312  -6.5872  -6.5872  -6.5663  -6.5663  -6.5446  -6.5446
    -6.5136  -6.5136  -6.4945  -6.4945  -6.4720  -6.4720  -6.4326  -6.4326
    -6.3760  -6.3760  -6.3553  -6.3553  -6.3285  -6.3285  -6.3070  -6.3070
    -6.2769  -6.2769  -6.2469  -6.2469  -6.2058  -6.2058  -6.1907  -6.1907
    -6.1670  -6.1670  -6.1445  -6.1445  -6.1204  -6.1204  -6.0803  -6.0803
    -6.0463  -6.0463  -5.9983  -5.9983  -5.9294  -5.9294  -5.8676  -5.8676
    -5.8127  -5.8127  -5.7365  -5.7365  -5.6835  -5.6835  -5.6003  -5.6003
    -5.5419  -5.5419  -5.4679  -5.4679  -5.4408  -5.4408  -5.4088  -5.4088
    -5.3307  -5.3307  -5.2963  -5.2963  -5.1712  -5.1712  -5.1571  -5.1571
    -5.0406  -5.0406  -5.0049  -5.0049  -4.5746  -4.5746  -3.6444  -3.6444
    -3.5610  -3.5610  -3.4984  -3.4984  -3.4327  -3.4327  -3.4118  -3.4118
    -3.3733  -3.3733  -3.3474  -3.3474  -3.3112  -3.3112  -3.2939  -3.2939
    -3.2714  -3.2714  -3.2200  -3.2200  -3.1873  -3.1873  -3.1555  -3.1555
    -3.1209  -3.1209  -3.0895  -3.0895  -3.0765  -3.0765  -3.0340  -3.0340
    -3.0149  -3.0149  -2.9858  -2.9858  -2.9535  -2.9535  -2.9114  -2.9114
    -2.7528  -2.7528  -2.7144  -2.7144  -2.6806  -2.6806  -2.6399  -2.6399
    -2.5952  -2.5952  -2.5852  -2.5852  -2.5573  -2.5573  -2.5322  -2.5322
    -2.4990  -2.4990  -2.4790  -2.4790  -2.4443  -2.4443  -2.4164  -2.4164
    -2.3858  -2.3858  -2.3611  -2.3611  -2.3302  -2.3302  -2.2982  -2.2982
    -2.2706  -2.2706  -2.2117  -2.2117  -2.1914  -2.1914  -2.1577  -2.1577
    -2.1308  -2.1308  -2.1084  -2.1084  -2.0748  -2.0748  -2.0333  -2.0333
    -1.8543  -1.8543  -1.8329  -1.8329  -1.7873  -1.7873  -1.7459  -1.7459
    -1.6756  -1.6756  -1.6516  -1.6516  -1.5628  -1.5628  -1.4773  -1.4773
    -1.4559  -1.4559  -0.2692  -0.2692   0.1925   0.1925   0.6103   0.6103
     0.7755   0.7755   0.8535   0.8535   0.9247   0.9247   0.9853   0.9853
     1.0265   1.0265   1.0764   1.0764   1.2574   1.2574   1.2726   1.2726
     1.3026   1.3026   1.3311   1.3311   1.3701   1.3702   1.4503   1.4503
     1.5025   1.5025   1.5454   1.5454   1.5711   1.5711   1.6158   1.6158
     1.6355   1.6355   1.6774   1.6774   1.7142   1.7142   1.7465   1.7465
     1.7644   1.7644   1.8116   1.8116   1.8333   1.8333   1.8820   1.8820
     1.9062   1.9062   1.9323   1.9323   2.0134   2.0134   2.0539   2.0540
     2.0747   2.0748   2.1169   2.1170   2.1599   2.1600   2.2199   2.2200

          k = 0.0000-0.4311 0.0000 (182866 PWs)   bands (ev):

  -160.9085-160.9085-117.7440-117.7440 -64.7368 -64.7368 -64.7221 -64.7221
   -53.9622 -53.9622 -53.9602 -53.9602 -53.9079 -53.9079 -53.8891 -53.8891
   -53.8836 -53.8836 -53.8779 -53.8779 -53.8572 -53.8572 -53.8385 -53.8385
   -53.8331 -53.8331 -53.8285 -53.8285 -53.8226 -53.8226 -53.8186 -53.8186
   -53.8174 -53.8174 -53.8132 -53.8132 -53.8125 -53.8125 -53.8059 -53.8059
   -53.8052 -53.8052 -53.8036 -53.8036 -53.8022 -53.8022 -53.7992 -53.7992
   -53.7981 -53.7981 -53.7864 -53.7864 -53.7821 -53.7821 -53.7765 -53.7765
   -53.7709 -53.7709 -53.7634 -53.7634 -53.7592 -53.7592 -53.7581 -53.7581
   -53.7546 -53.7546 -53.7533 -53.7533 -53.7348 -53.7348 -53.7326 -53.7326
   -53.7320 -53.7320 -53.7310 -53.7310 -53.7271 -53.7271 -53.7235 -53.7235
   -53.7212 -53.7212 -53.7208 -53.7208 -53.7188 -53.7188 -53.7148 -53.7148
   -53.7110 -53.7110 -53.7045 -53.7045 -53.7022 -53.7022 -53.6985 -53.6985
   -53.6855 -53.6855 -53.6772 -53.6772 -53.6715 -53.6715 -53.6521 -53.6521
   -53.6464 -53.6464 -53.6448 -53.6448 -53.6397 -53.6397 -53.6385 -53.6385
   -53.6309 -53.6309 -53.6301 -53.6301 -53.6223 -53.6223 -53.6170 -53.6170
   -53.6159 -53.6159 -53.6143 -53.6143 -53.5959 -53.5959 -53.5825 -53.5825
   -53.5807 -53.5807 -53.5758 -53.5758 -53.5638 -53.5638 -53.5583 -53.5583
   -53.5538 -53.5538 -53.5535 -53.5535 -53.5488 -53.5488 -53.5479 -53.5479
   -53.5456 -53.5456 -53.5426 -53.5426 -53.5415 -53.5415 -53.5376 -53.5376
   -53.5268 -53.5268 -53.5263 -53.5263 -53.5249 -53.5249 -53.5229 -53.5229
   -53.5209 -53.5209 -53.5108 -53.5108 -53.5079 -53.5079 -53.5019 -53.5019
   -53.4949 -53.4949 -53.4936 -53.4936 -53.4841 -53.4841 -53.4764 -53.4764
   -53.4746 -53.4746 -53.4661 -53.4661 -53.4638 -53.4638 -53.4613 -53.4613
   -53.4558 -53.4558 -53.4496 -53.4496 -53.4477 -53.4477 -53.4467 -53.4467
   -53.4461 -53.4461 -53.4414 -53.4414 -53.4335 -53.4335 -53.4312 -53.4312
   -53.4290 -53.4290 -53.4110 -53.4110 -53.4063 -53.4063 -53.3707 -53.3707
   -53.3690 -53.3690 -53.3672 -53.3672 -53.3658 -53.3658 -53.3641 -53.3641
   -53.3537 -53.3537 -53.3475 -53.3475 -53.3049 -53.3049 -53.2452 -53.2452
   -53.1103 -53.1103 -53.1047 -53.1047 -53.0584 -53.0584 -53.0303 -53.0303
   -53.0274 -53.0274 -53.0249 -53.0249 -53.0061 -53.0061 -52.9891 -52.9891
   -52.9796 -52.9796 -52.9779 -52.9779 -52.9764 -52.9764 -52.9676 -52.9676
   -52.9664 -52.9664 -52.9637 -52.9637 -52.9606 -52.9606 -52.9571 -52.9571
   -52.9524 -52.9524 -52.9514 -52.9514 -52.9504 -52.9504 -52.9448 -52.9448
   -52.9424 -52.9424 -52.9326 -52.9326 -52.9281 -52.9281 -52.9210 -52.9210
   -52.9177 -52.9177 -52.9115 -52.9115 -52.9082 -52.9082 -52.9042 -52.9042
   -52.9023 -52.9023 -52.9006 -52.9006 -52.9001 -52.9001 -52.8892 -52.8892
   -52.8805 -52.8805 -52.8794 -52.8794 -52.8737 -52.8737 -52.8722 -52.8722
   -52.8700 -52.8700 -52.8685 -52.8685 -52.8636 -52.8636 -52.8624 -52.8624
   -52.8615 -52.8615 -52.8535 -52.8535 -52.8469 -52.8469 -52.8409 -52.8409
   -52.8369 -52.8369 -52.8352 -52.8352 -52.8333 -52.8333 -52.8178 -52.8178
   -52.8170 -52.8170 -52.8158 -52.8158 -52.8020 -52.8020 -52.8003 -52.8003
   -52.7955 -52.7955 -52.7832 -52.7832 -52.7826 -52.7826 -52.7822 -52.7822
   -52.7817 -52.7817 -52.7736 -52.7736 -52.7701 -52.7701 -52.7632 -52.7632
   -52.7616 -52.7616 -52.7573 -52.7573 -52.7559 -52.7559 -52.7519 -52.7519
   -52.7445 -52.7445 -52.7386 -52.7386 -52.7363 -52.7363 -52.7356 -52.7356
   -52.7350 -52.7350 -52.7336 -52.7336 -52.7323 -52.7323 -52.7298 -52.7298
   -52.7293 -52.7293 -52.7283 -52.7283 -52.7275 -52.7275 -52.7262 -52.7262
   -52.7174 -52.7174 -52.7161 -52.7161 -52.7138 -52.7138 -52.7115 -52.7115
   -52.7073 -52.7073 -52.6996 -52.6996 -52.6984 -52.6984 -52.6953 -52.6953
   -52.6894 -52.6894 -52.6881 -52.6881 -52.6848 -52.6848 -52.6758 -52.6758
   -52.6705 -52.6705 -52.6695 -52.6695 -52.6681 -52.6681 -52.6674 -52.6674
   -52.6585 -52.6585 -52.6572 -52.6572 -52.6545 -52.6545 -52.6536 -52.6536
   -52.6482 -52.6482 -52.6454 -52.6454 -52.6436 -52.6436 -52.6422 -52.6422
   -52.6416 -52.6416 -52.6403 -52.6403 -52.6382 -52.6382 -52.6369 -52.6369
   -52.6336 -52.6336 -52.6330 -52.6330 -52.6322 -52.6322 -52.6296 -52.6296
   -52.6271 -52.6271 -52.6258 -52.6258 -52.6248 -52.6248 -52.6222 -52.6222
   -52.6174 -52.6174 -52.6165 -52.6165 -52.6153 -52.6153 -52.6100 -52.6100
   -52.6068 -52.6068 -52.6008 -52.6008 -52.5993 -52.5993 -52.5989 -52.5989
   -52.5978 -52.5978 -52.5961 -52.5961 -52.5885 -52.5885 -52.5827 -52.5827
   -52.5792 -52.5792 -52.5723 -52.5723 -52.5685 -52.5685 -52.5652 -52.5652
   -52.5610 -52.5610 -52.5592 -52.5592 -52.5576 -52.5576 -52.5566 -52.5566
   -52.5560 -52.5560 -52.5501 -52.5501 -52.5483 -52.5483 -52.5444 -52.5444
   -52.5430 -52.5430 -52.5412 -52.5412 -52.5392 -52.5392 -52.5363 -52.5363
   -52.5302 -52.5302 -52.5216 -52.5216 -52.5207 -52.5207 -52.5195 -52.5195
   -52.5183 -52.5183 -52.5139 -52.5139 -52.5061 -52.5061 -52.5042 -52.5042
   -52.5032 -52.5032 -52.4973 -52.4973 -52.4869 -52.4869 -52.4812 -52.4812
   -52.4433 -52.4433 -52.4424 -52.4424 -52.4414 -52.4414 -52.4395 -52.4395
   -52.4392 -52.4392 -52.4370 -52.4370 -52.4266 -52.4266 -52.4201 -52.4201
   -52.3772 -52.3772 -52.3154 -52.3154 -20.3423 -20.3423 -20.2938 -20.2938
   -20.0959 -20.0959 -20.0362 -20.0362 -20.0083 -20.0083 -20.0028 -20.0028
   -19.9743 -19.9743 -19.9506 -19.9506 -19.8396 -19.8396 -19.8088 -19.8088
   -19.7948 -19.7948 -19.7317 -19.7317 -19.3790 -19.3790 -19.3377 -19.3377
   -19.2110 -19.2110 -19.1767 -19.1767 -19.1126 -19.1126 -19.1079 -19.1079
   -19.0869 -19.0869 -19.0128 -19.0128 -18.9773 -18.9773 -18.9458 -18.9458
   -18.9106 -18.9106 -18.8345 -18.8345 -17.7231 -17.7231 -17.6831 -17.6831
   -17.6480 -17.6480 -17.6265 -17.6265 -17.5896 -17.5896 -17.5823 -17.5823
   -17.5721 -17.5721 -17.5544 -17.5544 -17.5433 -17.5433 -17.5329 -17.5329
   -17.5175 -17.5175 -17.4937 -17.4937 -17.4698 -17.4698 -17.4146 -17.4146
   -16.1838 -16.1838 -16.1434 -16.1434 -16.1003 -16.1003 -16.0801 -16.0801
   -15.9791 -15.9791 -15.9222 -15.9222 -15.9167 -15.9167 -15.8994 -15.8994
   -15.8945 -15.8945 -15.8567 -15.8567 -15.6287 -15.6287 -15.6110 -15.6110
   -15.4936 -15.4936 -15.4493 -15.4493 -15.2466 -15.2466 -15.1751 -15.1751
   -15.0966 -15.0966 -14.6039 -14.6039 -14.1228 -14.1228 -13.3657 -13.3657
   -13.3515 -13.3515 -13.3191 -13.3191 -10.4832 -10.4832 -10.4453 -10.4453
   -10.3535 -10.3535 -10.2695 -10.2695 -10.2051 -10.2051 -10.0038 -10.0038
    -9.9918  -9.9918  -9.9286  -9.9286  -9.8960  -9.8960  -9.8426  -9.8426
    -9.8174  -9.8174  -9.7675  -9.7675  -9.7475  -9.7475  -9.7253  -9.7253
    -9.7212  -9.7212  -9.6979  -9.6979  -9.6719  -9.6719  -9.6556  -9.6556
    -9.6324  -9.6324  -9.6101  -9.6101  -9.5903  -9.5903  -9.5623  -9.5623
    -9.4756  -9.4756  -9.4460  -9.4460  -9.4230  -9.4230  -9.4037  -9.4037
    -9.3827  -9.3827  -9.3622  -9.3622  -9.3443  -9.3443  -9.3046  -9.3046
    -9.1346  -9.1346  -9.0626  -9.0626  -9.0367  -9.0367  -8.9918  -8.9918
    -8.9139  -8.9139  -8.8323  -8.8323  -8.7576  -8.7576  -8.7177  -8.7177
    -8.6958  -8.6958  -8.6711  -8.6711  -8.3410  -8.3410  -8.3284  -8.3284
    -8.2886  -8.2886  -8.2557  -8.2557  -8.2253  -8.2253  -8.2061  -8.2061
    -8.1792  -8.1792  -8.1498  -8.1498  -8.1371  -8.1371  -8.1129  -8.1129
    -8.0796  -8.0796  -8.0650  -8.0650  -8.0137  -8.0137  -7.9751  -7.9751
    -7.5693  -7.5693  -7.5409  -7.5409  -7.4653  -7.4653  -7.3855  -7.3855
    -7.2673  -7.2673  -7.2379  -7.2379  -7.1825  -7.1825  -7.1453  -7.1453
    -7.0968  -7.0968  -7.0479  -7.0479  -6.9002  -6.9002  -6.7757  -6.7757
    -6.7625  -6.7625  -6.7262  -6.7262  -6.7007  -6.7007  -6.6583  -6.6583
    -6.6398  -6.6398  -6.5846  -6.5846  -6.5338  -6.5338  -6.4870  -6.4870
    -6.4726  -6.4726  -6.4386  -6.4386  -6.4189  -6.4189  -6.3876  -6.3876
    -6.3571  -6.3571  -6.3381  -6.3381  -6.2998  -6.2998  -6.2679  -6.2679
    -6.2209  -6.2209  -6.1689  -6.1689  -6.1297  -6.1297  -6.1005  -6.1005
    -6.0499  -6.0499  -6.0167  -6.0167  -5.9403  -5.9403  -5.9051  -5.9051
    -5.8723  -5.8723  -5.8287  -5.8287  -5.8113  -5.8113  -5.7502  -5.7502
    -5.7111  -5.7111  -5.6809  -5.6809  -5.6578  -5.6578  -5.6459  -5.6459
    -5.6013  -5.6013  -5.5521  -5.5521  -5.5236  -5.5236  -5.4740  -5.4740
    -5.4311  -5.4311  -5.3857  -5.3857  -5.3039  -5.3039  -5.2505  -5.2505
    -5.1393  -5.1393  -5.0750  -5.0750  -4.5670  -4.5670  -3.7839  -3.7839
    -3.7267  -3.7267  -3.5958  -3.5958  -3.4643  -3.4643  -3.4302  -3.4302
    -3.3955  -3.3955  -3.3435  -3.3435  -3.3111  -3.3111  -3.2824  -3.2824
    -3.2481  -3.2481  -3.2139  -3.2139  -3.1905  -3.1905  -3.1605  -3.1605
    -3.1271  -3.1271  -3.1110  -3.1110  -3.0937  -3.0937  -3.0324  -3.0324
    -2.9187  -2.9187  -2.8264  -2.8264  -2.7823  -2.7823  -2.7446  -2.7446
    -2.7155  -2.7155  -2.6961  -2.6961  -2.6782  -2.6782  -2.6432  -2.6432
    -2.6160  -2.6160  -2.5982  -2.5982  -2.5682  -2.5682  -2.5462  -2.5462
    -2.5191  -2.5191  -2.4954  -2.4954  -2.4763  -2.4763  -2.4560  -2.4560
    -2.3818  -2.3818  -2.3667  -2.3667  -2.3218  -2.3218  -2.3086  -2.3086
    -2.2816  -2.2816  -2.2658  -2.2658  -2.2224  -2.2224  -2.2031  -2.2031
    -2.1906  -2.1906  -2.1068  -2.1068  -2.0271  -2.0271  -1.8778  -1.8778
    -1.8358  -1.8358  -1.8160  -1.8160  -1.8025  -1.8025  -1.7307  -1.7307
    -1.6953  -1.6953  -1.6204  -1.6204  -1.6021  -1.6021  -1.5569  -1.5569
    -1.5046  -1.5046  -0.2735  -0.2735   0.1924   0.1924   0.8175   0.8175
     0.8812   0.8812   0.9618   0.9618   0.9909   0.9909   1.0098   1.0098
     1.0211   1.0211   1.0535   1.0535   1.1211   1.1211   1.1618   1.1618
     1.2194   1.2194   1.2807   1.2807   1.3322   1.3322   1.3552   1.3552
     1.3766   1.3766   1.4112   1.4112   1.4513   1.4513   1.5279   1.5279
     1.5629   1.5629   1.6121   1.6122   1.6632   1.6632   1.6998   1.6998
     1.7276   1.7276   1.7971   1.7971   1.8248   1.8248   1.8796   1.8796
     1.9540   1.9540   2.0140   2.0140   2.0682   2.0683   2.1276   2.1276
     2.1823   2.1824   2.2417   2.2418   2.3182   2.3187   2.3318   2.3332

          k =-0.5000 0.0000 0.0000 (182896 PWs)   bands (ev):

  -160.9085-160.9085-117.7440-117.7440 -64.7368 -64.7368 -64.7221 -64.7221
   -53.9626 -53.9626 -53.9607 -53.9607 -53.9080 -53.9080 -53.8892 -53.8892
   -53.8837 -53.8837 -53.8784 -53.8784 -53.8577 -53.8577 -53.8391 -53.8391
   -53.8335 -53.8335 -53.8290 -53.8290 -53.8229 -53.8229 -53.8185 -53.8185
   -53.8176 -53.8176 -53.8138 -53.8138 -53.8124 -53.8124 -53.8059 -53.8059
   -53.8054 -53.8054 -53.8037 -53.8037 -53.8024 -53.8024 -53.7995 -53.7995
   -53.7983 -53.7983 -53.7867 -53.7867 -53.7814 -53.7814 -53.7768 -53.7768
   -53.7710 -53.7710 -53.7638 -53.7638 -53.7591 -53.7591 -53.7583 -53.7583
   -53.7544 -53.7544 -53.7530 -53.7530 -53.7345 -53.7345 -53.7328 -53.7328
   -53.7319 -53.7319 -53.7311 -53.7311 -53.7271 -53.7271 -53.7243 -53.7243
   -53.7214 -53.7214 -53.7201 -53.7201 -53.7191 -53.7191 -53.7141 -53.7141
   -53.7111 -53.7111 -53.7047 -53.7047 -53.7022 -53.7022 -53.6987 -53.6987
   -53.6852 -53.6852 -53.6776 -53.6776 -53.6720 -53.6720 -53.6524 -53.6524
   -53.6471 -53.6471 -53.6452 -53.6452 -53.6400 -53.6400 -53.6388 -53.6388
   -53.6313 -53.6313 -53.6301 -53.6301 -53.6226 -53.6226 -53.6171 -53.6171
   -53.6156 -53.6156 -53.6143 -53.6143 -53.5960 -53.5960 -53.5828 -53.5828
   -53.5806 -53.5806 -53.5758 -53.5758 -53.5638 -53.5638 -53.5579 -53.5579
   -53.5543 -53.5543 -53.5529 -53.5529 -53.5490 -53.5490 -53.5482 -53.5482
   -53.5444 -53.5444 -53.5435 -53.5435 -53.5420 -53.5420 -53.5382 -53.5382
   -53.5277 -53.5277 -53.5267 -53.5267 -53.5251 -53.5251 -53.5233 -53.5233
   -53.5219 -53.5219 -53.5110 -53.5110 -53.5085 -53.5085 -53.5017 -53.5017
   -53.4958 -53.4958 -53.4944 -53.4944 -53.4840 -53.4840 -53.4773 -53.4773
   -53.4750 -53.4750 -53.4668 -53.4668 -53.4640 -53.4640 -53.4620 -53.4620
   -53.4564 -53.4564 -53.4500 -53.4500 -53.4478 -53.4478 -53.4470 -53.4470
   -53.4460 -53.4460 -53.4413 -53.4413 -53.4334 -53.4334 -53.4313 -53.4313
   -53.4291 -53.4291 -53.4111 -53.4111 -53.4069 -53.4069 -53.3706 -53.3706
   -53.3690 -53.3690 -53.3673 -53.3673 -53.3658 -53.3658 -53.3645 -53.3645
   -53.3541 -53.3541 -53.3474 -53.3474 -53.3050 -53.3050 -53.2452 -53.2452
   -53.1109 -53.1109 -53.1052 -53.1052 -53.0583 -53.0583 -53.0304 -53.0304
   -53.0280 -53.0280 -53.0252 -53.0252 -53.0066 -53.0066 -52.9895 -52.9895
   -52.9800 -52.9800 -52.9784 -52.9784 -52.9764 -52.9764 -52.9675 -52.9675
   -52.9664 -52.9664 -52.9645 -52.9645 -52.9602 -52.9602 -52.9567 -52.9567
   -52.9530 -52.9530 -52.9515 -52.9515 -52.9503 -52.9503 -52.9454 -52.9454
   -52.9427 -52.9427 -52.9329 -52.9329 -52.9279 -52.9279 -52.9215 -52.9215
   -52.9174 -52.9174 -52.9119 -52.9119 -52.9083 -52.9083 -52.9041 -52.9041
   -52.9022 -52.9022 -52.9009 -52.9009 -52.8998 -52.8998 -52.8890 -52.8890
   -52.8803 -52.8803 -52.8792 -52.8792 -52.8739 -52.8739 -52.8725 -52.8725
   -52.8693 -52.8693 -52.8679 -52.8679 -52.8641 -52.8641 -52.8631 -52.8631
   -52.8614 -52.8614 -52.8537 -52.8537 -52.8473 -52.8473 -52.8413 -52.8413
   -52.8368 -52.8368 -52.8349 -52.8349 -52.8341 -52.8341 -52.8182 -52.8182
   -52.8177 -52.8177 -52.8155 -52.8155 -52.8020 -52.8020 -52.8004 -52.8004
   -52.7958 -52.7958 -52.7835 -52.7835 -52.7828 -52.7828 -52.7823 -52.7823
   -52.7819 -52.7819 -52.7741 -52.7741 -52.7707 -52.7707 -52.7630 -52.7630
   -52.7612 -52.7612 -52.7575 -52.7575 -52.7555 -52.7555 -52.7517 -52.7517
   -52.7440 -52.7440 -52.7387 -52.7387 -52.7365 -52.7365 -52.7360 -52.7360
   -52.7344 -52.7344 -52.7340 -52.7340 -52.7319 -52.7319 -52.7309 -52.7309
   -52.7297 -52.7297 -52.7288 -52.7288 -52.7278 -52.7278 -52.7262 -52.7262
   -52.7183 -52.7183 -52.7171 -52.7171 -52.7138 -52.7138 -52.7128 -52.7128
   -52.7078 -52.7078 -52.7001 -52.7001 -52.6985 -52.6985 -52.6955 -52.6955
   -52.6894 -52.6894 -52.6882 -52.6882 -52.6858 -52.6858 -52.6761 -52.6761
   -52.6708 -52.6708 -52.6698 -52.6698 -52.6687 -52.6687 -52.6680 -52.6680
   -52.6588 -52.6588 -52.6572 -52.6572 -52.6547 -52.6547 -52.6544 -52.6544
   -52.6489 -52.6489 -52.6464 -52.6464 -52.6436 -52.6436 -52.6428 -52.6428
   -52.6417 -52.6417 -52.6403 -52.6403 -52.6379 -52.6379 -52.6367 -52.6367
   -52.6344 -52.6344 -52.6325 -52.6325 -52.6317 -52.6317 -52.6300 -52.6300
   -52.6272 -52.6272 -52.6256 -52.6256 -52.6248 -52.6248 -52.6219 -52.6219
   -52.6180 -52.6180 -52.6164 -52.6164 -52.6152 -52.6152 -52.6105 -52.6105
   -52.6074 -52.6074 -52.6008 -52.6008 -52.5996 -52.5996 -52.5990 -52.5990
   -52.5985 -52.5985 -52.5970 -52.5970 -52.5887 -52.5887 -52.5830 -52.5830
   -52.5794 -52.5794 -52.5725 -52.5725 -52.5694 -52.5694 -52.5649 -52.5649
   -52.5608 -52.5608 -52.5591 -52.5591 -52.5570 -52.5570 -52.5564 -52.5564
   -52.5562 -52.5562 -52.5510 -52.5510 -52.5486 -52.5486 -52.5450 -52.5450
   -52.5431 -52.5431 -52.5416 -52.5416 -52.5392 -52.5392 -52.5367 -52.5367
   -52.5306 -52.5306 -52.5224 -52.5224 -52.5212 -52.5212 -52.5195 -52.5195
   -52.5183 -52.5183 -52.5139 -52.5139 -52.5063 -52.5063 -52.5045 -52.5045
   -52.5033 -52.5033 -52.4971 -52.4971 -52.4872 -52.4872 -52.4816 -52.4816
   -52.4433 -52.4433 -52.4429 -52.4429 -52.4420 -52.4420 -52.4400 -52.4400
   -52.4387 -52.4387 -52.4375 -52.4375 -52.4268 -52.4268 -52.4201 -52.4201
   -52.3776 -52.3776 -52.3153 -52.3153 -20.4092 -20.4092 -20.2905 -20.2905
   -20.0771 -20.0771 -20.0340 -20.0340 -19.9652 -19.9652 -19.9383 -19.9383
   -19.9055 -19.9055 -19.8791 -19.8791 -19.8070 -19.8070 -19.7985 -19.7985
   -19.6360 -19.6360 -19.6085 -19.6085 -19.5812 -19.5812 -19.5674 -19.5674
   -19.5163 -19.5163 -19.4921 -19.4921 -19.4678 -19.4678 -19.4102 -19.4102
   -18.5796 -18.5796 -18.5239 -18.5239 -18.4622 -18.4622 -18.4558 -18.4558
   -18.4007 -18.4007 -18.3632 -18.3632 -18.3465 -18.3465 -18.3332 -18.3332
   -18.2926 -18.2926 -18.2859 -18.2859 -18.2479 -18.2479 -18.2108 -18.2108
   -17.5906 -17.5906 -17.5555 -17.5555 -17.0609 -17.0609 -17.0196 -17.0196
   -16.9593 -16.9593 -16.8656 -16.8656 -16.7769 -16.7769 -16.7113 -16.7113
   -16.5971 -16.5971 -16.5616 -16.5616 -16.5389 -16.5389 -16.5061 -16.5061
   -16.4481 -16.4481 -16.4364 -16.4364 -15.7322 -15.7322 -15.6591 -15.6591
   -15.6194 -15.6194 -15.5941 -15.5941 -15.5356 -15.5356 -15.5004 -15.5004
   -15.4927 -15.4927 -15.4261 -15.4261 -15.1231 -15.1231 -15.0578 -15.0578
   -14.9930 -14.9930 -14.9620 -14.9620 -14.1211 -14.1211 -13.3658 -13.3658
   -13.3519 -13.3519 -13.3194 -13.3194 -10.3451 -10.3451 -10.3177 -10.3177
   -10.2847 -10.2847 -10.2703 -10.2703 -10.2095 -10.2095 -10.1321 -10.1321
   -10.1138 -10.1138 -10.0703 -10.0703  -9.9231  -9.9231  -9.8658  -9.8658
    -9.8247  -9.8247  -9.7988  -9.7988  -9.7741  -9.7741  -9.7490  -9.7490
    -9.7261  -9.7261  -9.6713  -9.6713  -9.6546  -9.6546  -9.6459  -9.6459
    -9.6025  -9.6025  -9.5843  -9.5843  -9.5725  -9.5725  -9.5489  -9.5489
    -9.5119  -9.5119  -9.4997  -9.4997  -9.4876  -9.4876  -9.4699  -9.4699
    -9.4317  -9.4317  -9.3952  -9.3952  -9.2100  -9.2100  -9.0944  -9.0944
    -9.0502  -9.0502  -9.0227  -9.0227  -8.9868  -8.9868  -8.9013  -8.9013
    -8.8126  -8.8126  -8.7663  -8.7663  -8.7471  -8.7471  -8.6945  -8.6945
    -8.6585  -8.6585  -8.6290  -8.6290  -8.5924  -8.5924  -8.5610  -8.5610
    -8.5396  -8.5396  -8.4884  -8.4884  -8.2494  -8.2494  -8.2124  -8.2124
    -8.1826  -8.1826  -8.1589  -8.1589  -8.1336  -8.1336  -8.1008  -8.1008
    -8.0591  -8.0591  -8.0478  -8.0478  -7.9985  -7.9985  -7.9524  -7.9524
    -7.6381  -7.6381  -7.5701  -7.5701  -7.3773  -7.3773  -7.3442  -7.3442
    -7.1761  -7.1761  -7.0094  -7.0094  -6.9885  -6.9885  -6.9387  -6.9387
    -6.9100  -6.9100  -6.8680  -6.8680  -6.8437  -6.8437  -6.8067  -6.8067
    -6.7661  -6.7661  -6.7239  -6.7239  -6.6871  -6.6871  -6.6523  -6.6523
    -6.6234  -6.6234  -6.5909  -6.5909  -6.5761  -6.5761  -6.5486  -6.5486
    -6.5182  -6.5182  -6.5054  -6.5054  -6.4561  -6.4561  -6.3915  -6.3915
    -6.3697  -6.3697  -6.3121  -6.3121  -6.2846  -6.2846  -6.2520  -6.2520
    -6.2307  -6.2307  -6.1989  -6.1989  -6.1655  -6.1655  -6.1466  -6.1466
    -6.1195  -6.1195  -6.0734  -6.0734  -6.0516  -6.0516  -6.0283  -6.0283
    -5.9741  -5.9741  -5.9628  -5.9628  -5.9253  -5.9253  -5.8708  -5.8708
    -5.8056  -5.8056  -5.7555  -5.7555  -5.7221  -5.7221  -5.6723  -5.6723
    -5.5471  -5.5471  -5.4709  -5.4709  -5.4326  -5.4326  -5.3746  -5.3746
    -5.3398  -5.3398  -5.2862  -5.2862  -5.2613  -5.2613  -5.1988  -5.1988
    -5.1797  -5.1797  -5.0963  -5.0963  -4.5518  -4.5518  -3.6538  -3.6538
    -3.5254  -3.5254  -3.4989  -3.4989  -3.4632  -3.4632  -3.4232  -3.4232
    -3.3414  -3.3414  -3.3259  -3.3259  -3.2893  -3.2893  -3.2599  -3.2599
    -3.2266  -3.2266  -3.1949  -3.1949  -3.1670  -3.1670  -3.1286  -3.1286
    -3.0786  -3.0786  -3.0578  -3.0578  -3.0291  -3.0291  -3.0021  -3.0021
    -2.9763  -2.9763  -2.9551  -2.9551  -2.9267  -2.9267  -2.8777  -2.8777
    -2.8500  -2.8500  -2.8168  -2.8168  -2.8054  -2.8054  -2.7795  -2.7795
    -2.7343  -2.7343  -2.6668  -2.6668  -2.6151  -2.6151  -2.4992  -2.4992
    -2.3927  -2.3927  -2.3737  -2.3737  -2.3557  -2.3557  -2.3445  -2.3445
    -2.3319  -2.3319  -2.3171  -2.3171  -2.2980  -2.2980  -2.2738  -2.2738
    -2.2545  -2.2545  -2.2312  -2.2312  -2.2201  -2.2201  -2.1834  -2.1834
    -2.1545  -2.1545  -2.1079  -2.1079  -2.0704  -2.0704  -2.0364  -2.0364
    -1.9863  -1.9863  -1.8962  -1.8962  -1.8656  -1.8656  -1.8416  -1.8416
    -1.8015  -1.8015  -1.6973  -1.6973  -1.5763  -1.5763  -1.3609  -1.3609
    -1.3296  -1.3296  -0.2794  -0.2794   0.2304   0.2304   0.6022   0.6022
     0.7248   0.7248   0.7504   0.7504   0.7989   0.7989   0.8378   0.8378
     0.9004   0.9004   1.2872   1.2872   1.3163   1.3163   1.3320   1.3320
     1.3693   1.3693   1.4003   1.4003   1.4177   1.4177   1.4502   1.4502
     1.4892   1.4892   1.5398   1.5398   1.5689   1.5689   1.5923   1.5923
     1.6157   1.6157   1.6928   1.6928   1.7167   1.7167   1.7465   1.7465
     1.7683   1.7683   1.7953   1.7953   1.8187   1.8187   1.8348   1.8348
     1.8603   1.8603   1.9037   1.9037   1.9790   1.9790   1.9922   1.9922
     2.0546   2.0546   2.1400   2.1400   2.1802   2.1802   2.2844   2.2846

          k =-0.5000-0.4311 0.0000 (182904 PWs)   bands (ev):

  -160.9085-160.9085-117.7440-117.7440 -64.7368 -64.7368 -64.7221 -64.7221
   -53.9628 -53.9628 -53.9608 -53.9608 -53.9082 -53.9082 -53.8894 -53.8894
   -53.8839 -53.8839 -53.8785 -53.8785 -53.8577 -53.8577 -53.8391 -53.8391
   -53.8337 -53.8337 -53.8292 -53.8292 -53.8225 -53.8225 -53.8190 -53.8190
   -53.8180 -53.8180 -53.8137 -53.8137 -53.8125 -53.8125 -53.8062 -53.8062
   -53.8053 -53.8053 -53.8043 -53.8043 -53.8024 -53.8024 -53.7999 -53.7999
   -53.7988 -53.7988 -53.7859 -53.7859 -53.7830 -53.7830 -53.7771 -53.7771
   -53.7709 -53.7709 -53.7641 -53.7641 -53.7597 -53.7597 -53.7587 -53.7587
   -53.7547 -53.7547 -53.7536 -53.7536 -53.7349 -53.7349 -53.7333 -53.7333
   -53.7322 -53.7322 -53.7311 -53.7311 -53.7273 -53.7273 -53.7238 -53.7238
   -53.7213 -53.7213 -53.7207 -53.7207 -53.7194 -53.7194 -53.7146 -53.7146
   -53.7120 -53.7120 -53.7050 -53.7050 -53.7024 -53.7024 -53.6993 -53.6993
   -53.6855 -53.6855 -53.6778 -53.6778 -53.6722 -53.6722 -53.6525 -53.6525
   -53.6469 -53.6469 -53.6453 -53.6453 -53.6401 -53.6401 -53.6393 -53.6393
   -53.6316 -53.6316 -53.6301 -53.6301 -53.6228 -53.6228 -53.6175 -53.6175
   -53.6160 -53.6160 -53.6147 -53.6147 -53.5959 -53.5959 -53.5828 -53.5828
   -53.5810 -53.5810 -53.5758 -53.5758 -53.5639 -53.5639 -53.5583 -53.5583
   -53.5544 -53.5544 -53.5531 -53.5531 -53.5484 -53.5484 -53.5474 -53.5474
   -53.5451 -53.5451 -53.5442 -53.5442 -53.5426 -53.5426 -53.5382 -53.5382
   -53.5276 -53.5276 -53.5267 -53.5267 -53.5251 -53.5251 -53.5231 -53.5231
   -53.5220 -53.5220 -53.5110 -53.5110 -53.5085 -53.5085 -53.5020 -53.5020
   -53.4961 -53.4961 -53.4942 -53.4942 -53.4840 -53.4840 -53.4771 -53.4771
   -53.4751 -53.4751 -53.4668 -53.4668 -53.4637 -53.4637 -53.4619 -53.4619
   -53.4565 -53.4565 -53.4493 -53.4493 -53.4478 -53.4478 -53.4467 -53.4467
   -53.4461 -53.4461 -53.4420 -53.4420 -53.4334 -53.4334 -53.4316 -53.4316
   -53.4293 -53.4293 -53.4113 -53.4113 -53.4069 -53.4069 -53.3708 -53.3708
   -53.3689 -53.3689 -53.3675 -53.3675 -53.3658 -53.3658 -53.3647 -53.3647
   -53.3542 -53.3542 -53.3476 -53.3476 -53.3051 -53.3051 -53.2453 -53.2453
   -53.1110 -53.1110 -53.1054 -53.1054 -53.0586 -53.0586 -53.0306 -53.0306
   -53.0283 -53.0283 -53.0251 -53.0251 -53.0067 -53.0067 -52.9897 -52.9897
   -52.9802 -52.9802 -52.9785 -52.9785 -52.9765 -52.9765 -52.9675 -52.9675
   -52.9671 -52.9671 -52.9643 -52.9643 -52.9603 -52.9603 -52.9571 -52.9571
   -52.9527 -52.9527 -52.9522 -52.9522 -52.9506 -52.9506 -52.9456 -52.9456
   -52.9430 -52.9430 -52.9320 -52.9320 -52.9291 -52.9291 -52.9213 -52.9213
   -52.9179 -52.9179 -52.9122 -52.9122 -52.9086 -52.9086 -52.9042 -52.9042
   -52.9029 -52.9029 -52.9012 -52.9012 -52.9000 -52.9000 -52.8895 -52.8895
   -52.8806 -52.8806 -52.8797 -52.8797 -52.8743 -52.8743 -52.8724 -52.8724
   -52.8698 -52.8698 -52.8684 -52.8684 -52.8640 -52.8640 -52.8630 -52.8630
   -52.8620 -52.8620 -52.8543 -52.8543 -52.8475 -52.8475 -52.8417 -52.8417
   -52.8369 -52.8369 -52.8352 -52.8352 -52.8342 -52.8342 -52.8185 -52.8185
   -52.8176 -52.8176 -52.8159 -52.8159 -52.8021 -52.8021 -52.8004 -52.8004
   -52.7959 -52.7959 -52.7838 -52.7838 -52.7832 -52.7832 -52.7824 -52.7824
   -52.7819 -52.7819 -52.7744 -52.7744 -52.7708 -52.7708 -52.7635 -52.7635
   -52.7616 -52.7616 -52.7579 -52.7579 -52.7560 -52.7560 -52.7520 -52.7520
   -52.7445 -52.7445 -52.7392 -52.7392 -52.7361 -52.7361 -52.7355 -52.7355
   -52.7347 -52.7347 -52.7339 -52.7339 -52.7325 -52.7325 -52.7315 -52.7315
   -52.7305 -52.7305 -52.7290 -52.7290 -52.7285 -52.7285 -52.7262 -52.7262
   -52.7183 -52.7183 -52.7169 -52.7169 -52.7140 -52.7140 -52.7127 -52.7127
   -52.7075 -52.7075 -52.7004 -52.7004 -52.6986 -52.6986 -52.6957 -52.6957
   -52.6897 -52.6897 -52.6887 -52.6887 -52.6856 -52.6856 -52.6759 -52.6759
   -52.6711 -52.6711 -52.6699 -52.6699 -52.6690 -52.6690 -52.6682 -52.6682
   -52.6587 -52.6587 -52.6571 -52.6571 -52.6548 -52.6548 -52.6543 -52.6543
   -52.6491 -52.6491 -52.6462 -52.6462 -52.6434 -52.6434 -52.6429 -52.6429
   -52.6418 -52.6418 -52.6402 -52.6402 -52.6381 -52.6381 -52.6369 -52.6369
   -52.6346 -52.6346 -52.6329 -52.6329 -52.6319 -52.6319 -52.6297 -52.6297
   -52.6269 -52.6269 -52.6256 -52.6256 -52.6247 -52.6247 -52.6226 -52.6226
   -52.6182 -52.6182 -52.6167 -52.6167 -52.6154 -52.6154 -52.6104 -52.6104
   -52.6071 -52.6071 -52.6011 -52.6011 -52.5999 -52.5999 -52.5991 -52.5991
   -52.5979 -52.5979 -52.5969 -52.5969 -52.5886 -52.5886 -52.5831 -52.5831
   -52.5794 -52.5794 -52.5726 -52.5726 -52.5693 -52.5693 -52.5652 -52.5652
   -52.5611 -52.5611 -52.5592 -52.5592 -52.5575 -52.5575 -52.5568 -52.5568
   -52.5560 -52.5560 -52.5503 -52.5503 -52.5490 -52.5490 -52.5442 -52.5442
   -52.5438 -52.5438 -52.5422 -52.5422 -52.5394 -52.5394 -52.5362 -52.5362
   -52.5307 -52.5307 -52.5214 -52.5214 -52.5209 -52.5209 -52.5191 -52.5191
   -52.5183 -52.5183 -52.5144 -52.5144 -52.5060 -52.5060 -52.5045 -52.5045
   -52.5035 -52.5035 -52.4974 -52.4974 -52.4872 -52.4872 -52.4816 -52.4816
   -52.4435 -52.4435 -52.4426 -52.4426 -52.4419 -52.4419 -52.4399 -52.4399
   -52.4391 -52.4391 -52.4375 -52.4375 -52.4267 -52.4267 -52.4202 -52.4202
   -52.3776 -52.3776 -52.3154 -52.3154 -20.3147 -20.3147 -20.2558 -20.2558
   -20.1781 -20.1781 -20.1578 -20.1578 -19.9750 -19.9750 -19.9458 -19.9458
   -19.9312 -19.9312 -19.9050 -19.9050 -19.8586 -19.8586 -19.8214 -19.8214
   -19.8053 -19.8053 -19.7263 -19.7263 -19.3609 -19.3609 -19.3077 -19.3077
   -19.2678 -19.2678 -19.2047 -19.2047 -19.1234 -19.1234 -19.0940 -19.0940
   -19.0389 -19.0389 -19.0184 -19.0184 -18.9978 -18.9978 -18.9670 -18.9670
   -18.8950 -18.8950 -18.8153 -18.8153 -17.7238 -17.7238 -17.6748 -17.6748
   -17.6508 -17.6508 -17.6257 -17.6257 -17.5936 -17.5936 -17.5723 -17.5723
   -17.5648 -17.5648 -17.5594 -17.5594 -17.5480 -17.5480 -17.5367 -17.5367
   -17.5240 -17.5240 -17.5028 -17.5028 -17.4717 -17.4717 -17.4158 -17.4158
   -16.1718 -16.1718 -16.1253 -16.1253 -16.0678 -16.0678 -16.0570 -16.0570
   -16.0264 -16.0264 -15.9981 -15.9981 -15.9860 -15.9860 -15.9386 -15.9386
   -15.7577 -15.7577 -15.7400 -15.7400 -15.6725 -15.6725 -15.6614 -15.6614
   -15.4956 -15.4956 -15.4346 -15.4346 -15.3270 -15.3270 -15.2644 -15.2644
   -14.8372 -14.8372 -14.7078 -14.7078 -14.1267 -14.1267 -13.3659 -13.3659
   -13.3513 -13.3513 -13.3192 -13.3192 -10.5136 -10.5136 -10.4931 -10.4931
   -10.3770 -10.3770 -10.2935 -10.2935  -9.9889  -9.9889  -9.9632  -9.9632
    -9.9406  -9.9406  -9.9102  -9.9102  -9.8941  -9.8941  -9.8722  -9.8722
    -9.8341  -9.8341  -9.8141  -9.8141  -9.8020  -9.8020  -9.7806  -9.7806
    -9.7404  -9.7404  -9.7058  -9.7058  -9.6946  -9.6946  -9.6702  -9.6702
    -9.6454  -9.6454  -9.6217  -9.6217  -9.6048  -9.6048  -9.5696  -9.5696
    -9.4350  -9.4350  -9.3771  -9.3771  -9.3469  -9.3469  -9.3165  -9.3165
    -9.2928  -9.2928  -9.2785  -9.2785  -9.2320  -9.2320  -9.1821  -9.1821
    -9.1551  -9.1551  -9.1180  -9.1180  -9.0830  -9.0830  -9.0696  -9.0696
    -9.0410  -9.0410  -9.0134  -9.0134  -8.9510  -8.9510  -8.9183  -8.9183
    -8.6109  -8.6109  -8.4967  -8.4967  -8.4480  -8.4480  -8.3716  -8.3716
    -8.3103  -8.3103  -8.2849  -8.2849  -8.2458  -8.2458  -8.1967  -8.1967
    -8.1810  -8.1810  -8.1677  -8.1677  -8.1155  -8.1155  -8.0951  -8.0951
    -8.0610  -8.0610  -8.0392  -8.0392  -7.9802  -7.9802  -7.9671  -7.9671
    -7.5293  -7.5293  -7.4800  -7.4800  -7.4126  -7.4126  -7.3602  -7.3602
    -7.3040  -7.3040  -7.2830  -7.2830  -7.2088  -7.2088  -7.1760  -7.1760
    -7.0730  -7.0730  -7.0042  -7.0042  -6.9374  -6.9374  -6.8944  -6.8944
    -6.7409  -6.7409  -6.6872  -6.6872  -6.6511  -6.6511  -6.6249  -6.6249
    -6.5879  -6.5879  -6.5700  -6.5700  -6.5245  -6.5245  -6.4860  -6.4860
    -6.4445  -6.4445  -6.4167  -6.4167  -6.3772  -6.3772  -6.3540  -6.3540
    -6.3116  -6.3116  -6.2997  -6.2997  -6.2757  -6.2757  -6.2499  -6.2499
    -6.2002  -6.2002  -6.1705  -6.1705  -6.1357  -6.1357  -6.0936  -6.0936
    -6.0246  -6.0246  -6.0043  -6.0043  -5.9267  -5.9267  -5.8978  -5.8978
    -5.8619  -5.8619  -5.8325  -5.8325  -5.8208  -5.8208  -5.7969  -5.7969
    -5.7171  -5.7171  -5.6942  -5.6942  -5.6812  -5.6812  -5.6476  -5.6476
    -5.5968  -5.5968  -5.5865  -5.5865  -5.5567  -5.5567  -5.5042  -5.5042
    -5.4781  -5.4781  -5.4273  -5.4273  -5.3961  -5.3961  -5.3200  -5.3200
    -5.1102  -5.1102  -5.0768  -5.0768  -4.5366  -4.5366  -3.6724  -3.6724
    -3.5581  -3.5581  -3.5376  -3.5376  -3.4962  -3.4962  -3.4548  -3.4548
    -3.4171  -3.4171  -3.3761  -3.3761  -3.3115  -3.3115  -3.2755  -3.2755
    -3.2235  -3.2235  -3.1472  -3.1472  -3.1132  -3.1132  -3.0663  -3.0663
    -3.0333  -3.0333  -3.0190  -3.0190  -2.9881  -2.9881  -2.9625  -2.9625
    -2.9423  -2.9423  -2.9192  -2.9192  -2.8910  -2.8910  -2.8613  -2.8613
    -2.8469  -2.8469  -2.8159  -2.8159  -2.7926  -2.7926  -2.7654  -2.7654
    -2.7024  -2.7024  -2.6211  -2.6211  -2.5860  -2.5860  -2.5452  -2.5452
    -2.5088  -2.5088  -2.4496  -2.4496  -2.4033  -2.4033  -2.3761  -2.3761
    -2.3536  -2.3536  -2.3390  -2.3390  -2.3227  -2.3227  -2.2918  -2.2918
    -2.2698  -2.2698  -2.2561  -2.2561  -2.2226  -2.2226  -2.1942  -2.1942
    -2.1750  -2.1750  -2.1447  -2.1447  -2.0826  -2.0826  -2.0492  -2.0492
    -1.9747  -1.9747  -1.8821  -1.8821  -1.8174  -1.8174  -1.7495  -1.7495
    -1.7330  -1.7330  -1.5393  -1.5393  -1.5015  -1.5015  -1.4902  -1.4902
    -1.4606  -1.4606  -0.2801  -0.2801   0.2097   0.2097   0.8208   0.8208
     0.8609   0.8609   0.8683   0.8683   0.9373   0.9373   1.0482   1.0482
     1.0633   1.0633   1.0955   1.0955   1.1096   1.1096   1.1782   1.1782
     1.1999   1.1999   1.2222   1.2222   1.2588   1.2588   1.4079   1.4079
     1.4173   1.4173   1.4311   1.4311   1.4594   1.4594   1.4771   1.4771
     1.5195   1.5195   1.5545   1.5545   1.5945   1.5945   1.6286   1.6286
     1.7550   1.7550   1.8399   1.8399   1.8606   1.8606   1.8918   1.8918
     1.9367   1.9367   1.9904   1.9904   2.0401   2.0402   2.0733   2.0733
     2.1134   2.1135   2.1802   2.1802   2.2123   2.2124   2.2553   2.2554

     the Fermi energy is    -4.1480 ev

!    total energy              =  -13470.43026266 Ry
     estimated scf accuracy    <          7.3E-10 Ry
     smearing contrib. (-TS)   =      -0.00243346 Ry
     internal energy E=F+TS    =  -13470.42782919 Ry

     The total energy is F=E-TS. E is the sum of the following terms:
     one-electron contribution =  -62112.48837451 Ry
     hartree contribution      =   30770.63696463 Ry
     xc contribution           =   -2674.58020290 Ry
     ewald contribution        =   20546.00378359 Ry

     convergence has been achieved in  18 iterations

     Forces acting on atoms (cartesian axes, Ry/au):

     atom    1 type  1   force =    -0.00186735    0.00096827    0.00159361
     atom    2 type  1   force =    -0.00006531   -0.00001745    0.00018834
     atom    3 type  1   force =     0.00547796   -0.00141562   -0.00671257
     atom    4 type  1   force =     0.00046684    0.00009367   -0.00018840
     atom    5 type  1   force =     0.00045989    0.00005438    0.00213763
     atom    6 type  1   force =     0.00016437    0.00003828    0.00007214
     atom    7 type  1   force =    -0.00158412   -0.00249674    0.00066644
     atom    8 type  1   force =     0.00017346    0.00001445   -0.00041244
     atom    9 type  1   force =     0.00053096   -0.00077223    0.00091637
     atom   10 type  1   force =     0.00011666   -0.00009088    0.00010392
     atom   11 type  1   force =    -0.00050006    0.00083171    0.00179155
     atom   12 type  1   force =     0.00027833   -0.00036673    0.00043447
     atom   13 type  1   force =    -0.00474782    0.00279542   -0.00095526
     atom   14 type  1   force =    -0.00008158    0.00020561    0.00035028
     atom   15 type  1   force =     0.00162343   -0.00012984    0.00006897
     atom   16 type  1   force =     0.00004662   -0.00059757    0.00007071
     atom   17 type  1   force =    -0.00151601    0.00121436    0.00117672
     atom   18 type  1   force =     0.00010927   -0.00050129   -0.00019306
     atom   19 type  1   force =    -0.00261757   -0.00262052    0.00160668
     atom   20 type  1   force =    -0.00006798    0.00028202   -0.00025627
     atom   21 type  1   force =     0.00383983   -0.00288452   -0.00168558
     atom   22 type  1   force =     0.00045832   -0.00000566   -0.00016172
     atom   23 type  1   force =    -0.00070163    0.00100033    0.00142249
     atom   24 type  1   force =    -0.00032121   -0.00028108   -0.00034802
     atom   25 type  1   force =    -0.00145245   -0.00118106   -0.00206757
     atom   26 type  1   force =     0.00058486    0.00028557   -0.00041833
     atom   27 type  1   force =     0.00114017    0.00019230    0.00267718
     atom   28 type  1   force =     0.00051458   -0.00015083   -0.00007695
     atom   29 type  1   force =     0.00053388    0.00134715    0.00284313
     atom   30 type  1   force =    -0.00001909    0.00017399    0.00023270
     atom   31 type  1   force =    -0.00054152   -0.00124616    0.00231024
     atom   32 type  1   force =     0.00004061    0.00020075    0.00024612
     atom   33 type  1   force =     0.00054127   -0.00020021    0.00004935
     atom   34 type  1   force =    -0.00043031   -0.00036129    0.00059491
     atom   35 type  1   force =    -0.00159763   -0.00118002   -0.00175897
     atom   36 type  1   force =    -0.00018708   -0.00016944   -0.00021758
     atom   37 type  1   force =    -0.00638786    0.00086100   -0.00036632
     atom   38 type  1   force =     0.00000009    0.00027608   -0.00033723
     atom   39 type  1   force =     0.00460229    0.00244844   -0.00240187
     atom   40 type  1   force =     0.00009597   -0.00007061    0.00026276
     atom   41 type  1   force =    -0.00218990    0.00028138   -0.00228809
     atom   42 type  1   force =    -0.00030888    0.00030189   -0.00015413
     atom   43 type  1   force =     0.00088854   -0.00181980   -0.00218600
     atom   44 type  1   force =    -0.00040878   -0.00046412   -0.00032388
     atom   45 type  1   force =    -0.00045208   -0.00167571    0.00227098
     atom   46 type  1   force =     0.00016575    0.00025271   -0.00010664
     atom   47 type  1   force =    -0.00085110    0.00247484    0.00358001
     atom   48 type  1   force =     0.00014239    0.00027241   -0.00003789
     atom   49 type  1   force =     0.00066272    0.00106048    0.00382613
     atom   50 type  1   force =     0.00026080    0.00018069   -0.00010804
     atom   51 type  1   force =     0.00621400    0.00401510   -0.00615011
     atom   52 type  1   force =    -0.00026547    0.00054469   -0.00017065
     atom   53 type  1   force =    -0.00076635   -0.00208107   -0.00149032
     atom   54 type  1   force =    -0.00027037   -0.00003214    0.00007204
     atom   55 type  2   force =     0.00006564    0.00014461    0.00000801

     Total force =     0.002478     Total SCF correction =     0.000108

     BFGS Geometry Optimization
     Energy error            =      6.1E-06 Ry
     Gradient error          =      6.0E-04 Ry/Bohr

     number of scf cycles    =   1
     number of bfgs steps    =   0

     energy             new  =  -13470.4302626577 Ry

     new trust radius        =       0.0008182981 bohr
     new conv_thr            =       0.0000000010 Ry


ATOMIC_POSITIONS (angstrom)
Se               1.6508891315        1.6837469017        3.7833800375    0   0   0
Se               3.7825392308        1.5953181591        7.4365670100
Se               3.1642919993        3.3592241142        2.8896998588    0   0   0
Se               0.9655647367        3.3745718179        6.6100434660
Se               1.7096930034        0.0137894932        2.0725911422    0   0   0
Se               3.7596637878       -0.0588514803        5.6993700359
Se               6.0005782781        1.6837487630        3.7833778388    0   0   0
Se               8.2816386494        1.6506179770        7.4416336825
Se               7.5139785082        3.3592256570        2.8896932891    0   0   0
Se               5.2216161030        3.3022053584        6.6245047973
Se               6.0593769531        0.0137906478        2.0725890956    0   0   0
Se               8.2442603993       -0.0086522367        5.7337060285
Se              10.3502724514        1.6837465223        3.7833710186    0   0   0
Se              12.5563807509        1.6625004198        7.3912714295
Se              11.8636766103        3.3592235671        2.8896932602    0   0   0
Se               9.6955423117        3.3845455774        6.6053753637
Se              10.4090773600        0.0137883654        2.0725834475    0   0   0
Se              12.5785632370        0.1050355405        5.5708399209
Se               1.6506855375        6.7280182182        3.7833117340    0   0   0
Se               3.4477931577        6.5067375166        7.3730263050
Se               3.1639926932        8.4039276883        2.8898890194    0   0   0
Se               0.9087394265        8.3811068137        6.6129364486
Se               1.7096973664        5.0585201930        2.0721673571    0   0   0
Se               3.6878739742        4.8816705221        5.6226717919
Se               6.0003746542        6.7280201319        3.7833094929    0   0   0
Se               8.2747439731        6.7814937068        7.3635567112
Se               7.5136792004        8.4039291964        2.8898825031    0   0   0
Se               4.8253581234        8.2586806465        6.5741901903
Se               6.0593813340        5.0585212997        2.0721652760    0   0   0
Se               8.1668050595        5.0523700563        5.7173251407
Se              10.3500690377        6.7280178865        3.7833025820    0   0   0
Se              12.4803779284        6.6783059610        7.4409425079
Se              11.8633773323        8.4039271251        2.8898823950    0   0   0
Se               9.9042049162        8.3453330889        6.5513186143
Se              10.4090817311        5.0585189658        2.0721595301    0   0   0
Se              12.5024523603        5.0398830799        5.6951991706
Se               1.6506538675       11.7727124308        3.7839128968    0   0   0
Se               3.2178699177       11.6700290481        7.3076981082
Se               3.1642562799       13.4480706906        2.8903550029    0   0   0
Se               1.0728502504       13.5404200322        6.4252460295
Se               1.7094434988       10.1032963955        2.0726019891    0   0   0
Se               3.4118502730        9.9891353583        5.5621311295
Se               6.0003428289       11.7727143070        3.7839105841    0   0   0
Se               8.9905206358       11.7839406624        7.3763180599
Se               7.5139427049       13.4480722022        2.8903484928    0   0   0
Se               4.9749658734       13.2176232266        6.7716133178
Se               6.0591274158       10.1032975129        2.0725999284    0   0   0
Se               8.5305362514       10.1389131119        5.6591174567
Se              10.3500372389       11.7727120227        3.7839038076    0   0   0
Se              12.6004761247       11.8612139047        7.2989197162
Se              11.8636409029       13.4480700929        2.8903483656    0   0   0
Se              10.0883814480       13.6475339013        6.3735472917
Se              10.4088279598       10.1032953896        2.0725941285    0   0   0
Se              12.5086060740       10.1100753101        5.6672980931
Fl               6.2682807126       10.5663944555        8.1208137612



     Writing config-only to output data dir ./pwscf.save/ :
     XML data file
     NEW-OLD atomic charge density approx. for the potential

     total cpu time spent up to now is   153068.0 secs

     per-process dynamical memory:  1301.0 Mb

     Self-consistent Calculation

     iteration #  1     ecut=    60.00 Ry     beta= 0.20
     Davidson diagonalization with overlap
     ethr =  1.00E-06,  avg # of iterations =  2.0

     Threshold (ethr) on eigenvalues was too large:
     Diagonalizing with lowered threshold

     Davidson diagonalization with overlap
     ethr =  1.19E-10,  avg # of iterations =  5.2

     total cpu time spent up to now is   175509.2 secs

     total energy              =  -13470.43026810 Ry
     estimated scf accuracy    <       0.00000033 Ry

     iteration #  2     ecut=    60.00 Ry     beta= 0.20
     Davidson diagonalization with overlap
     ethr =  3.71E-11,  avg # of iterations =  1.2

     total cpu time spent up to now is   181621.9 secs

     total energy              =  -13470.43026811 Ry
     estimated scf accuracy    <       0.00000014 Ry

     iteration #  3     ecut=    60.00 Ry     beta= 0.20
     Davidson diagonalization with overlap
     ethr =  1.62E-11,  avg # of iterations =  1.0

     total cpu time spent up to now is   187095.0 secs

     total energy              =  -13470.43026812 Ry
     estimated scf accuracy    <       0.00000007 Ry

     iteration #  4     ecut=    60.00 Ry     beta= 0.20
     Davidson diagonalization with overlap
     ethr =  8.13E-12,  avg # of iterations =  2.0

     total cpu time spent up to now is   193659.6 secs

     total energy              =  -13470.43026813 Ry
     estimated scf accuracy    <       0.00000002 Ry

     iteration #  5     ecut=    60.00 Ry     beta= 0.20
     Davidson diagonalization with overlap
     ethr =  2.20E-12,  avg # of iterations =  2.0

     total cpu time spent up to now is   200448.9 secs

     total energy              =  -13470.43026813 Ry
     estimated scf accuracy    <          5.1E-09 Ry

     iteration #  6     ecut=    60.00 Ry     beta= 0.20
     Davidson diagonalization with overlap
     ethr =  5.80E-13,  avg # of iterations =  2.0

     total cpu time spent up to now is   206931.1 secs

     total energy              =  -13470.43026814 Ry
     estimated scf accuracy    <          1.8E-09 Ry

     iteration #  7     ecut=    60.00 Ry     beta= 0.20
     Davidson diagonalization with overlap
     ethr =  2.08E-13,  avg # of iterations =  2.0

     total cpu time spent up to now is   213619.4 secs

     End of self-consistent calculation

          k = 0.0000 0.0000 0.0000 (182899 PWs)   bands (ev):

  -160.9086-160.9086-117.7441-117.7441 -64.7369 -64.7369 -64.7222 -64.7222
   -53.9627 -53.9627 -53.9606 -53.9606 -53.9083 -53.9083 -53.8896 -53.8896
   -53.8836 -53.8836 -53.8782 -53.8782 -53.8575 -53.8575 -53.8389 -53.8389
   -53.8330 -53.8330 -53.8285 -53.8285 -53.8225 -53.8225 -53.8189 -53.8189
   -53.8177 -53.8177 -53.8135 -53.8135 -53.8129 -53.8129 -53.8065 -53.8065
   -53.8050 -53.8050 -53.8042 -53.8042 -53.8029 -53.8029 -53.7997 -53.7997
   -53.7983 -53.7983 -53.7858 -53.7858 -53.7830 -53.7830 -53.7765 -53.7765
   -53.7711 -53.7711 -53.7634 -53.7634 -53.7595 -53.7595 -53.7584 -53.7584
   -53.7547 -53.7547 -53.7536 -53.7536 -53.7350 -53.7350 -53.7332 -53.7332
   -53.7325 -53.7325 -53.7308 -53.7308 -53.7275 -53.7275 -53.7242 -53.7242
   -53.7213 -53.7213 -53.7205 -53.7205 -53.7190 -53.7190 -53.7142 -53.7142
   -53.7117 -53.7117 -53.7048 -53.7048 -53.7022 -53.7022 -53.6988 -53.6988
   -53.6859 -53.6859 -53.6771 -53.6771 -53.6725 -53.6725 -53.6527 -53.6527
   -53.6466 -53.6466 -53.6451 -53.6451 -53.6397 -53.6397 -53.6386 -53.6386
   -53.6315 -53.6315 -53.6303 -53.6303 -53.6224 -53.6224 -53.6174 -53.6174
   -53.6161 -53.6161 -53.6146 -53.6146 -53.5959 -53.5959 -53.5832 -53.5832
   -53.5808 -53.5808 -53.5756 -53.5756 -53.5637 -53.5637 -53.5585 -53.5585
   -53.5541 -53.5541 -53.5537 -53.5537 -53.5483 -53.5483 -53.5477 -53.5477
   -53.5450 -53.5450 -53.5436 -53.5436 -53.5426 -53.5426 -53.5378 -53.5378
   -53.5274 -53.5274 -53.5262 -53.5262 -53.5248 -53.5248 -53.5228 -53.5228
   -53.5216 -53.5216 -53.5109 -53.5109 -53.5081 -53.5081 -53.5016 -53.5016
   -53.4951 -53.4951 -53.4939 -53.4939 -53.4841 -53.4841 -53.4771 -53.4771
   -53.4745 -53.4745 -53.4666 -53.4666 -53.4638 -53.4638 -53.4615 -53.4615
   -53.4563 -53.4563 -53.4496 -53.4496 -53.4477 -53.4477 -53.4468 -53.4468
   -53.4462 -53.4462 -53.4421 -53.4421 -53.4335 -53.4335 -53.4315 -53.4315
   -53.4291 -53.4291 -53.4116 -53.4116 -53.4066 -53.4066 -53.3710 -53.3710
   -53.3686 -53.3686 -53.3672 -53.3672 -53.3658 -53.3658 -53.3649 -53.3649
   -53.3542 -53.3542 -53.3482 -53.3482 -53.3060 -53.3060 -53.2453 -53.2453
   -53.1107 -53.1107 -53.1052 -53.1052 -53.0587 -53.0587 -53.0308 -53.0308
   -53.0278 -53.0278 -53.0251 -53.0251 -53.0063 -53.0063 -52.9894 -52.9894
   -52.9795 -52.9795 -52.9779 -52.9779 -52.9762 -52.9762 -52.9678 -52.9678
   -52.9663 -52.9663 -52.9648 -52.9648 -52.9607 -52.9607 -52.9572 -52.9572
   -52.9526 -52.9526 -52.9520 -52.9520 -52.9507 -52.9507 -52.9454 -52.9454
   -52.9428 -52.9428 -52.9321 -52.9321 -52.9294 -52.9294 -52.9210 -52.9210
   -52.9178 -52.9178 -52.9116 -52.9116 -52.9085 -52.9085 -52.9046 -52.9046
   -52.9028 -52.9028 -52.9011 -52.9011 -52.9004 -52.9004 -52.8891 -52.8891
   -52.8810 -52.8810 -52.8801 -52.8801 -52.8743 -52.8743 -52.8720 -52.8720
   -52.8700 -52.8700 -52.8687 -52.8687 -52.8640 -52.8640 -52.8626 -52.8626
   -52.8615 -52.8615 -52.8539 -52.8539 -52.8474 -52.8474 -52.8412 -52.8412
   -52.8375 -52.8375 -52.8356 -52.8356 -52.8337 -52.8337 -52.8185 -52.8185
   -52.8173 -52.8173 -52.8159 -52.8159 -52.8021 -52.8021 -52.8006 -52.8006
   -52.7959 -52.7959 -52.7833 -52.7833 -52.7828 -52.7828 -52.7822 -52.7822
   -52.7820 -52.7820 -52.7743 -52.7743 -52.7704 -52.7704 -52.7635 -52.7635
   -52.7609 -52.7609 -52.7580 -52.7580 -52.7559 -52.7559 -52.7518 -52.7518
   -52.7446 -52.7446 -52.7390 -52.7390 -52.7361 -52.7361 -52.7354 -52.7354
   -52.7349 -52.7349 -52.7335 -52.7335 -52.7324 -52.7324 -52.7309 -52.7309
   -52.7305 -52.7305 -52.7290 -52.7290 -52.7279 -52.7279 -52.7264 -52.7264
   -52.7178 -52.7178 -52.7168 -52.7168 -52.7135 -52.7135 -52.7124 -52.7124
   -52.7075 -52.7075 -52.6998 -52.6998 -52.6987 -52.6987 -52.6956 -52.6956
   -52.6892 -52.6892 -52.6882 -52.6882 -52.6851 -52.6851 -52.6758 -52.6758
   -52.6710 -52.6710 -52.6697 -52.6697 -52.6684 -52.6684 -52.6677 -52.6677
   -52.6581 -52.6581 -52.6572 -52.6572 -52.6548 -52.6548 -52.6540 -52.6540
   -52.6491 -52.6491 -52.6454 -52.6454 -52.6436 -52.6436 -52.6426 -52.6426
   -52.6414 -52.6414 -52.6401 -52.6401 -52.6383 -52.6383 -52.6370 -52.6370
   -52.6342 -52.6342 -52.6330 -52.6330 -52.6325 -52.6325 -52.6296 -52.6296
   -52.6272 -52.6272 -52.6256 -52.6256 -52.6248 -52.6248 -52.6223 -52.6223
   -52.6179 -52.6179 -52.6168 -52.6168 -52.6152 -52.6152 -52.6104 -52.6104
   -52.6071 -52.6071 -52.6010 -52.6010 -52.5998 -52.5998 -52.5988 -52.5988
   -52.5981 -52.5981 -52.5969 -52.5969 -52.5886 -52.5886 -52.5828 -52.5828
   -52.5790 -52.5790 -52.5723 -52.5723 -52.5688 -52.5688 -52.5654 -52.5654
   -52.5609 -52.5609 -52.5594 -52.5594 -52.5572 -52.5572 -52.5567 -52.5567
   -52.5559 -52.5559 -52.5509 -52.5509 -52.5485 -52.5485 -52.5445 -52.5445
   -52.5436 -52.5436 -52.5418 -52.5418 -52.5398 -52.5398 -52.5362 -52.5362
   -52.5308 -52.5308 -52.5216 -52.5216 -52.5210 -52.5210 -52.5193 -52.5193
   -52.5185 -52.5185 -52.5145 -52.5145 -52.5061 -52.5061 -52.5043 -52.5043
   -52.5035 -52.5035 -52.4983 -52.4983 -52.4875 -52.4875 -52.4816 -52.4816
   -52.4434 -52.4434 -52.4420 -52.4420 -52.4414 -52.4414 -52.4398 -52.4398
   -52.4394 -52.4394 -52.4378 -52.4378 -52.4271 -52.4271 -52.4207 -52.4207
   -52.3784 -52.3784 -52.3155 -52.3155 -20.4427 -20.4427 -20.1877 -20.1877
   -20.1185 -20.1185 -20.0848 -20.0848 -19.9668 -19.9668 -19.9419 -19.9419
   -19.9242 -19.9242 -19.8935 -19.8935 -19.7277 -19.7277 -19.6974 -19.6974
   -19.6580 -19.6580 -19.6497 -19.6497 -19.6270 -19.6270 -19.6183 -19.6183
   -19.4946 -19.4946 -19.4747 -19.4747 -19.4690 -19.4690 -19.4112 -19.4112
   -18.5902 -18.5902 -18.5423 -18.5423 -18.4284 -18.4284 -18.4072 -18.4072
   -18.3984 -18.3984 -18.3821 -18.3821 -18.3653 -18.3653 -18.3591 -18.3591
   -18.2912 -18.2912 -18.2837 -18.2837 -18.2419 -18.2419 -18.2122 -18.2122
   -17.5917 -17.5917 -17.5562 -17.5562 -17.0217 -17.0217 -16.9691 -16.9691
   -16.9522 -16.9522 -16.8924 -16.8924 -16.8667 -16.8667 -16.6957 -16.6957
   -16.6269 -16.6269 -16.5819 -16.5819 -16.5173 -16.5173 -16.4882 -16.4882
   -16.4426 -16.4426 -16.4240 -16.4240 -15.7416 -15.7416 -15.6655 -15.6655
   -15.6363 -15.6363 -15.6046 -15.6046 -15.4971 -15.4971 -15.3950 -15.3950
   -15.3829 -15.3829 -15.3669 -15.3669 -15.3219 -15.3219 -15.3096 -15.3096
   -14.9064 -14.9064 -14.8690 -14.8690 -14.1187 -14.1187 -13.3657 -13.3657
   -13.3523 -13.3523 -13.3194 -13.3194 -10.3500 -10.3500 -10.2796 -10.2796
   -10.2509 -10.2509 -10.2068 -10.2068 -10.1787 -10.1787 -10.1202 -10.1202
   -10.1017 -10.1017 -10.0684 -10.0684 -10.0370 -10.0370  -9.9850  -9.9850
    -9.8893  -9.8893  -9.8323  -9.8323  -9.7946  -9.7946  -9.7707  -9.7707
    -9.7581  -9.7581  -9.7405  -9.7405  -9.7081  -9.7081  -9.6816  -9.6816
    -9.6559  -9.6559  -9.5621  -9.5621  -9.5291  -9.5291  -9.5028  -9.5028
    -9.4363  -9.4363  -9.4184  -9.4184  -9.3686  -9.3686  -9.3520  -9.3520
    -9.3195  -9.3195  -9.2939  -9.2939  -9.2583  -9.2583  -9.2340  -9.2340
    -9.2170  -9.2170  -9.1673  -9.1673  -8.9312  -8.9312  -8.8952  -8.8952
    -8.8453  -8.8453  -8.8169  -8.8169  -8.7670  -8.7670  -8.7356  -8.7356
    -8.6104  -8.6104  -8.5621  -8.5621  -8.4513  -8.4513  -8.4071  -8.4071
    -8.3770  -8.3770  -8.3420  -8.3420  -8.3138  -8.3138  -8.2957  -8.2957
    -8.2609  -8.2609  -8.2117  -8.2117  -8.1855  -8.1855  -8.1333  -8.1333
    -8.0950  -8.0950  -8.0694  -8.0694  -7.9869  -7.9869  -7.8819  -7.8819
    -7.5756  -7.5756  -7.4634  -7.4634  -7.3874  -7.3874  -7.3615  -7.3615
    -7.3172  -7.3172  -7.0249  -7.0249  -6.9407  -6.9407  -6.9094  -6.9094
    -6.8717  -6.8717  -6.8289  -6.8289  -6.8062  -6.8062  -6.7745  -6.7745
    -6.7566  -6.7566  -6.7280  -6.7280  -6.6931  -6.6931  -6.6651  -6.6651
    -6.6312  -6.6312  -6.5873  -6.5873  -6.5664  -6.5664  -6.5446  -6.5446
    -6.5135  -6.5135  -6.4944  -6.4944  -6.4719  -6.4719  -6.4325  -6.4325
    -6.3759  -6.3759  -6.3553  -6.3553  -6.3285  -6.3285  -6.3071  -6.3071
    -6.2769  -6.2769  -6.2469  -6.2469  -6.2058  -6.2058  -6.1908  -6.1908
    -6.1669  -6.1669  -6.1446  -6.1446  -6.1203  -6.1203  -6.0803  -6.0803
    -6.0462  -6.0462  -5.9983  -5.9983  -5.9295  -5.9295  -5.8676  -5.8676
    -5.8127  -5.8127  -5.7365  -5.7365  -5.6835  -5.6835  -5.6003  -5.6003
    -5.5420  -5.5420  -5.4679  -5.4679  -5.4408  -5.4408  -5.4089  -5.4089
    -5.3308  -5.3308  -5.2963  -5.2963  -5.1712  -5.1712  -5.1570  -5.1570
    -5.0406  -5.0406  -5.0049  -5.0049  -4.5746  -4.5746  -3.6445  -3.6445
    -3.5610  -3.5610  -3.4984  -3.4984  -3.4327  -3.4327  -3.4118  -3.4118
    -3.3734  -3.3734  -3.3475  -3.3475  -3.3113  -3.3113  -3.2939  -3.2939
    -3.2712  -3.2712  -3.2201  -3.2201  -3.1874  -3.1874  -3.1555  -3.1555
    -3.1209  -3.1209  -3.0895  -3.0895  -3.0765  -3.0765  -3.0341  -3.0341
    -3.0149  -3.0149  -2.9857  -2.9857  -2.9534  -2.9534  -2.9114  -2.9114
    -2.7528  -2.7528  -2.7142  -2.7142  -2.6806  -2.6806  -2.6399  -2.6399
    -2.5950  -2.5950  -2.5851  -2.5851  -2.5572  -2.5572  -2.5322  -2.5322
    -2.4989  -2.4989  -2.4792  -2.4792  -2.4445  -2.4445  -2.4165  -2.4165
    -2.3859  -2.3859  -2.3610  -2.3610  -2.3303  -2.3303  -2.2982  -2.2982
    -2.2706  -2.2706  -2.2117  -2.2117  -2.1914  -2.1914  -2.1578  -2.1578
    -2.1309  -2.1309  -2.1085  -2.1085  -2.0749  -2.0749  -2.0333  -2.0333
    -1.8540  -1.8540  -1.8328  -1.8328  -1.7874  -1.7874  -1.7460  -1.7460
    -1.6756  -1.6756  -1.6518  -1.6518  -1.5627  -1.5627  -1.4774  -1.4774
    -1.4557  -1.4557  -0.2693  -0.2693   0.1924   0.1924   0.6102   0.6102
     0.7754   0.7754   0.8534   0.8534   0.9247   0.9247   0.9852   0.9852
     1.0265   1.0265   1.0764   1.0764   1.2574   1.2574   1.2726   1.2726
     1.3026   1.3026   1.3310   1.3310   1.3701   1.3701   1.4503   1.4503
     1.5024   1.5024   1.5455   1.5455   1.5711   1.5711   1.6157   1.6157
     1.6355   1.6355   1.6773   1.6773   1.7142   1.7142   1.7464   1.7464
     1.7644   1.7644   1.8116   1.8116   1.8334   1.8334   1.8820   1.8820
     1.9062   1.9062   1.9323   1.9323   2.0133   2.0133   2.0538   2.0538
     2.0746   2.0747   2.1169   2.1169   2.1598   2.1598   2.2197   2.2198

          k = 0.0000-0.4311 0.0000 (182866 PWs)   bands (ev):

  -160.9086-160.9086-117.7441-117.7441 -64.7369 -64.7369 -64.7222 -64.7222
   -53.9622 -53.9622 -53.9603 -53.9603 -53.9079 -53.9079 -53.8894 -53.8894
   -53.8837 -53.8837 -53.8778 -53.8778 -53.8572 -53.8572 -53.8385 -53.8385
   -53.8326 -53.8326 -53.8283 -53.8283 -53.8225 -53.8225 -53.8186 -53.8186
   -53.8174 -53.8174 -53.8131 -53.8131 -53.8124 -53.8124 -53.8059 -53.8059
   -53.8052 -53.8052 -53.8036 -53.8036 -53.8022 -53.8022 -53.7992 -53.7992
   -53.7981 -53.7981 -53.7864 -53.7864 -53.7821 -53.7821 -53.7764 -53.7764
   -53.7709 -53.7709 -53.7630 -53.7630 -53.7590 -53.7590 -53.7580 -53.7580
   -53.7544 -53.7544 -53.7533 -53.7533 -53.7350 -53.7350 -53.7327 -53.7327
   -53.7321 -53.7321 -53.7309 -53.7309 -53.7273 -53.7273 -53.7236 -53.7236
[...]
   -53.1109 -53.1109 -53.1056 -53.1056 -53.0586 -53.0586 -53.0308 -53.0308
   -53.0283 -53.0283 -53.0252 -53.0252 -53.0067 -53.0067 -52.9897 -52.9897
   -52.9798 -52.9798 -52.9783 -52.9783 -52.9764 -52.9764 -52.9675 -52.9675
   -52.9671 -52.9671 -52.9642 -52.9642 -52.9603 -52.9603 -52.9571 -52.9571
   -52.9528 -52.9528 -52.9523 -52.9523 -52.9505 -52.9505 -52.9457 -52.9457
   -52.9429 -52.9429 -52.9320 -52.9320 -52.9290 -52.9290 -52.9212 -52.9212
   -52.9178 -52.9178 -52.9118 -52.9118 -52.9084 -52.9084 -52.9043 -52.9043
   -52.9028 -52.9028 -52.9012 -52.9012 -52.9000 -52.9000 -52.8895 -52.8895
   -52.8808 -52.8808 -52.8799 -52.8799 -52.8744 -52.8744 -52.8724 -52.8724
   -52.8698 -52.8698 -52.8683 -52.8683 -52.8640 -52.8640 -52.8631 -52.8631
   -52.8620 -52.8620 -52.8541 -52.8541 -52.8476 -52.8476 -52.8416 -52.8416
   -52.8371 -52.8371 -52.8353 -52.8353 -52.8342 -52.8342 -52.8184 -52.8184
   -52.8177 -52.8177 -52.8159 -52.8159 -52.8020 -52.8020 -52.8006 -52.8006
   -52.7960 -52.7960 -52.7837 -52.7837 -52.7830 -52.7830 -52.7822 -52.7822
   -52.7819 -52.7819 -52.7746 -52.7746 -52.7704 -52.7704 -52.7634 -52.7634
   -52.7613 -52.7613 -52.7582 -52.7582 -52.7561 -52.7561 -52.7517 -52.7517
   -52.7446 -52.7446 -52.7393 -52.7393 -52.7360 -52.7360 -52.7354 -52.7354
   -52.7346 -52.7346 -52.7339 -52.7339 -52.7324 -52.7324 -52.7315 -52.7315
   -52.7306 -52.7306 -52.7293 -52.7293 -52.7289 -52.7289 -52.7262 -52.7262
   -52.7182 -52.7182 -52.7169 -52.7169 -52.7140 -52.7140 -52.7128 -52.7128
   -52.7075 -52.7075 -52.7002 -52.7002 -52.6986 -52.6986 -52.6957 -52.6957
   -52.6894 -52.6894 -52.6884 -52.6884 -52.6855 -52.6855 -52.6759 -52.6759
   -52.6710 -52.6710 -52.6698 -52.6698 -52.6689 -52.6689 -52.6682 -52.6682
   -52.6584 -52.6584 -52.6570 -52.6570 -52.6549 -52.6549 -52.6543 -52.6543
   -52.6493 -52.6493 -52.6460 -52.6460 -52.6434 -52.6434 -52.6429 -52.6429
   -52.6418 -52.6418 -52.6402 -52.6402 -52.6382 -52.6382 -52.6370 -52.6370
   -52.6346 -52.6346 -52.6329 -52.6329 -52.6319 -52.6319 -52.6296 -52.6296
   -52.6270 -52.6270 -52.6257 -52.6257 -52.6247 -52.6247 -52.6226 -52.6226
   -52.6181 -52.6181 -52.6167 -52.6167 -52.6150 -52.6150 -52.6104 -52.6104
   -52.6071 -52.6071 -52.6014 -52.6014 -52.6001 -52.6001 -52.5990 -52.5990
   -52.5980 -52.5980 -52.5969 -52.5969 -52.5885 -52.5885 -52.5829 -52.5829
   -52.5790 -52.5790 -52.5725 -52.5725 -52.5691 -52.5691 -52.5652 -52.5652
   -52.5612 -52.5612 -52.5591 -52.5591 -52.5576 -52.5576 -52.5565 -52.5565
   -52.5559 -52.5559 -52.5502 -52.5502 -52.5490 -52.5490 -52.5443 -52.5443
   -52.5438 -52.5438 -52.5423 -52.5423 -52.5396 -52.5396 -52.5362 -52.5362
   -52.5310 -52.5310 -52.5214 -52.5214 -52.5210 -52.5210 -52.5192 -52.5192
   -52.5184 -52.5184 -52.5143 -52.5143 -52.5060 -52.5060 -52.5044 -52.5044
   -52.5032 -52.5032 -52.4983 -52.4983 -52.4876 -52.4876 -52.4817 -52.4817
   -52.4435 -52.4435 -52.4423 -52.4423 -52.4416 -52.4416 -52.4399 -52.4399
   -52.4390 -52.4390 -52.4376 -52.4376 -52.4269 -52.4269 -52.4206 -52.4206
   -52.3784 -52.3784 -52.3153 -52.3153 -20.3146 -20.3146 -20.2555 -20.2555
   -20.1783 -20.1783 -20.1579 -20.1579 -19.9746 -19.9746 -19.9458 -19.9458
   -19.9311 -19.9311 -19.9047 -19.9047 -19.8586 -19.8586 -19.8217 -19.8217
   -19.8057 -19.8057 -19.7263 -19.7263 -19.3608 -19.3608 -19.3076 -19.3076
   -19.2679 -19.2679 -19.2048 -19.2048 -19.1235 -19.1235 -19.0939 -19.0939
   -19.0388 -19.0388 -19.0182 -19.0182 -18.9974 -18.9974 -18.9674 -18.9674
   -18.8952 -18.8952 -18.8152 -18.8152 -17.7236 -17.7236 -17.6750 -17.6750
   -17.6509 -17.6509 -17.6258 -17.6258 -17.5938 -17.5938 -17.5723 -17.5723
   -17.5647 -17.5647 -17.5593 -17.5593 -17.5478 -17.5478 -17.5366 -17.5366
   -17.5240 -17.5240 -17.5028 -17.5028 -17.4715 -17.4715 -17.4166 -17.4166
   -16.1719 -16.1719 -16.1255 -16.1255 -16.0678 -16.0678 -16.0570 -16.0570
   -16.0263 -16.0263 -15.9981 -15.9981 -15.9861 -15.9861 -15.9384 -15.9384
   -15.7577 -15.7577 -15.7400 -15.7400 -15.6726 -15.6726 -15.6613 -15.6613
   -15.4959 -15.4959 -15.4347 -15.4347 -15.3270 -15.3270 -15.2643 -15.2643
   -14.8371 -14.8371 -14.7078 -14.7078 -14.1268 -14.1268 -13.3660 -13.3660
   -13.3514 -13.3514 -13.3193 -13.3193 -10.5136 -10.5136 -10.4929 -10.4929
   -10.3769 -10.3769 -10.2938 -10.2938  -9.9888  -9.9888  -9.9632  -9.9632
    -9.9407  -9.9407  -9.9103  -9.9103  -9.8942  -9.8942  -9.8721  -9.8721
    -9.8341  -9.8341  -9.8139  -9.8139  -9.8020  -9.8020  -9.7806  -9.7806
    -9.7404  -9.7404  -9.7060  -9.7060  -9.6946  -9.6946  -9.6702  -9.6702
    -9.6454  -9.6454  -9.6217  -9.6217  -9.6049  -9.6049  -9.5698  -9.5698
    -9.4350  -9.4350  -9.3771  -9.3771  -9.3469  -9.3469  -9.3165  -9.3165
    -9.2929  -9.2929  -9.2784  -9.2784  -9.2320  -9.2320  -9.1821  -9.1821
    -9.1551  -9.1551  -9.1179  -9.1179  -9.0830  -9.0830  -9.0696  -9.0696
    -9.0410  -9.0410  -9.0135  -9.0135  -8.9510  -8.9510  -8.9182  -8.9182
    -8.6109  -8.6109  -8.4967  -8.4967  -8.4480  -8.4480  -8.3717  -8.3717
    -8.3103  -8.3103  -8.2850  -8.2850  -8.2459  -8.2459  -8.1967  -8.1967
    -8.1811  -8.1811  -8.1677  -8.1677  -8.1154  -8.1154  -8.0951  -8.0951
    -8.0610  -8.0610  -8.0392  -8.0392  -7.9802  -7.9802  -7.9671  -7.9671
    -7.5294  -7.5294  -7.4799  -7.4799  -7.4125  -7.4125  -7.3602  -7.3602
    -7.3041  -7.3041  -7.2831  -7.2831  -7.2088  -7.2088  -7.1760  -7.1760
    -7.0729  -7.0729  -7.0042  -7.0042  -6.9377  -6.9377  -6.8945  -6.8945
    -6.7409  -6.7409  -6.6872  -6.6872  -6.6510  -6.6510  -6.6249  -6.6249
    -6.5878  -6.5878  -6.5700  -6.5700  -6.5244  -6.5244  -6.4861  -6.4861
    -6.4444  -6.4444  -6.4167  -6.4167  -6.3772  -6.3772  -6.3541  -6.3541
    -6.3116  -6.3116  -6.2997  -6.2997  -6.2757  -6.2757  -6.2499  -6.2499
    -6.2002  -6.2002  -6.1705  -6.1705  -6.1358  -6.1358  -6.0936  -6.0936
    -6.0246  -6.0246  -6.0043  -6.0043  -5.9267  -5.9267  -5.8978  -5.8978
    -5.8620  -5.8620  -5.8326  -5.8326  -5.8209  -5.8209  -5.7969  -5.7969
    -5.7171  -5.7171  -5.6941  -5.6941  -5.6813  -5.6813  -5.6476  -5.6476
    -5.5968  -5.5968  -5.5866  -5.5866  -5.5566  -5.5566  -5.5042  -5.5042
    -5.4781  -5.4781  -5.4272  -5.4272  -5.3961  -5.3961  -5.3199  -5.3199
    -5.1102  -5.1102  -5.0767  -5.0767  -4.5366  -4.5366  -3.6724  -3.6724
    -3.5581  -3.5581  -3.5376  -3.5376  -3.4962  -3.4962  -3.4548  -3.4548
    -3.4173  -3.4173  -3.3762  -3.3762  -3.3116  -3.3116  -3.2754  -3.2754
    -3.2234  -3.2234  -3.1473  -3.1473  -3.1133  -3.1133  -3.0663  -3.0663
    -3.0331  -3.0331  -3.0190  -3.0190  -2.9882  -2.9882  -2.9626  -2.9626
    -2.9422  -2.9422  -2.9192  -2.9192  -2.8910  -2.8910  -2.8613  -2.8613
    -2.8468  -2.8468  -2.8158  -2.8158  -2.7924  -2.7924  -2.7654  -2.7654
    -2.7024  -2.7024  -2.6212  -2.6212  -2.5863  -2.5863  -2.5452  -2.5452
    -2.5089  -2.5089  -2.4497  -2.4497  -2.4033  -2.4033  -2.3761  -2.3761
    -2.3537  -2.3537  -2.3389  -2.3389  -2.3229  -2.3229  -2.2918  -2.2918
    -2.2695  -2.2695  -2.2559  -2.2559  -2.2227  -2.2227  -2.1942  -2.1942
    -2.1751  -2.1751  -2.1447  -2.1447  -2.0826  -2.0826  -2.0492  -2.0492
    -1.9748  -1.9748  -1.8820  -1.8820  -1.8176  -1.8176  -1.7494  -1.7494
    -1.7330  -1.7330  -1.5391  -1.5391  -1.5016  -1.5016  -1.4902  -1.4902
    -1.4605  -1.4605  -0.2802  -0.2802   0.2095   0.2095   0.8208   0.8208
     0.8610   0.8610   0.8682   0.8682   0.9374   0.9374   1.0481   1.0481
     1.0632   1.0632   1.0954   1.0954   1.1096   1.1096   1.1781   1.1781
     1.1999   1.1999   1.2222   1.2222   1.2587   1.2587   1.4079   1.4079
     1.4173   1.4173   1.4311   1.4311   1.4594   1.4594   1.4771   1.4771
     1.5195   1.5195   1.5546   1.5546   1.5945   1.5945   1.6285   1.6285
     1.7550   1.7550   1.8399   1.8399   1.8606   1.8606   1.8917   1.8917
     1.9366   1.9367   1.9903   1.9903   2.0402   2.0402   2.0733   2.0733
     2.1134   2.1134   2.1802   2.1802   2.2122   2.2122   2.2552   2.2553

     the Fermi energy is    -4.1480 ev

!    total energy              =  -13470.43026814 Ry
     estimated scf accuracy    <          4.6E-10 Ry
     smearing contrib. (-TS)   =      -0.00243353 Ry
     internal energy E=F+TS    =  -13470.42783461 Ry

     The total energy is F=E-TS. E is the sum of the following terms:
     one-electron contribution =  -62112.77036225 Ry
     hartree contribution      =   30770.77788664 Ry
     xc contribution           =   -2674.58019855 Ry
     ewald contribution        =   20546.14483955 Ry

     convergence has been achieved in   7 iterations

     Forces acting on atoms (cartesian axes, Ry/au):

     atom    1 type  1   force =    -0.00187517    0.00096200    0.00160437
     atom    2 type  1   force =    -0.00004747   -0.00000572    0.00017040
     atom    3 type  1   force =     0.00548566   -0.00141529   -0.00671181
     atom    4 type  1   force =     0.00035855    0.00005227   -0.00018177
     atom    5 type  1   force =     0.00045866    0.00005339    0.00213313
     atom    6 type  1   force =     0.00015895    0.00005808    0.00006846
     atom    7 type  1   force =    -0.00158012   -0.00249329    0.00066701
     atom    8 type  1   force =     0.00010785    0.00000509   -0.00027164
     atom    9 type  1   force =     0.00052646   -0.00077112    0.00092032
     atom   10 type  1   force =     0.00006051   -0.00007203    0.00008723
     atom   11 type  1   force =    -0.00050099    0.00082901    0.00178923
     atom   12 type  1   force =     0.00018695   -0.00035064    0.00031355
     atom   13 type  1   force =    -0.00474155    0.00278853   -0.00095550
     atom   14 type  1   force =    -0.00001916    0.00016372    0.00020956
     atom   15 type  1   force =     0.00162587   -0.00012713    0.00007695
     atom   16 type  1   force =     0.00009443   -0.00048130    0.00002329
     atom   17 type  1   force =    -0.00151939    0.00121609    0.00117279
     atom   18 type  1   force =     0.00010199   -0.00037514   -0.00008902
     atom   19 type  1   force =    -0.00262145   -0.00262355    0.00161666
     atom   20 type  1   force =    -0.00004029    0.00024986   -0.00030377
     atom   21 type  1   force =     0.00384537   -0.00288161   -0.00167843
     atom   22 type  1   force =     0.00038099   -0.00001088   -0.00015887
     atom   23 type  1   force =    -0.00070516    0.00099854    0.00141336
     atom   24 type  1   force =    -0.00028313   -0.00025316   -0.00028408
     atom   25 type  1   force =    -0.00145565   -0.00118196   -0.00206382
     atom   26 type  1   force =     0.00043796    0.00020398   -0.00026470
     atom   27 type  1   force =     0.00114172    0.00019182    0.00267673
     atom   28 type  1   force =     0.00043229   -0.00011651   -0.00009949
     atom   29 type  1   force =     0.00053516    0.00134293    0.00283826
     atom   30 type  1   force =    -0.00000482    0.00009041    0.00015653
     atom   31 type  1   force =    -0.00054022   -0.00124729    0.00231092
     atom   32 type  1   force =     0.00008385    0.00015774    0.00014672
     atom   33 type  1   force =     0.00054362   -0.00020116    0.00005598
     atom   34 type  1   force =    -0.00026153   -0.00024479    0.00051291
     atom   35 type  1   force =    -0.00159936   -0.00117583   -0.00175589
     atom   36 type  1   force =    -0.00014362   -0.00011868   -0.00012285
     atom   37 type  1   force =    -0.00639593    0.00085879   -0.00036323
     atom   38 type  1   force =     0.00001271    0.00025237   -0.00031715
     atom   39 type  1   force =     0.00461194    0.00245175   -0.00240115
     atom   40 type  1   force =     0.00011156   -0.00004302    0.00022395
     atom   41 type  1   force =    -0.00219238    0.00028082   -0.00229120
     atom   42 type  1   force =    -0.00024677    0.00025950   -0.00013669
     atom   43 type  1   force =     0.00088752   -0.00181786   -0.00218801
     atom   44 type  1   force =    -0.00033817   -0.00034101   -0.00028382
     atom   45 type  1   force =    -0.00045528   -0.00167694    0.00226768
     atom   46 type  1   force =     0.00016908    0.00023843   -0.00010787
     atom   47 type  1   force =    -0.00085180    0.00247380    0.00357822
     atom   48 type  1   force =     0.00010724    0.00021619   -0.00010153
     atom   49 type  1   force =     0.00065805    0.00106024    0.00383009
     atom   50 type  1   force =     0.00021271    0.00012088   -0.00007858
     atom   51 type  1   force =     0.00622324    0.00401850   -0.00614897
     atom   52 type  1   force =    -0.00019276    0.00041331   -0.00011342
     atom   53 type  1   force =    -0.00076724   -0.00208254   -0.00149136
     atom   54 type  1   force =    -0.00021894   -0.00003160    0.00008508
     atom   55 type  2   force =     0.00003745    0.00013202    0.00001525

     Total force =     0.001966     Total SCF correction =     0.000092
     Energy error            =      5.5E-06 Ry
     Gradient error          =      5.1E-04 Ry/Bohr

     number of scf cycles    =   2
     number of bfgs steps    =   1

     energy             old  =  -13470.4302626577 Ry
     energy             new  =  -13470.4302681369 Ry

     CASE: energy            _new < energy            _old

     new trust radius        =       0.0009001279 bohr

     The maximum number of steps has been reached.

     End of BFGS Geometry Optimization

ATOMIC_POSITIONS (angstrom)
Se               1.6508891315        1.6837469017        3.7833800375    0   0   0
Se               3.7825029028        1.5953133155        7.4366951881
Se               3.1642919993        3.3592241142        2.8896998588    0   0   0
Se               0.9658378575        3.3746128754        6.6099073451
Se               1.7096930034        0.0137894932        2.0725911422    0   0   0
Se               3.7597828031       -0.0588090530        5.6994213612
Se               6.0005782781        1.6837487630        3.7833778388    0   0   0
Se               8.2817224083        1.6506222349        7.4414239104
Se               7.5139785082        3.3592256570        2.8896932891    0   0   0
Se               5.2216640368        3.3021506275        6.6245707756
Se               6.0593769531        0.0137906478        2.0725890956    0   0   0
Se               8.2444044994       -0.0089149774        5.7339461482
Se              10.3502724514        1.6837465223        3.7833710186    0   0   0
Se              12.5563634094        1.6626247640        7.3914348176
Se              11.8636766103        3.3592235671        2.8896932602    0   0   0
Se               9.6956105415        3.3841803611        6.6053950611
Se              10.4090773600        0.0137883654        2.0725834475    0   0   0
Se              12.5786397872        0.1047491584        5.5707683666
Se               1.6506855375        6.7280182182        3.7833117340    0   0   0
Se               3.4477617127        6.5069257485        7.3728016629
Se               3.1639926932        8.4039276883        2.8898890194    0   0   0
Se               0.9090278117        8.3810989386        6.6128176208
Se               1.7096973664        5.0585201930        2.0721673571    0   0   0
Se               3.6876606036        4.8814800326        5.6224564535
Se               6.0003746542        6.7280201319        3.7833094929    0   0   0
Se               8.2750782998        6.7816500567        7.3633515018
Se               7.5136792004        8.4039291964        2.8898825031    0   0   0
Se               4.8256850784        8.2585919383        6.5741169559
Se               6.0593813340        5.0585212997        2.0721652760    0   0   0
Se               8.1668007653        5.0524416552        5.7174457819
Se              10.3500690377        6.7280178865        3.7833025820    0   0   0
Se              12.4804384746        6.6784258961        7.4410569442
Se              11.8633773323        8.4039271251        2.8898823950    0   0   0
Se               9.9040013421        8.3451445559        6.5517057842
Se              10.4090817311        5.0585189658        2.0721595301    0   0   0
Se              12.5023429535        5.0397919545        5.6951027946
Se               1.6506538675       11.7727124308        3.7839128968    0   0   0
Se               3.2178788001       11.6702187390        7.3074601943
Se               3.1642562799       13.4480706906        2.8903550029    0   0   0
Se               1.0729328414       13.5403865521        6.4254152248
Se               1.7094434988       10.1032963955        2.0726019891    0   0   0
Se               3.4116629027        9.9893312867        5.5620281606
Se               6.0003428289       11.7727143070        3.7839105841    0   0   0
Se               8.9902645640       11.7836799209        7.3761040777
Se               7.5139427049       13.4480722022        2.8903484928    0   0   0
Se               4.9750920290       13.2178020485        6.7715327866
Se               6.0591274158       10.1032975129        2.0725999284    0   0   0
Se               8.5306180774       10.1390773564        5.6590446952
Se              10.3500372389       11.7727120227        3.7839038076    0   0   0
Se              12.6006373709       11.8613071153        7.2988595798
Se              11.8636409029       13.4480700929        2.8903483656    0   0   0
Se              10.0882339133       13.6478490544        6.3734597773
Se              10.4088279598       10.1032953896        2.0725941285    0   0   0
Se              12.5084400105       10.1100516757        5.6673610254
Fl               6.2683100622       10.5664936958        8.1208248025



     Writing config-only to output data dir ./pwscf.save/ :
     XML data file
     NEW-OLD atomic charge density approx. for the potential

     Writing all to output data dir ./pwscf.save/ :
     XML data file, charge density, pseudopotentials, collected wavefunctions

     init_run     :   1961.93s CPU   1977.16s WALL (       1 calls)
     electrons    : 203949.36s CPU 209145.30s WALL (       2 calls)
     update_pot   :      0.87s CPU      1.00s WALL (       2 calls)
     forces       :   4736.21s CPU   4786.82s WALL (       2 calls)

     Called by init_run:
     wfcinit      :   1959.34s CPU   1974.36s WALL (       1 calls)
     potinit      :      0.56s CPU      0.63s WALL (       1 calls)
     hinit0       :      0.39s CPU      0.43s WALL (       1 calls)

     Called by electrons:
     c_bands      : 201916.56s CPU 206699.04s WALL (      27 calls)
     sum_band     :   1794.58s CPU   1954.48s WALL (      27 calls)
     v_of_rho     :     10.69s CPU     53.09s WALL (      28 calls)
     mix_rho      :     17.24s CPU     63.04s WALL (      27 calls)

     Called by c_bands:
     init_us_2    :     77.03s CPU     98.37s WALL (     114 calls)
     cegterg      : 200763.76s CPU 205058.03s WALL (      54 calls)

     Called by *egterg:
     cdiaghg      :   3096.11s CPU   4127.75s WALL (     252 calls)
     h_psi        :  79289.02s CPU  80544.15s WALL (     260 calls)
     g_psi        :     14.69s CPU     16.87s WALL (     204 calls)

     Called by h_psi:
     h_psi:calbec :  36859.47s CPU  37449.25s WALL (     260 calls)
     vloc_psi     :   6326.67s CPU   6782.23s WALL (     260 calls)
                                        0.00s GPU  (     260 calls)
     add_vuspsi   :  36054.60s CPU  36208.51s WALL (     260 calls)

     General routines
     calbec       :  41506.09s CPU  42085.52s WALL (     276 calls)
     fft          :     65.19s CPU     95.89s WALL (     464 calls)
     ffts         :      2.09s CPU      2.52s WALL (     108 calls)
     fftw         :   5941.70s CPU   6413.55s WALL (  631488 calls)
     davcio       :      0.01s CPU     12.34s WALL (       2 calls)

     Parallel routines

     PWSCF        :   2d10h31m CPU   2d12h 0m WALL


   This run was terminated on:  22:53: 7   1Jun2025            

=------------------------------------------------------------------------------=
   JOB DONE.
=------------------------------------------------------------------------------=
