 argument  1 = /usr/share/doc/nwchem/examples/h2o.nw



============================== echo of input deck ==============================
echo
title "VS98/6-31+G* h2o gradient "

start h2o

geometry
   O                    -0.091502   -0.000000   -0.071590
   H                    -0.108430   -0.000000    0.892753
   H                     0.840442    0.000000   -0.320034
end

basis
* library 6-31+G*
end

dft
xc vs98
mult 1
grid fine
end

task dft gradient
================================================================================


                                         
                                         


             Northwest Computational Chemistry Package (NWChem) 7.0.2
             --------------------------------------------------------


                    Environmental Molecular Sciences Laboratory
                       Pacific Northwest National Laboratory
                                Richland, WA 99352

                              Copyright (c) 1994-2020
                       Pacific Northwest National Laboratory
                            Battelle Memorial Institute

             NWChem is an open-source computational chemistry package
                        distributed under the terms of the
                      Educational Community License (ECL) 2.0
             A copy of the license is included with this distribution
                              in the LICENSE.TXT file

                                  ACKNOWLEDGMENT
                                  --------------

            This software and its documentation were developed at the
            EMSL at Pacific Northwest National Laboratory, a multiprogram
            national laboratory, operated for the U.S. Department of Energy
            by Battelle under Contract Number DE-AC05-76RL01830. Support
            for this work was provided by the Department of Energy Office
            of Biological and Environmental Research, Office of Basic
            Energy Sciences, and the Office of Advanced Scientific Computing.


           Job information
           ---------------

    hostname        = Miro
    program         = nwchem
    date            = Sat Jul  6 21:35:02 2024

    compiled        = Sat_Apr_09_17:12:10_2022
    source          = /build/nwchem-f1f4gx/nwchem-7.0.2/build-openmpi
    nwchem branch   = 7.0.2
    nwchem revision = N/A
    ga revision     = 5.8.1
    use scalapack   = T
    input           = /usr/share/doc/nwchem/examples/h2o.nw
    prefix          = h2o.
    data base       = ./h2o.db
    status          = startup
    nproc           =        1
    time left       =     -1s



           Memory information
           ------------------

    heap     =   13107194 doubles =    100.0 Mbytes
    stack    =   13107199 doubles =    100.0 Mbytes
    global   =   26214400 doubles =    200.0 Mbytes (distinct from heap & stack)
    total    =   52428793 doubles =    400.0 Mbytes
    verify   = yes
    hardfail = no 


           Directory information
           ---------------------

  0 permanent = .
  0 scratch   = .




                                NWChem Input Module
                                -------------------


                             VS98/6-31+G* h2o gradient
                             -------------------------

 Scaling coordinates for geometry "geometry" by  1.889725989
 (inverse scale =  0.529177249)

 C2V symmetry detected

          ------
          auto-z
          ------
  no constraints, skipping    0.0000000000000000     
  no constraints, skipping    0.0000000000000000     


                             Geometry "geometry" -> ""
                             -------------------------

 Output coordinates in angstroms (scale by  1.889725989 to convert to a.u.)

  No.       Tag          Charge          X              Y              Z
 ---- ---------------- ---------- -------------- -------------- --------------
    1 O                    8.0000     0.00000000     0.00000000    -0.11617942
    2 H                    1.0000    -0.76993675     0.00000000     0.46471766
    3 H                    1.0000     0.76993675     0.00000000     0.46471766

      Atomic Mass 
      ----------- 

      O                 15.994910
      H                  1.007825


 Effective nuclear repulsion energy (a.u.)       9.1221981784

            Nuclear Dipole moment (a.u.) 
            ----------------------------
        X                 Y               Z
 ---------------- ---------------- ----------------
     0.0000000000     0.0000000000     0.0000000000

      Symmetry information
      --------------------

 Group name             C2v       
 Group number             16
 Group order               4
 No. of unique centers     2

      Symmetry unique atoms

     1    2



                                Z-matrix (autoz)
                                -------- 

 Units are Angstrom for bonds and degrees for angles

      Type          Name      I     J     K     L     M      Value
      ----------- --------  ----- ----- ----- ----- ----- ----------
    1 Stretch                  1     2                       0.96449
    2 Stretch                  1     3                       0.96449
    3 Bend                     2     1     3               105.93281


            XYZ format geometry
            -------------------
     3
 geometry
 O                     0.00000000     0.00000000    -0.11617942
 H                    -0.76993675     0.00000000     0.46471766
 H                     0.76993675     0.00000000     0.46471766

 ==============================================================================
                                internuclear distances
 ------------------------------------------------------------------------------
       center one      |      center two      | atomic units |  angstroms
 ------------------------------------------------------------------------------
    2 H                |   1 O                |     1.82262  |     0.96449
    3 H                |   1 O                |     1.82262  |     0.96449
 ------------------------------------------------------------------------------
                         number of included internuclear distances:          2
 ==============================================================================



 ==============================================================================
                                 internuclear angles
 ------------------------------------------------------------------------------
        center 1       |       center 2       |       center 3       |  degrees
 ------------------------------------------------------------------------------
    2 H                |   1 O                |   3 H                |   105.93
 ------------------------------------------------------------------------------
                            number of included internuclear angles:          1
 ==============================================================================





 Summary of "ao basis" -> "" (cartesian)
 ------------------------------------------------------------------------------
       Tag                 Description            Shells   Functions and Types
 ---------------- ------------------------------  ------  ---------------------
 *                          6-31+G*                   on all atoms 



                                 NWChem DFT Module
                                 -----------------


                             VS98/6-31+G* h2o gradient


                      Basis "ao basis" -> "ao basis" (cartesian)
                      -----
  O (Oxygen)
  ----------
            Exponent  Coefficients 
       -------------- ---------------------------------------------------------
  1 S  5.48467170E+03  0.001831
  1 S  8.25234950E+02  0.013950
  1 S  1.88046960E+02  0.068445
  1 S  5.29645000E+01  0.232714
  1 S  1.68975700E+01  0.470193
  1 S  5.79963530E+00  0.358521

  2 S  1.55396160E+01 -0.110778
  2 S  3.59993360E+00 -0.148026
  2 S  1.01376180E+00  1.130767

  3 P  1.55396160E+01  0.070874
  3 P  3.59993360E+00  0.339753
  3 P  1.01376180E+00  0.727159

  4 S  2.70005800E-01  1.000000

  5 P  2.70005800E-01  1.000000

  6 S  8.45000000E-02  1.000000

  7 P  8.45000000E-02  1.000000

  8 D  8.00000000E-01  1.000000

  H (Hydrogen)
  ------------
            Exponent  Coefficients 
       -------------- ---------------------------------------------------------
  1 S  1.87311370E+01  0.033495
  1 S  2.82539370E+00  0.234727
  1 S  6.40121700E-01  0.813757

  2 S  1.61277800E-01  1.000000



 Summary of "ao basis" -> "ao basis" (cartesian)
 ------------------------------------------------------------------------------
       Tag                 Description            Shells   Functions and Types
 ---------------- ------------------------------  ------  ---------------------
 O                          6-31+G*                  8       19   4s3p1d
 H                          6-31+G*                  2        2   2s




 Summary of "ao basis" -> "ao basis" (cartesian)
 ------------------------------------------------------------------------------
       Tag                 Description            Shells   Functions and Types
 ---------------- ------------------------------  ------  ---------------------
 O                          6-31+G*                  8       19   4s3p1d
 H                          6-31+G*                  2        2   2s


      Symmetry analysis of basis
      --------------------------

        a1         12
        a2          1
        b1          6
        b2          4

  Caching 1-el integrals 

            General Information
            -------------------
          SCF calculation type: DFT
          Wavefunction type:  closed shell.
          No. of atoms     :     3
          No. of electrons :    10
           Alpha electrons :     5
            Beta electrons :     5
          Charge           :     0
          Spin multiplicity:     1
          Use of symmetry is: on ; symmetry adaption is: on 
          Maximum number of iterations:  30
          AO basis - number of functions:    23
                     number of shells:    12
          Convergence on energy requested:  1.00D-06
          Convergence on density requested:  1.00D-05
          Convergence on gradient requested:  5.00D-04

              XC Information
              --------------
                         VS98 Method XC Functional
                          VS98 Exchange Functional  1.000          
                       VS98 Correlation Functional  1.000          

             Grid Information
             ----------------
          Grid used for XC integration:  fine      
          Radial quadrature: Mura-Knowles        
          Angular quadrature: Lebedev. 
          Tag              B.-S. Rad. Rad. Pts. Rad. Cut. Ang. Pts.
          ---              ---------- --------- --------- ---------
          O                   0.60       70           6.0       590
          H                   0.35       60           6.0       590
          Grid pruning is: on 
          Number of quadrature shells:   130
          Spatial weights used:  Erf1

          Convergence Information
          -----------------------
          Convergence aids based upon iterative change in 
          total energy or number of iterations. 
          Levelshifting, if invoked, occurs when the 
          HOMO/LUMO gap drops below (HL_TOL):  1.00D-02
          DIIS, if invoked, will attempt to extrapolate 
          using up to (NFOCK): 10 stored Fock matrices.

                    Damping( 0%)  Levelshifting(0.5)       DIIS
                  --------------- ------------------- ---------------
          dE  on:    start            ASAP                start   
          dE off:    2 iters         30 iters            30 iters 


      Screening Tolerance Information
      -------------------------------
          Density screening/tol_rho:  1.00D-10
          AO Gaussian exp screening on grid/accAOfunc:  14
          CD Gaussian exp screening on grid/accCDfunc:  20
          XC Gaussian exp screening on grid/accXCfunc:  20
          Schwarz screening/accCoul:  1.00D-08


      Superposition of Atomic Density Guess
      -------------------------------------

 Sum of atomic energies:         -75.75320674

      Non-variational initial energy
      ------------------------------

 Total energy =     -75.906790
 1-e energy   =    -121.540041
 2-e energy   =      36.511053
 HOMO         =      -0.476646
 LUMO         =       0.079912


      Symmetry analysis of molecular orbitals - initial
      -------------------------------------------------

  Numbering of irreducible representations: 

     1 a1          2 a2          3 b1          4 b2      

  Orbital symmetries:

     1 a1          2 a1          3 b1          4 a1          5 b2      
     6 a1          7 b1          8 a1          9 b2         10 b1      
    11 a1         12 b1         13 a1         14 b1         15 b2      

   Time after variat. SCF:      0.3
   Time prior to 1st pass:      0.3

 #quartets = 2.083D+03 #integrals = 1.072D+04 #direct =  0.0% #cached =100.0%


 Integral file          = ./h2o.aoints.0
 Record size in doubles =  65536        No. of integs per rec  =  43688
 Max. records in memory =      2        Max. records in file   = 651767
 No. of bits per label  =      8        No. of bits per value  =     64


 Grid_pts file          = ./h2o.gridpts.0
 Record size in doubles =  12289        No. of grid_pts per rec  =   3070
 Max. records in memory =     29        Max. recs in file   =   3475663


           Memory utilization after 1st SCF pass: 
           Heap Space remaining (MW):       12.62            12618018
          Stack Space remaining (MW):       13.11            13106932

   convergence    iter        energy       DeltaE   RMS-Dens  Diis-err    time
 ---------------- ----- ----------------- --------- --------- ---------  ------
 d= 0,ls=0.0,diis     1    -76.4001206862 -8.55D+01  3.40D-02  3.95D-01     0.6
 d= 0,ls=0.0,diis     2    -76.3630744707  3.70D-02  1.97D-02  8.01D-01     0.6
 d= 0,ls=0.0,diis     3    -76.4373619146 -7.43D-02  2.87D-03  2.53D-02     0.7
 d= 0,ls=0.0,diis     4    -76.4397472405 -2.39D-03  3.19D-04  1.88D-04     0.8
 d= 0,ls=0.0,diis     5    -76.4397660549 -1.88D-05  1.76D-05  7.13D-07     0.8
 d= 0,ls=0.0,diis     6    -76.4397661125 -5.76D-08  4.89D-06  4.94D-08     0.9


         Total DFT energy =      -76.439766112521
      One electron energy =     -122.804616634089
           Coulomb energy =       46.572280625442
    Exchange-Corr. energy =       -9.329628282227
 Nuclear repulsion energy =        9.122198178354

 Numeric. integr. density =       10.000000301923

     Total iterative time =      0.6s



                  Occupations of the irreducible representations
                  ----------------------------------------------

                     irrep           alpha         beta
                     --------     --------     --------
                     a1                3.0          3.0
                     a2                0.0          0.0
                     b1                1.0          1.0
                     b2                1.0          1.0


                       DFT Final Molecular Orbital Analysis
                       ------------------------------------

 Vector    1  Occ=2.000000D+00  E=-1.889380D+01  Symmetry=a1
              MO Center= -3.8D-19,  7.5D-29, -1.2D-01, r^2= 1.5D-02
   Bfn.  Coefficient  Atom+Function         Bfn.  Coefficient  Atom+Function  
  ----- ------------  ---------------      ----- ------------  ---------------
     1      0.992618  1 O  s                  2      0.027008  1 O  s          

 Vector    2  Occ=2.000000D+00  E=-9.611251D-01  Symmetry=a1
              MO Center=  1.4D-18,  2.5D-45,  8.9D-02, r^2= 5.0D-01
   Bfn.  Coefficient  Atom+Function         Bfn.  Coefficient  Atom+Function  
  ----- ------------  ---------------      ----- ------------  ---------------
     2      0.477055  1 O  s                  6      0.427625  1 O  s          
     1     -0.209236  1 O  s                 20      0.142088  2 H  s          
    22      0.142088  3 H  s                  5      0.128967  1 O  pz         
     9      0.070930  1 O  pz                10      0.060212  1 O  s          
    21     -0.035113  2 H  s                 23     -0.035113  3 H  s          

 Vector    3  Occ=2.000000D+00  E=-4.992128D-01  Symmetry=b1
              MO Center= -6.4D-17, -8.7D-23,  1.0D-01, r^2= 7.7D-01
   Bfn.  Coefficient  Atom+Function         Bfn.  Coefficient  Atom+Function  
  ----- ------------  ---------------      ----- ------------  ---------------
     3      0.524137  1 O  px                 7      0.268263  1 O  px         
    20     -0.243496  2 H  s                 22      0.243496  3 H  s          
    21     -0.105886  2 H  s                 23      0.105886  3 H  s          
    16      0.067669  1 O  dxz        

 Vector    4  Occ=2.000000D+00  E=-3.441778D-01  Symmetry=a1
              MO Center=  8.4D-17,  5.0D-17, -2.1D-01, r^2= 7.3D-01
   Bfn.  Coefficient  Atom+Function         Bfn.  Coefficient  Atom+Function  
  ----- ------------  ---------------      ----- ------------  ---------------
     5      0.560281  1 O  pz                 9      0.338665  1 O  pz         
     6     -0.312890  1 O  s                  2     -0.192708  1 O  s          
    20      0.145297  2 H  s                 22      0.145297  3 H  s          
     1      0.082711  1 O  s                 13      0.082328  1 O  pz         
    21      0.081236  2 H  s                 23      0.081236  3 H  s          

 Vector    5  Occ=2.000000D+00  E=-2.670428D-01  Symmetry=b2
              MO Center=  1.6D-16,  1.0D-16, -9.6D-02, r^2= 7.1D-01
   Bfn.  Coefficient  Atom+Function         Bfn.  Coefficient  Atom+Function  
  ----- ------------  ---------------      ----- ------------  ---------------
     4      0.644315  1 O  py                 8      0.435106  1 O  py         
    12      0.122626  1 O  py                18      0.060379  1 O  dyz        

 Vector    6  Occ=0.000000D+00  E= 2.047827D-02  Symmetry=a1
              MO Center= -2.4D-15,  7.0D-16,  6.2D-01, r^2= 3.0D+00
   Bfn.  Coefficient  Atom+Function         Bfn.  Coefficient  Atom+Function  
  ----- ------------  ---------------      ----- ------------  ---------------
    10     -1.133646  1 O  s                  6      1.052268  1 O  s          
    13     -0.368181  1 O  pz                 9      0.274183  1 O  pz         
     5      0.248563  1 O  pz                21     -0.175574  2 H  s          
    23     -0.175574  3 H  s                  2      0.138231  1 O  s          
    20     -0.109733  2 H  s                 22     -0.109733  3 H  s          

 Vector    7  Occ=0.000000D+00  E= 1.133536D-01  Symmetry=b1
              MO Center=  4.7D-15,  2.7D-20,  2.8D-01, r^2= 3.6D+00
   Bfn.  Coefficient  Atom+Function         Bfn.  Coefficient  Atom+Function  
  ----- ------------  ---------------      ----- ------------  ---------------
    11     -0.670681  1 O  px                 7      0.645498  1 O  px         
    21      0.611739  2 H  s                 23     -0.611739  3 H  s          
     3      0.393778  1 O  px                20      0.105971  2 H  s          
    22     -0.105971  3 H  s                 16      0.041816  1 O  dxz        

 Vector    8  Occ=0.000000D+00  E= 1.591482D-01  Symmetry=b2
              MO Center= -6.5D-19, -1.5D-14, -1.2D-01, r^2= 4.7D+00
   Bfn.  Coefficient  Atom+Function         Bfn.  Coefficient  Atom+Function  
  ----- ------------  ---------------      ----- ------------  ---------------
    12      1.191013  1 O  py                 8     -0.442908  1 O  py         
     4     -0.282940  1 O  py         

 Vector    9  Occ=0.000000D+00  E= 1.624294D-01  Symmetry=a1
              MO Center= -4.0D-15,  1.4D-14, -8.4D-01, r^2= 4.3D+00
   Bfn.  Coefficient  Atom+Function         Bfn.  Coefficient  Atom+Function  
  ----- ------------  ---------------      ----- ------------  ---------------
    13      1.282421  1 O  pz                 6      0.646958  1 O  s          
    21     -0.383574  2 H  s                 23     -0.383574  3 H  s          
     9     -0.308396  1 O  pz                 5     -0.204693  1 O  pz         
    10     -0.151953  1 O  s                  2      0.062710  1 O  s          
     1     -0.056237  1 O  s                 19     -0.043368  1 O  dzz        

 Vector   10  Occ=0.000000D+00  E= 2.074661D-01  Symmetry=b1
              MO Center=  2.6D-15,  3.8D-32, -4.0D-01, r^2= 4.1D+00
   Bfn.  Coefficient  Atom+Function         Bfn.  Coefficient  Atom+Function  
  ----- ------------  ---------------      ----- ------------  ---------------
    21      1.744100  2 H  s                 23     -1.744100  3 H  s          
    11      1.654804  1 O  px                 7      0.437154  1 O  px         
     3      0.188473  1 O  px                20      0.177668  2 H  s          
    22     -0.177668  3 H  s                 16     -0.051953  1 O  dxz        

 Vector   11  Occ=0.000000D+00  E= 2.364868D-01  Symmetry=a1
              MO Center= -8.1D-16,  7.7D-16,  5.3D-01, r^2= 3.7D+00
   Bfn.  Coefficient  Atom+Function         Bfn.  Coefficient  Atom+Function  
  ----- ------------  ---------------      ----- ------------  ---------------
    10      3.307416  1 O  s                 21     -2.354441  2 H  s          
    23     -2.354441  3 H  s                 13      1.139139  1 O  pz         
     6      0.752100  1 O  s                  9      0.583014  1 O  pz         
     5      0.228863  1 O  pz                20     -0.191478  2 H  s          
    22     -0.191478  3 H  s                  2      0.057654  1 O  s          

 Vector   12  Occ=0.000000D+00  E= 9.270634D-01  Symmetry=b1
              MO Center= -2.3D-15, -2.8D-22,  3.5D-01, r^2= 2.0D+00
   Bfn.  Coefficient  Atom+Function         Bfn.  Coefficient  Atom+Function  
  ----- ------------  ---------------      ----- ------------  ---------------
    21      1.838492  2 H  s                 23     -1.838492  3 H  s          
    11      0.857435  1 O  px                20     -0.747937  2 H  s          
    22      0.747937  3 H  s                  3     -0.614835  1 O  px         
     7      0.508370  1 O  px                16      0.375181  1 O  dxz        

 Vector   13  Occ=0.000000D+00  E= 1.015913D+00  Symmetry=a1
              MO Center=  3.8D-15,  8.0D-17,  4.4D-01, r^2= 1.9D+00
   Bfn.  Coefficient  Atom+Function         Bfn.  Coefficient  Atom+Function  
  ----- ------------  ---------------      ----- ------------  ---------------
    21      2.141213  2 H  s                 23      2.141213  3 H  s          
     6     -1.917368  1 O  s                 10     -1.852402  1 O  s          
     9     -0.883657  1 O  pz                 2      0.775899  1 O  s          
     5      0.658174  1 O  pz                20     -0.648393  2 H  s          
    22     -0.648393  3 H  s                 13     -0.603450  1 O  pz         

 Vector   14  Occ=0.000000D+00  E= 1.102606D+00  Symmetry=b2
              MO Center= -5.2D-16, -2.7D-22, -1.0D-01, r^2= 1.8D+00
   Bfn.  Coefficient  Atom+Function         Bfn.  Coefficient  Atom+Function  
  ----- ------------  ---------------      ----- ------------  ---------------
     8      1.462916  1 O  py                 4     -0.969051  1 O  py         
    12     -0.717743  1 O  py                18      0.068761  1 O  dyz        

 Vector   15  Occ=0.000000D+00  E= 1.106985D+00  Symmetry=b1
              MO Center= -3.1D-16, -2.0D-19, -3.1D-01, r^2= 1.8D+00
   Bfn.  Coefficient  Atom+Function         Bfn.  Coefficient  Atom+Function  
  ----- ------------  ---------------      ----- ------------  ---------------
     7      1.616631  1 O  px                11     -0.824240  1 O  px         
     3     -0.782424  1 O  px                20      0.426356  2 H  s          
    22     -0.426356  3 H  s                 16     -0.333356  1 O  dxz        
    21     -0.250190  2 H  s                 23      0.250190  3 H  s          

 Vector   16  Occ=0.000000D+00  E= 1.130764D+00  Symmetry=a1
              MO Center=  7.5D-16,  8.9D-18, -8.1D-02, r^2= 1.9D+00
   Bfn.  Coefficient  Atom+Function         Bfn.  Coefficient  Atom+Function  
  ----- ------------  ---------------      ----- ------------  ---------------
     9      1.403919  1 O  pz                13     -0.906526  1 O  pz         
     5     -0.711396  1 O  pz                21      0.665215  2 H  s          
    23      0.665215  3 H  s                 20     -0.563190  2 H  s          
    22     -0.563190  3 H  s                 10     -0.520243  1 O  s          
     6     -0.348008  1 O  s                  2      0.259247  1 O  s          

 Vector   17  Occ=0.000000D+00  E= 1.235107D+00  Symmetry=a1
              MO Center= -9.3D-16,  7.6D-17, -1.9D-01, r^2= 1.9D+00
   Bfn.  Coefficient  Atom+Function         Bfn.  Coefficient  Atom+Function  
  ----- ------------  ---------------      ----- ------------  ---------------
     6      3.588548  1 O  s                  2     -1.562425  1 O  s          
    10     -1.251216  1 O  s                 14     -0.679470  1 O  dxx        
    19     -0.417452  1 O  dzz               20     -0.402255  2 H  s          
    22     -0.402255  3 H  s                 17     -0.247598  1 O  dyy        
     5      0.166423  1 O  pz                21      0.100662  2 H  s          

 Vector   18  Occ=0.000000D+00  E= 1.675537D+00  Symmetry=a1
              MO Center= -1.8D-16, -1.7D-17, -1.8D-01, r^2= 6.3D-01
   Bfn.  Coefficient  Atom+Function         Bfn.  Coefficient  Atom+Function  
  ----- ------------  ---------------      ----- ------------  ---------------
    19      1.010558  1 O  dzz               14     -0.545954  1 O  dxx        
    17     -0.401126  1 O  dyy                6     -0.208836  1 O  s          
     9     -0.183617  1 O  pz                20      0.105781  2 H  s          
    22      0.105781  3 H  s                 10      0.077501  1 O  s          
    13      0.075378  1 O  pz                 2      0.070365  1 O  s          

 Vector   19  Occ=0.000000D+00  E= 1.682667D+00  Symmetry=a2
              MO Center=  3.8D-16,  1.7D-19, -1.2D-01, r^2= 6.1D-01
   Bfn.  Coefficient  Atom+Function         Bfn.  Coefficient  Atom+Function  
  ----- ------------  ---------------      ----- ------------  ---------------
    15      1.732051  1 O  dxy        

 Vector   20  Occ=0.000000D+00  E= 1.722293D+00  Symmetry=b2
              MO Center= -1.8D-17,  2.0D-23, -1.5D-01, r^2= 6.1D-01
   Bfn.  Coefficient  Atom+Function         Bfn.  Coefficient  Atom+Function  
  ----- ------------  ---------------      ----- ------------  ---------------
    18      1.729573  1 O  dyz                8     -0.077011  1 O  py         
    12      0.034101  1 O  py         

 Vector   21  Occ=0.000000D+00  E= 2.243228D+00  Symmetry=a1
              MO Center=  8.6D-17, -1.6D-17,  1.4D-02, r^2= 8.7D-01
   Bfn.  Coefficient  Atom+Function         Bfn.  Coefficient  Atom+Function  
  ----- ------------  ---------------      ----- ------------  ---------------
     6      1.499132  1 O  s                 17     -1.102825  1 O  dyy        
    20     -0.877287  2 H  s                 22     -0.877287  3 H  s          
    14      0.764852  1 O  dxx                9      0.742293  1 O  pz         
     2     -0.508793  1 O  s                 10     -0.321038  1 O  s          
    13     -0.170455  1 O  pz                21      0.116829  2 H  s          

 Vector   22  Occ=0.000000D+00  E= 2.605660D+00  Symmetry=b1
              MO Center=  3.1D-16,  3.3D-25, -3.1D-02, r^2= 9.8D-01
   Bfn.  Coefficient  Atom+Function         Bfn.  Coefficient  Atom+Function  
  ----- ------------  ---------------      ----- ------------  ---------------
    16      2.187716  1 O  dxz               20      1.065121  2 H  s          
    22     -1.065121  3 H  s                  7      1.010474  1 O  px         
    21     -0.450678  2 H  s                 23      0.450678  3 H  s          
    11     -0.431978  1 O  px                 3     -0.070111  1 O  px         

 Vector   23  Occ=0.000000D+00  E= 3.680887D+00  Symmetry=a1
              MO Center=  6.7D-17, -1.4D-19, -1.4D-01, r^2= 1.1D+00
   Bfn.  Coefficient  Atom+Function         Bfn.  Coefficient  Atom+Function  
  ----- ------------  ---------------      ----- ------------  ---------------
     6      4.253963  1 O  s                 17     -1.664601  1 O  dyy        
    19     -1.646773  1 O  dzz               14     -1.634155  1 O  dxx        
    21     -0.602801  2 H  s                 23     -0.602801  3 H  s          
     1     -0.493536  1 O  s                 13      0.269687  1 O  pz         
    10     -0.222648  1 O  s                 20      0.143104  2 H  s          


 center of mass
 --------------
 x =   0.00000000 y =   0.00000000 z =  -0.09669421

 moments of inertia (a.u.)
 ------------------
           2.157077564066           0.000000000000           0.000000000000
           0.000000000000           6.424079997041           0.000000000000
           0.000000000000           0.000000000000           4.267002432975

     Multipole analysis of the density
     ---------------------------------

     L   x y z        total         alpha         beta         nuclear
     -   - - -        -----         -----         ----         -------
     0   0 0 0     -0.000000     -5.000000     -5.000000     10.000000

     1   1 0 0      0.000000      0.000000      0.000000      0.000000
     1   0 1 0      0.000000      0.000000      0.000000      0.000000
     1   0 0 1      0.869114      0.434557      0.434557      0.000000

     2   2 0 0     -3.209806     -3.721839     -3.721839      4.233872
     2   1 1 0      0.000000      0.000000      0.000000      0.000000
     2   1 0 1      0.000000      0.000000      0.000000      0.000000
     2   0 2 0     -5.878453     -2.939227     -2.939227      0.000000
     2   0 1 1      0.000000      0.000000      0.000000      0.000000
     2   0 0 2     -4.841838     -3.384939     -3.384939      1.928040


 Parallel integral file used       1 records with       0 large values


            General Information
            -------------------
          SCF calculation type: DFT
          Wavefunction type:  closed shell.
          No. of atoms     :     3
          No. of electrons :    10
           Alpha electrons :     5
            Beta electrons :     5
          Charge           :     0
          Spin multiplicity:     1
          Use of symmetry is: on ; symmetry adaption is: on 
          Maximum number of iterations:  30
          AO basis - number of functions:    23
                     number of shells:    12
          Convergence on energy requested:  1.00D-06
          Convergence on density requested:  1.00D-05
          Convergence on gradient requested:  5.00D-04

              XC Information
              --------------
                         VS98 Method XC Functional
                          VS98 Exchange Functional  1.000          
                       VS98 Correlation Functional  1.000          

             Grid Information
             ----------------
          Grid used for XC integration:  fine      
          Radial quadrature: Mura-Knowles        
          Angular quadrature: Lebedev. 
          Tag              B.-S. Rad. Rad. Pts. Rad. Cut. Ang. Pts.
          ---              ---------- --------- --------- ---------
          O                   0.60       70           6.0       590
          H                   0.35       60           6.0       590
          Grid pruning is: on 
          Number of quadrature shells:   130
          Spatial weights used:  Erf1

          Convergence Information
          -----------------------
          Convergence aids based upon iterative change in 
          total energy or number of iterations. 
          Levelshifting, if invoked, occurs when the 
          HOMO/LUMO gap drops below (HL_TOL):  1.00D-02
          DIIS, if invoked, will attempt to extrapolate 
          using up to (NFOCK): 10 stored Fock matrices.

                    Damping( 0%)  Levelshifting(0.5)       DIIS
                  --------------- ------------------- ---------------
          dE  on:    start            ASAP                start   
          dE off:    2 iters         30 iters            30 iters 


      Screening Tolerance Information
      -------------------------------
          Density screening/tol_rho:  1.00D-10
          AO Gaussian exp screening on grid/accAOfunc:  14
          CD Gaussian exp screening on grid/accCDfunc:  20
          XC Gaussian exp screening on grid/accXCfunc:  20
          Schwarz screening/accCoul:  1.00D-08



                            NWChem DFT Gradient Module
                            --------------------------


                             VS98/6-31+G* h2o gradient



  charge          =   0.00
  wavefunction    = closed shell

  Using symmetry


                         DFT ENERGY GRADIENTS

    atom               coordinates                        gradient
                 x          y          z           x          y          z
   1 O       0.000000   0.000000  -0.219547    0.000000   0.000000   0.004245
   2 H      -1.454969   0.000000   0.878189    0.000558   0.000000  -0.002123
   3 H       1.454969   0.000000   0.878189   -0.000558   0.000000  -0.002123

                 ----------------------------------------
                 |  Time  |  1-e(secs)   |  2-e(secs)   |
                 ----------------------------------------
                 |  CPU   |       0.00   |       0.05   |
                 ----------------------------------------
                 |  WALL  |       0.00   |       0.03   |
                 ----------------------------------------

 Task  times  cpu:        1.9s     wall:        0.8s
 Summary of allocated global arrays
-----------------------------------
  No active global arrays



                         GA Statistics for process    0
                         ------------------------------

       create   destroy   get      put      acc     scatter   gather  read&inc
calls:  217      210     9169     1367     2091        0        0      640     
number of processes/call 0.00e+00 0.00e+00 0.00e+00 0.00e+00 0.00e+00
bytes total:             3.23e+06 8.37e+05 1.64e+06 0.00e+00 0.00e+00 5.12e+03
bytes remote:            0.00e+00 0.00e+00 0.00e+00 0.00e+00 0.00e+00 0.00e+00
Max memory consumed for GA by this process: 165048 bytes
MA_summarize_allocated_blocks: starting scan ...
MA_summarize_allocated_blocks: scan completed: 0 heap blocks, 0 stack blocks
MA usage statistics:

	allocation statistics:
					      heap	     stack
					      ----	     -----
	current number of blocks	         0	         0
	maximum number of blocks	        24	        57
	current total bytes		         0	         0
	maximum total bytes		   3913208	  22510808
	maximum total K-bytes		      3914	     22511
	maximum total M-bytes		         4	        23


                                NWChem Input Module
                                -------------------





                                     CITATION
                                     --------
                Please cite the following reference when publishing
                           results obtained with NWChem:

          E. Aprà, E. J. Bylaska, W. A. de Jong, N. Govind, K. Kowalski,
       T. P. Straatsma, M. Valiev, H. J. J. van Dam, Y. Alexeev, J. Anchell,
       V. Anisimov, F. W. Aquino, R. Atta-Fynn, J. Autschbach, N. P. Bauman,
     J. C. Becca, D. E. Bernholdt, K. Bhaskaran-Nair, S. Bogatko, P. Borowski,
        J. Boschen, J. Brabec, A. Bruner, E. Cauët, Y. Chen, G. N. Chuev,
      C. J. Cramer, J. Daily, M. J. O. Deegan, T. H. Dunning Jr., M. Dupuis,
   K. G. Dyall, G. I. Fann, S. A. Fischer, A. Fonari, H. Früchtl, L. Gagliardi,
      J. Garza, N. Gawande, S. Ghosh, K. Glaesemann, A. W. Götz, J. Hammond,
       V. Helms, E. D. Hermes, K. Hirao, S. Hirata, M. Jacquelin, L. Jensen,
   B. G. Johnson, H. Jónsson, R. A. Kendall, M. Klemm, R. Kobayashi, V. Konkov,
      S. Krishnamoorthy, M. Krishnan, Z. Lin, R. D. Lins, R. J. Littlefield,
      A. J. Logsdail, K. Lopata, W. Ma, A. V. Marenich, J. Martin del Campo,
   D. Mejia-Rodriguez, J. E. Moore, J. M. Mullin, T. Nakajima, D. R. Nascimento,
    J. A. Nichols, P. J. Nichols, J. Nieplocha, A. Otero-de-la-Roza, B. Palmer,
    A. Panyala, T. Pirojsirikul, B. Peng, R. Peverati, J. Pittner, L. Pollack,
   R. M. Richard, P. Sadayappan, G. C. Schatz, W. A. Shelton, D. W. Silverstein,
   D. M. A. Smith, T. A. Soares, D. Song, M. Swart, H. L. Taylor, G. S. Thomas,
            V. Tipparaju, D. G. Truhlar, K. Tsemekhman, T. Van Voorhis,
     Á. Vázquez-Mayagoitia, P. Verma, O. Villa, A. Vishnu, K. D. Vogiatzis,
        D. Wang, J. H. Weare, M. J. Williamson, T. L. Windus, K. Woliński,
        A. T. Wong, Q. Wu, C. Yang, Q. Yu, M. Zacharias, Z. Zhang, Y. Zhao,
                                and R. J. Harrison
                        "NWChem: Past, present, and future
                         J. Chem. Phys. 152, 184102 (2020)
                               doi:10.1063/5.0004997

                                      AUTHORS
                                      -------
     E. Apra, E. J. Bylaska, N. Govind, K. Kowalski, M. Valiev, W. A. de Jong,
      T. P. Straatsma, H. J. J. van Dam, D. Wang, T. L. Windus, N. P. Bauman,
       A. Panyala, J. Hammond, J. Autschbach, K. Bhaskaran-Nair, J. Brabec,
    K. Lopata, S. A. Fischer, S. Krishnamoorthy, M. Jacquelin, W. Ma, M. Klemm,
       O. Villa, Y. Chen, V. Anisimov, F. Aquino, S. Hirata, M. T. Hackler,
           Eric Hermes, L. Jensen, J. E. Moore, J. C. Becca, V. Konjkov,
            D. Mejia-Rodriguez, T. Risthaus, M. Malagoli, A. Marenich,
   A. Otero-de-la-Roza, J. Mullin, P. Nichols, R. Peverati, J. Pittner, Y. Zhao,
        P.-D. Fan, A. Fonari, M. J. Williamson, R. J. Harrison, J. R. Rehr,
      M. Dupuis, D. Silverstein, D. M. A. Smith, J. Nieplocha, V. Tipparaju,
      M. Krishnan, B. E. Van Kuiken, A. Vazquez-Mayagoitia, M. Swart, Q. Wu,
   T. Van Voorhis, A. A. Auer, M. Nooijen, L. D. Crosby, E. Brown, G. Cisneros,
     G. I. Fann, H. Fruchtl, J. Garza, K. Hirao, R. A. Kendall, J. A. Nichols,
       K. Tsemekhman, K. Wolinski, J. Anchell, D. E. Bernholdt, P. Borowski,
       T. Clark, D. Clerc, H. Dachsel, M. J. O. Deegan, K. Dyall, D. Elwood,
      E. Glendening, M. Gutowski, A. C. Hess, J. Jaffe, B. G. Johnson, J. Ju,
        R. Kobayashi, R. Kutteh, Z. Lin, R. Littlefield, X. Long, B. Meng,
      T. Nakajima, S. Niu, L. Pollack, M. Rosing, K. Glaesemann, G. Sandrone,
      M. Stave, H. Taylor, G. Thomas, J. H. van Lenthe, A. T. Wong, Z. Zhang.

 Total times  cpu:        2.5s     wall:        1.3s
