

 Parallel Execution: Process Information
 ==============================================================================
 Rank   Node Name                              NodeID   MyNodeRank  NodeMaster
    0   ubuntu-kch                                0          0          0
    1   ubuntu-kch                                0          1         -1
    2   ubuntu-kch                                0          2         -1
    3   ubuntu-kch                                0          3         -1
 ==============================================================================


May use up to 7570MB of RAM as shared memory on node 0

 *******************************************************************************
 *                                                                             *
 *  --------------------------------                                           *
 *   Amsterdam Modeling Suite (AMS)              2021.102                      *
 *  --------------------------------                                           *
 *                                               r95042 2021-06-07             *
 *                                                                             *
 *                                                                             *
 *                              =================                              *
 *                              |               |                              *
 *                              |     A M S     |                              *
 *                              |               |                              *
 *                              =================                              *
 *                                                                             *
 *                                                                             *
 *   Online information and documentation:  https://www.scm.com/support/       *
 *   E-mail:  support@scm.com   info@scm.com                                   *
 *                                                                             *
 *   Scientific publications using AMS results must be properly referenced     *
 *   See the User Manuals (or the web site) for recommended citations          *
 *   The terms and conditions of the End User License Agreement apply to       *
 *   the use of AMS, https://www.scm.com/license-terms/                        *
 *                                                                             *
 **********************  x86_64_linux_intel / intelmpi  ************************
 
 Licensed to: Dr. Miroslav Ilias / Matej Bel University, Department Chemistry, Fac. Natural Sciences / Banska Bystrica / SLOVAKIA
 SCM User ID: u17848
  
 AMS 2021.102  RunTime: Jul10-2021 20:31:50  ShM Nodes: 1  Procs: 4

 AMS jobname: ams
 AMS jobid  : 172083211

 Start   directory: /home/milias/work/projects/open-collection/theoretical_chemistry/projects/nmr_diplomovky/vanovci/derivative_7/ams/force_field/tmp.milias.865394.0.noindex/
 Results directory: /home/milias/work/projects/open-collection/theoretical_chemistry/projects/nmr_diplomovky/vanovci/derivative_7/ams/force_field/der7_geomopt_freq_uff.results/
 Scratch directory: /tmp/amstmp_ams_kid0.172083211/


 Communication costs MPI_COMM_WORLD:      0.264 usec per message,   0.0033 usec per 8-byte item
 Communication costs for intra-node:      0.253 usec per message,   0.0034 usec per 8-byte item

 RNG seed: -1277006257 -1978778344 284542150 1235860258 -616924562 -464310179 796181676 1195309606
       ***************************
       *  GEOMETRY OPTIMIZATION  *
       ***************************

FIRE optimizer config
       nMin:  5 steps
    dtStart:  0.2500 fs
      dtMax:  1.0000 fs
       fInc:  1.1000
       fDec:  0.5000
 alphaStart:  0.1000
     fAlpha:  0.9900
 Opt. latt.:  F
Convergence criteria:
       Energy:  0.000010 Ha per atom
    Gradients:  0.001000 Ha/Angstrom
         Step:  0.010000 Angstrom
Stress energy:  0.000500 Ha per atom
 
--------
Geometry
--------
Formula: C12H25O3P
Atoms
  Index Symbol   x (angstrom)   y (angstrom)   z (angstrom)
      1      O     3.38873117    -0.86524643     0.20355407
      2      P     2.11323589    -0.75833176    -0.99268304
      3      O     1.67284592     0.88825986    -0.61001874
      4      O     0.91662237    -1.49153561     0.03932825
      5      C     0.55715463     0.85448811     0.24157913
      6      C    -0.11874139    -0.55782172     0.13470006
      7      C     1.07069710     1.15278838     1.66809134
      8      C    -0.38618696     2.00304839    -0.17400409
      9      C    -1.03184591    -0.71088155    -1.11111515
     10      C    -0.96994658    -0.91619395     1.37415497
     11      H     0.22972232     1.35589925     2.36566109
     12      H     1.65873976     0.29762120     2.05962138
     13      H     1.72923223     2.04815727     1.66209234
     14      H    -0.62248889     1.94983743    -1.25774262
     15      H    -1.33272702     1.97019441     0.40546469
     16      H     0.09920644     2.98751157     0.00163131
     17      H    -1.96414784    -0.11702288    -1.00028650
     18      H    -0.51516389    -0.38412299    -2.03772266
     19      H    -1.32038553    -1.77620551    -1.24212446
     20      H    -1.73019107    -0.13142753     1.57141227
     21      H    -1.49852140    -1.88168021     1.21996441
     22      H    -0.33672926    -1.04175673     2.27735519
     23      C     4.57709854    -0.27998924    -0.30186953
     24      C     5.56586934    -0.03477599     0.89413004
     25      H     4.54545703    -1.14343090    -2.32095397
     26      H     5.25759297    -2.22427623    -1.07753732
     27      C     5.97716373    -1.36731307     1.56220883
     28      C     4.86771218     0.84608839     1.95584058
     29      H     6.18085822    -0.81193267    -1.73417614
     30      C     5.18374904    -1.16951852    -1.41370008
     31      H     4.35235976     0.71747605    -0.74874813
     32      C     6.83991065     0.71222548     0.43124109
     33      H     5.56114050     1.08792113     2.79049497
     34      H     3.99578987     0.32053140     2.39601424
     35      H     4.51830503     1.80136815     1.50810162
     36      H     6.56056694    -2.00528545     0.86587035
     37      H     5.08278866    -1.93625167     1.89501957
     38      H     6.61523854    -1.17724746     2.45215314
     39      H     7.44716743     1.03160359     1.30608993
     40      H     6.57430535     1.61831526    -0.15411067
     41      H     7.49535113     0.06598466    -0.18749322
 
Total System Charge             0.00000
Bonding info available!
 
 
------------------------
MM Engine configuration
------------------------
Force field type             UFF
 

Relaxing 123 nuclear degrees of freedom with FIRE.
 Rigid motions settings for: FIRE
 Atomic rotations (x,y,z):     T T T
 Atomic translations (x,y,z):  T T T
 Tolerance:                   1.000000000000000E-006
 
------------------------
UFF Engine configuration
------------------------
UFF Parameters file          general_db
UFF Elements file            elements_db
UFF MMAtomTypes file         mmatomtypes_db
 
  atom type UFF index
          1        16
          2        28
          3         8
          4         1
-----------------------
Assumed Input Structure
-----------------------
Atoms
      O        6.4037738130   -1.6350787792    0.3846614428         O_3   0.000000000000
      P        3.9934370738   -1.4330393307   -1.8758990828       P_3+3   0.000000000000
      O        3.1612206380    1.6785678545   -1.1527683529         O_3   0.000000000000
      O        1.7321652314   -2.8185938040    0.0743196242         O_3   0.000000000000
      C        1.0528696638    1.6147484978    0.4565183883         C_3   0.000000000000
      C       -0.2243887023   -1.0541302688    0.2545462166         C_3   0.000000000000
      C        2.0233242721    2.1784543198    3.1522357799         C_3   0.000000000000
      C       -0.7297875842    3.7852128644   -0.3288200724         C_3   0.000000000000
      C       -1.9499061729   -1.3433714352   -2.0997033186         C_3   0.000000000000
      C       -1.8329333874   -1.7313556373    2.5967765540         C_3   0.000000000000
      H        0.4341122674    2.5622782385    4.4704515615          H_   0.000000000000
      H        3.1345638658    0.5624225632    3.8921203197          H_   0.000000000000
      H        3.2677753248    3.8704562938    3.1408993211          H_   0.000000000000
      H       -1.1763335162    3.6846587278   -2.3767890800          H_   0.000000000000
      H       -2.5184890731    3.7231278536    0.7662172227          H_   0.000000000000
      H        0.1874730086    5.6455786564    0.0030827361          H_   0.000000000000
      H       -3.7117014794   -0.2211412010   -1.8902675291          H_   0.000000000000
      H       -0.9735186632   -0.7258872558   -3.8507377434          H_   0.000000000000
      H       -2.4951670212   -3.3565419462   -2.3472750475          H_   0.000000000000
      H       -3.2695872696   -0.2483620317    2.9695388108          H_   0.000000000000
      H       -2.8317950320   -3.5558602427    2.3053986176          H_   0.000000000000
      H       -0.6363260850   -1.9686349169    4.3035776034          H_   0.000000000000
      C        8.6494626829   -0.5291029782   -0.5704507332         C_3   0.000000000000
      C       10.5179687011   -0.0657170964    1.6896608936         C_3   0.000000000000
      H        8.5896689048   -2.1607712464   -4.3859673579          H_   0.000000000000
      H        9.9354107857   -4.2032728931   -2.0362504161          H_   0.000000000000
      C       11.2952024481   -2.5838472295    2.9521468386         C_3   0.000000000000
      C        9.1986428695    1.5988753315    3.6960030407         C_3   0.000000000000
      H       11.6801292564   -1.5343303736   -3.2771179640          H_   0.000000000000
      C        9.7958659814   -2.2100697022   -2.6715059664         C_3   0.000000000000
      H        8.2247679480    1.3558332407   -1.4149288961          H_   0.000000000000
      C       12.9255578511    1.3459110928    0.8149275471         C_3   0.000000000000
      H       10.5090324942    2.0558729856    5.2732712521          H_   0.000000000000
      H        7.5509485093    0.6057165523    4.5278107067          H_   0.000000000000
      H        8.5383590612    3.4040924555    2.8498990284          H_   0.000000000000
      H       12.3976747483   -3.7894402951    1.6362578260          H_   0.000000000000
      H        9.6050785135   -3.6589853584    3.5810679932          H_   0.000000000000
      H       12.5009890900   -2.2246752828    4.6338978505          H_   0.000000000000
      H       14.0731068509    1.9494482485    2.4681522642          H_   0.000000000000
      H       12.4236365698    3.0581726294   -0.2912269606          H_   0.000000000000
      H       14.1641608523    0.1246929404   -0.3543108434          H_   0.000000000000
End

Bonds
    1      2    1.000000000000
    1     23    1.000000000000
    2      3    1.000000000000
    2      4    1.000000000000
    3      5    1.000000000000
    4      6    1.000000000000
    5      6    1.000000000000
    5      7    1.000000000000
    5      8    1.000000000000
    6      9    1.000000000000
    6     10    1.000000000000
    7     11    1.000000000000
    7     12    1.000000000000
    7     13    1.000000000000
    8     14    1.000000000000
    8     15    1.000000000000
    8     16    1.000000000000
    9     17    1.000000000000
    9     18    1.000000000000
    9     19    1.000000000000
   10     20    1.000000000000
   10     21    1.000000000000
   10     22    1.000000000000
   23     24    1.000000000000
   23     30    1.000000000000
   23     31    1.000000000000
   24     27    1.000000000000
   24     28    1.000000000000
   24     32    1.000000000000
   25     30    1.000000000000
   26     30    1.000000000000
   27     36    1.000000000000
   27     37    1.000000000000
   27     38    1.000000000000
   28     33    1.000000000000
   28     34    1.000000000000
   28     35    1.000000000000
   29     30    1.000000000000
   32     39    1.000000000000
   32     40    1.000000000000
   32     41    1.000000000000
End


Geometry at FIRE step 1:
 
--------
Geometry
--------
Formula: C12H25O3P
Atoms
  Index Symbol   x (angstrom)   y (angstrom)   z (angstrom)
      1      O     3.38873272    -0.86524711     0.20355873
      2      P     2.11323487    -0.75833188    -0.99268559
      3      O     1.67284438     0.88826148    -0.61002009
      4      O     0.91662416    -1.49153723     0.03932846
      5      C     0.55714993     0.85448997     0.24157837
      6      C    -0.11874506    -0.55782218     0.13469907
      7      C     1.07070231     1.15278833     1.66809571
      8      C    -0.38618638     2.00304802    -0.17399963
      9      C    -1.03184579    -0.71087918    -1.11111751
     10      C    -0.96994605    -0.91619424     1.37415406
     11      H     0.22972382     1.35589594     2.36566113
     12      H     1.65874120     0.29762107     2.05961895
     13      H     1.72923323     2.04815669     1.66209171
     14      H    -0.62249119     1.94983965    -1.25773869
     15      H    -1.33272600     1.97019479     0.40546868
     16      H     0.09920600     2.98751078     0.00163362
     17      H    -1.96414884    -0.11702093    -1.00028595
     18      H    -0.51516476    -0.38411912    -2.03772338
     19      H    -1.32038694    -1.77620413    -1.24212897
     20      H    -1.73019309    -0.13142806     1.57141219
     21      H    -1.49851877    -1.88168196     1.21996152
     22      H    -0.33672862    -1.04175712     2.27735292
     23      C     4.57710087    -0.27998856    -0.30186868
     24      C     5.56587155    -0.03477522     0.89413171
     25      H     4.54545522    -1.14343622    -2.32095155
     26      H     5.25759804    -2.22427834    -1.07753510
     27      C     5.97716584    -1.36730769     1.56221073
     28      C     4.86771103     0.84608558     1.95583857
     29      H     6.18085587    -0.81193249    -1.73417756
     30      C     5.18375112    -1.16952352    -1.41369671
     31      H     4.35236312     0.71747311    -0.74874698
     32      C     6.83990591     0.71222375     0.43123848
     33      H     5.56114080     1.08792225     2.79049356
     34      H     3.99578925     0.32053125     2.39601534
     35      H     4.51830221     1.80136643     1.50809714
     36      H     6.56056902    -2.00528080     0.86586835
     37      H     5.08278901    -1.93625154     1.89501862
     38      H     6.61523825    -1.17724435     2.45215447
     39      H     7.44716712     1.03160466     1.30608807
     40      H     6.57430205     1.61831657    -0.15411156
     41      H     7.49534965     0.06598347    -0.18749367
 
Total System Charge             0.00000
Bonding info available!
 
Geometry optimization converged

Optimized geometry:
 
--------
Geometry
--------
Formula: C12H25O3P
Atoms
  Index Symbol   x (angstrom)   y (angstrom)   z (angstrom)
      1      O     3.38873272    -0.86524711     0.20355873
      2      P     2.11323487    -0.75833188    -0.99268559
      3      O     1.67284438     0.88826148    -0.61002009
      4      O     0.91662416    -1.49153723     0.03932846
      5      C     0.55714993     0.85448997     0.24157837
      6      C    -0.11874506    -0.55782218     0.13469907
      7      C     1.07070231     1.15278833     1.66809571
      8      C    -0.38618638     2.00304802    -0.17399963
      9      C    -1.03184579    -0.71087918    -1.11111751
     10      C    -0.96994605    -0.91619424     1.37415406
     11      H     0.22972382     1.35589594     2.36566113
     12      H     1.65874120     0.29762107     2.05961895
     13      H     1.72923323     2.04815669     1.66209171
     14      H    -0.62249119     1.94983965    -1.25773869
     15      H    -1.33272600     1.97019479     0.40546868
     16      H     0.09920600     2.98751078     0.00163362
     17      H    -1.96414884    -0.11702093    -1.00028595
     18      H    -0.51516476    -0.38411912    -2.03772338
     19      H    -1.32038694    -1.77620413    -1.24212897
     20      H    -1.73019309    -0.13142806     1.57141219
     21      H    -1.49851877    -1.88168196     1.21996152
     22      H    -0.33672862    -1.04175712     2.27735292
     23      C     4.57710087    -0.27998856    -0.30186868
     24      C     5.56587155    -0.03477522     0.89413171
     25      H     4.54545522    -1.14343622    -2.32095155
     26      H     5.25759804    -2.22427834    -1.07753510
     27      C     5.97716584    -1.36730769     1.56221073
     28      C     4.86771103     0.84608558     1.95583857
     29      H     6.18085587    -0.81193249    -1.73417756
     30      C     5.18375112    -1.16952352    -1.41369671
     31      H     4.35236312     0.71747311    -0.74874698
     32      C     6.83990591     0.71222375     0.43123848
     33      H     5.56114080     1.08792225     2.79049356
     34      H     3.99578925     0.32053125     2.39601534
     35      H     4.51830221     1.80136643     1.50809714
     36      H     6.56056902    -2.00528080     0.86586835
     37      H     5.08278901    -1.93625154     1.89501862
     38      H     6.61523825    -1.17724435     2.45215447
     39      H     7.44716712     1.03160466     1.30608807
     40      H     6.57430205     1.61831657    -0.15411156
     41      H     7.49534965     0.06598347    -0.18749367
 
Total System Charge             0.00000
Bonding info available!
 
Performing a single point calculation on the final geometry ...

-----------------------
Assumed Input Structure
-----------------------
Atoms
      O        6.4037767545   -1.6350800736    0.3846702538         O_3   0.000000000000
      P        3.9934351423   -1.4330395581   -1.8759038928       P_3+3   0.000000000000
      O        3.1612177294    1.6785709283   -1.1527709079         O_3   0.000000000000
      O        1.7321686131   -2.8185968706    0.0743200240         O_3   0.000000000000
      C        1.0528607732    1.6147520121    0.4565169540         C_3   0.000000000000
      C       -0.2243956510   -1.0541311476    0.2545443558         C_3   0.000000000000
      C        2.0233341221    2.1784542243    3.1522440373         C_3   0.000000000000
      C       -0.7297864824    3.7852121633   -0.3288116443         C_3   0.000000000000
      C       -1.9499059468   -1.3433669502   -2.0997077769         C_3   0.000000000000
      C       -1.8329323937   -1.7313561930    2.5967748328         C_3   0.000000000000
      H        0.4341151058    2.5622719747    4.4704516361          H_   0.000000000000
      H        3.1345665883    0.5624223146    3.8921157292          H_   0.000000000000
      H        3.2677772159    3.8704552040    3.1408981308          H_   0.000000000000
      H       -1.1763378694    3.6846629236   -2.3767816639          H_   0.000000000000
      H       -2.5184871414    3.7231285668    0.7662247610          H_   0.000000000000
      H        0.1874721632    5.6455771687    0.0030871004          H_   0.000000000000
      H       -3.7117033704   -0.2211375166   -1.8902664842          H_   0.000000000000
      H       -0.9735203069   -0.7258799436   -3.8507390998          H_   0.000000000000
      H       -2.4951696988   -3.3565393403   -2.3472835688          H_   0.000000000000
      H       -3.2695910912   -0.2483630330    2.9695386685          H_   0.000000000000
      H       -2.8317900773   -3.5558635614    2.3053931632          H_   0.000000000000
      H       -0.6363248653   -1.9686356467    4.3035733091          H_   0.000000000000
      C        8.6494670985   -0.5291016881   -0.5704491289         C_3   0.000000000000
      C       10.5179728726   -0.0657156458    1.6896640549         C_3   0.000000000000
      H        8.5896654804   -2.1607812991   -4.3859627720          H_   0.000000000000
      H        9.9354203740   -4.2032768811   -2.0362462350          H_   0.000000000000
      C       11.2952064324   -2.5838370535    2.9521504230         C_3   0.000000000000
      C        9.1986407022    1.5988700246    3.6959992465         C_3   0.000000000000
      H       11.6801248021   -1.5343300307   -3.2771206394          H_   0.000000000000
      C        9.7958699077   -2.2100791553   -2.6714995984         C_3   0.000000000000
      H        8.2247742887    1.3558276852   -1.4149267209          H_   0.000000000000
      C       12.9255488882    1.3459078216    0.8149226195         C_3   0.000000000000
      H       10.5090330449    2.0558750954    5.2732685750          H_   0.000000000000
      H        7.5509473254    0.6057162799    4.5278127741          H_   0.000000000000
      H        8.5383537272    3.4040892025    2.8498905576          H_   0.000000000000
      H       12.3976786631   -3.7894315071    1.6362540332          H_   0.000000000000
      H        9.6050791792   -3.6589851176    3.5810661926          H_   0.000000000000
      H       12.5009885423   -2.2246693971    4.6339003571          H_   0.000000000000
      H       14.0731062631    1.9494502748    2.4681487548          H_   0.000000000000
      H       12.4236303405    3.0581750985   -0.2912286424          H_   0.000000000000
      H       14.1641580448    0.1246906881   -0.3543116933          H_   0.000000000000
End

Bonds
    1      2    1.000000000000
    1     23    1.000000000000
    2      3    1.000000000000
    2      4    1.000000000000
    3      5    1.000000000000
    4      6    1.000000000000
    5      6    1.000000000000
    5      7    1.000000000000
    5      8    1.000000000000
    6      9    1.000000000000
    6     10    1.000000000000
    7     11    1.000000000000
    7     12    1.000000000000
    7     13    1.000000000000
    8     14    1.000000000000
    8     15    1.000000000000
    8     16    1.000000000000
    9     17    1.000000000000
    9     18    1.000000000000
    9     19    1.000000000000
   10     20    1.000000000000
   10     21    1.000000000000
   10     22    1.000000000000
   23     24    1.000000000000
   23     30    1.000000000000
   23     31    1.000000000000
   24     27    1.000000000000
   24     28    1.000000000000
   24     32    1.000000000000
   25     30    1.000000000000
   26     30    1.000000000000
   27     36    1.000000000000
   27     37    1.000000000000
   27     38    1.000000000000
   28     33    1.000000000000
   28     34    1.000000000000
   28     35    1.000000000000
   29     30    1.000000000000
   32     39    1.000000000000
   32     40    1.000000000000
   32     41    1.000000000000
End

Scanning modes in range provided by user.


    =====================
     CALCULATION RESULTS
    =====================

Energy (hartree)             0.05042217

Gradients (hartree/bohr)
  Index   Atom            d/dx            d/dy            d/dz
      1      O   -0.0000969368    0.0000459148   -0.0003037490
      2      P    0.0000592921    0.0000150070    0.0001560735
      3      O    0.0000943143   -0.0001000751    0.0000970884
      4      O   -0.0001083826    0.0000981774   -0.0000151736
      5      C    0.0002915281   -0.0001224676    0.0000594983
      6      C    0.0002319840    0.0000231069    0.0000721454
      7      C   -0.0003279845   -0.0000098153   -0.0002604944
      8      C   -0.0000436255    0.0000153896   -0.0002584070
      9      C   -0.0000095545   -0.0001534839    0.0001628486
     10      C   -0.0000240418    0.0000005983    0.0000687274
     11      H   -0.0000932636    0.0001923346    0.0000160453
     12      H   -0.0000879995   -0.0000043273    0.0001617431
     13      H   -0.0000668735    0.0000245977    0.0000575714
     14      H    0.0001345624   -0.0001427023   -0.0002262002
     15      H   -0.0000722295   -0.0000374303   -0.0002269035
     16      H    0.0000166331    0.0000447005   -0.0001181684
     17      H    0.0000582814   -0.0001313173   -0.0000157762
     18      H    0.0000460925   -0.0002439358    0.0000581773
     19      H    0.0000896354   -0.0000918661    0.0002962848
     20      H    0.0001354345    0.0000125792    0.0000234051
     21      H   -0.0001591940    0.0000937756    0.0001914965
     22      H   -0.0000302282    0.0000024867    0.0001522689
     23      C   -0.0001520256   -0.0000276098   -0.0000686059
     24      C   -0.0001360596   -0.0000423953   -0.0001185260
     25      H    0.0001075757    0.0003680752   -0.0001740636
     26      H   -0.0003264806    0.0001561558   -0.0001701192
     27      C   -0.0001254787   -0.0003391369   -0.0001450460
     28      C    0.0000772353    0.0001741207    0.0001232454
     29      H    0.0001446061    0.0000146372    0.0000701678
     30      C   -0.0001360211    0.0003400181   -0.0002344263
     31      H   -0.0002231512    0.0002013991   -0.0000761105
     32      C    0.0002984042    0.0001218124    0.0001523237
     33      H   -0.0000109203   -0.0000781278    0.0000864440
     34      H    0.0000482812    0.0000010412   -0.0000743166
     35      H    0.0001805992    0.0001109918    0.0002921632
     36      H   -0.0001244262   -0.0002908676    0.0000971445
     37      H   -0.0000110280   -0.0000112727    0.0000378684
     38      H    0.0000309148   -0.0002017950   -0.0001121038
     39      H    0.0000219987   -0.0000585806    0.0001068000
     40      H    0.0002050218   -0.0000666573    0.0000506286
     41      H    0.0000935103    0.0000969441    0.0000080306

 -----------------------
 Normal Mode Frequencies
 -----------------------

 Index   Frequency (cm-1)   Intensity (km/mol)
     7            20.2501               0.0000
     8            63.8339               0.0000
     9            80.1311               0.0000
    10            95.6965               0.0000
    11           112.9418               0.0000
    12           217.9715               0.0000
    13           227.8769               0.0000
    14           275.3828               0.0000
    15           291.1248               0.0000
    16           325.2512               0.0000
    17           327.4281               0.0000
    18           329.0748               0.0000
    19           334.5537               0.0000
    20           359.4570               0.0000
    21           397.0449               0.0000
    22           405.2705               0.0000
    23           412.9679               0.0000
    24           441.7721               0.0000
    25           449.1494               0.0000
    26           466.5669               0.0000
    27           488.9305               0.0000
    28           512.6271               0.0000
    29           523.9344               0.0000
    30           537.8785               0.0000
    31           556.0192               0.0000
    32           559.8783               0.0000
    33           583.7918               0.0000
    34           590.0387               0.0000
    35           635.6127               0.0000
    36           650.4144               0.0000
    37           666.6305               0.0000
    38           676.9931               0.0000
    39           701.2096               0.0000
    40           715.7851               0.0000
    41           785.8137               0.0000
    42           868.3199               0.0000
    43          1006.3347               0.0000
    44          1017.4761               0.0000
    45          1028.2571               0.0000
    46          1052.7111               0.0000
    47          1070.8231               0.0000
    48          1077.5581               0.0000
    49          1092.4535               0.0000
    50          1101.2212               0.0000
    51          1120.0636               0.0000
    52          1134.3799               0.0000
    53          1138.0205               0.0000
    54          1143.7907               0.0000
    55          1145.8013               0.0000
    56          1151.1390               0.0000
    57          1155.6251               0.0000
    58          1158.8869               0.0000
    59          1166.1420               0.0000
    60          1168.7094               0.0000
    61          1200.6231               0.0000
    62          1232.1420               0.0000
    63          1324.7137               0.0000
    64          1365.6738               0.0000
    65          1390.1719               0.0000
    66          1404.6692               0.0000
    67          1441.4406               0.0000
    68          1444.0571               0.0000
    69          1451.8169               0.0000
    70          1455.8706               0.0000
    71          1459.9880               0.0000
    72          1462.3732               0.0000
    73          1476.8086               0.0000
    74          1482.9864               0.0000
    75          1486.9163               0.0000
    76          1494.7382               0.0000
    77          1497.1533               0.0000
    78          1500.2787               0.0000
    79          1507.1500               0.0000
    80          1512.9943               0.0000
    81          1517.5295               0.0000
    82          1524.4634               0.0000
    83          1526.3780               0.0000
    84          1543.1334               0.0000
    85          1544.9210               0.0000
    86          1566.6988               0.0000
    87          1612.2826               0.0000
    88          1631.1910               0.0000
    89          1651.3081               0.0000
    90          1670.2144               0.0000
    91          1675.8467               0.0000
    92          1690.0757               0.0000
    93          1709.0726               0.0000
    94          1717.5813               0.0000
    95          1758.4418               0.0000
    96          1759.2426               0.0000
    97          1773.0282               0.0000
    98          1879.9497               0.0000
    99          2835.9247               0.0000
   100          2836.8422               0.0000
   101          2837.8259               0.0000
   102          2838.9325               0.0000
   103          2839.5761               0.0000
   104          2840.2294               0.0000
   105          2842.8219               0.0000
   106          2845.5543               0.0000
   107          2921.0910               0.0000
   108          2939.8547               0.0000
   109          2941.5260               0.0000
   110          2942.4668               0.0000
   111          2943.1066               0.0000
   112          2943.9507               0.0000
   113          2944.9203               0.0000
   114          2945.8819               0.0000
   115          2946.2187               0.0000
   116          2947.1797               0.0000
   117          2948.1195               0.0000
   118          2948.5986               0.0000
   119          2949.5426               0.0000
   120          2949.8973               0.0000
   121          2951.8116               0.0000
   122          2957.3188               0.0000
   123          2959.8936               0.0000

 Zero-point energy (Hartree):     0.3799

 ------------
 Normal Modes
 ------------

 Number of removed rigid normal modes: 6
 
 Mode:     7      Frequency (cm-1):       20.2501     Intensity (km/mol):        0.0000
 Index  Atom      ---- Displacements (x/y/z) ----
     1     O       0.002917  -0.040449   0.003818
     2     P      -0.011094  -0.067013   0.015175
     3     O       0.018432  -0.042489  -0.055302
     4     O      -0.010763   0.000034   0.063007
     5     C       0.021022   0.015281  -0.049988
     6     C       0.002140   0.018173   0.025528
     7     C       0.031179   0.083051  -0.068021
     8     C       0.034342   0.006186  -0.105590
     9     C      -0.010570  -0.032425   0.040918
    10     C       0.008027   0.090472   0.050455
    11     H       0.036929   0.125019  -0.073327
    12     H       0.027023   0.098369  -0.029315
    13     H       0.038352   0.077369  -0.116658
    14     H       0.029541  -0.046474  -0.101974
    15     H       0.036199   0.048212  -0.100139
    16     H       0.047643   0.009040  -0.158245
    17     H      -0.001741  -0.014462   0.018867
    18     H      -0.014179  -0.086060   0.019969
    19     H      -0.025806  -0.035225   0.096935
    20     H       0.019869   0.110177   0.017894
    21     H      -0.005747   0.089614   0.102863
    22     H       0.014199   0.126980   0.051225
    23     C      -0.026792   0.038009   0.023245
    24     C      -0.012427  -0.018472   0.023524
    25     H      -0.009973   0.220642  -0.056508
    26     H      -0.001056   0.116411  -0.149979
    27     C       0.084689  -0.059106  -0.117379
    28     C      -0.038284  -0.165085   0.128490
    29     H      -0.015511   0.183720  -0.021171
    30     C      -0.012868   0.145632  -0.056484
    31     H      -0.073319   0.063252   0.104600
    32     C      -0.069679   0.104841   0.064553
    33     H      -0.028881  -0.198290   0.130308
    34     H       0.010222  -0.265035   0.106601
    35     H      -0.114494  -0.145785   0.229233
    36     H       0.111178   0.047155  -0.192675
    37     H       0.126356  -0.148378  -0.157906
    38     H       0.089931  -0.108176  -0.110648
    39     H      -0.064774   0.051485   0.080640
    40     H      -0.139943   0.149330   0.165360
    41     H      -0.047399   0.208847  -0.020001
 
 Mode:     8      Frequency (cm-1):       63.8339     Intensity (km/mol):        0.0000
 Index  Atom      ---- Displacements (x/y/z) ----
     1     O       0.004588   0.086916   0.013562
     2     P       0.008554   0.035158   0.006117
     3     O      -0.048510   0.026328  -0.026984
     4     O       0.040626   0.010516   0.024451
     5     C      -0.051686   0.005400  -0.032109
     6     C       0.006377  -0.028317   0.014840
     7     C      -0.065955   0.080386  -0.042542
     8     C      -0.101635  -0.050908  -0.075732
     9     C      -0.004108  -0.105010   0.032431
    10     C       0.039703  -0.030794   0.037019
    11     H      -0.075311   0.057678  -0.047265
    12     H      -0.014124   0.127092  -0.017144
    13     H      -0.113935   0.115820  -0.073490
    14     H      -0.095983  -0.099589  -0.074620
    15     H      -0.101838  -0.073236  -0.077087
    16     H      -0.146618  -0.022825  -0.109170
    17     H      -0.026483  -0.138861   0.025151
    18     H      -0.027904  -0.115634   0.015416
    19     H       0.036403  -0.120808   0.070680
    20     H       0.007985  -0.058387   0.024951
    21     H       0.080157  -0.058613   0.072470
    22     H       0.058324   0.022909   0.031505
    23     C       0.010455   0.077473   0.017176
    24     C       0.039620  -0.039475   0.017976
    25     H      -0.045542   0.207773  -0.043058
    26     H      -0.045492   0.111255  -0.125778
    27     C      -0.105063  -0.093851   0.001072
    28     C       0.128411   0.020170   0.027383
    29     H      -0.034176   0.136942  -0.058000
    30     C      -0.032166   0.134423  -0.054808
    31     H       0.023465   0.111057   0.086993
    32     C       0.123370  -0.171752   0.035163
    33     H       0.138351  -0.100591   0.054237
    34     H       0.041311   0.126985  -0.016575
    35     H       0.270093   0.082097   0.048619
    36     H      -0.203262  -0.162513  -0.017908
    37     H      -0.163193   0.012502   0.026510
    38     H      -0.057162  -0.175367  -0.015886
    39     H       0.132851  -0.212391   0.043458
    40     H       0.224708  -0.159335   0.008586
    41     H       0.077764  -0.250427   0.067903
 
 Mode:     9      Frequency (cm-1):       80.1311     Intensity (km/mol):        0.0000
 Index  Atom      ---- Displacements (x/y/z) ----
     1     O      -0.011432  -0.053853  -0.047225
     2     P      -0.012463  -0.071225  -0.050252
     3     O       0.007986  -0.056706  -0.088524
     4     O      -0.020966  -0.039442  -0.033492
     5     C       0.071239  -0.027180  -0.006946
     6     C       0.017608  -0.000117   0.018291
     7     C       0.175660  -0.070090  -0.036151
     8     C       0.086217   0.014524   0.076618
     9     C      -0.041183   0.042917   0.058465
    10     C       0.060713   0.027639   0.056549
    11     H       0.229756  -0.000774   0.009043
    12     H       0.111246  -0.124810  -0.063990
    13     H       0.252051  -0.126761  -0.071319
    14     H       0.008288   0.039952   0.092398
    15     H       0.125426   0.043466   0.141935
    16     H       0.137584  -0.007310   0.057843
    17     H      -0.011872   0.081032   0.101061
    18     H      -0.064794   0.025692   0.039124
    19     H      -0.091083   0.055510   0.066433
    20     H       0.102251   0.057247   0.097895
    21     H       0.013581   0.050545   0.075188
    22     H       0.096598  -0.004057   0.026822
    23     C      -0.039528   0.047300   0.001029
    24     C      -0.070243   0.033525   0.031011
    25     H      -0.009991   0.090516  -0.020115
    26     H       0.190944   0.157075  -0.081153
    27     C      -0.170806   0.031765   0.090438
    28     C      -0.064351   0.102193  -0.024338
    29     H      -0.037347   0.309002  -0.087918
    30     C       0.030062   0.155518  -0.047050
    31     H      -0.089533   0.059241   0.053991
    32     C      -0.008615  -0.051828   0.064428
    33     H      -0.080740   0.102875  -0.010948
    34     H      -0.092224   0.149165  -0.030475
    35     H      -0.010936   0.101389  -0.067477
    36     H      -0.205169  -0.036170   0.124887
    37     H      -0.210908   0.103721   0.105539
    38     H      -0.170631   0.025652   0.091674
    39     H      -0.047093  -0.022171   0.080331
    40     H       0.067022  -0.079645  -0.012919
    41     H       0.001124  -0.126260   0.150723
 
 Mode:    10      Frequency (cm-1):       95.6965     Intensity (km/mol):        0.0000
 Index  Atom      ---- Displacements (x/y/z) ----
     1     O       0.060191  -0.155755  -0.037850
     2     P      -0.015393  -0.036752   0.056981
     3     O       0.101016  -0.031498   0.167416
     4     O      -0.011592   0.003842   0.087558
     5     C       0.003359   0.001346   0.044714
     6     C      -0.014546   0.010038   0.004706
     7     C      -0.139778   0.016688   0.092710
     8     C       0.071806   0.011866  -0.079346
     9     C       0.063207   0.013756  -0.057938
    10     C      -0.112234   0.027758  -0.056827
    11     H      -0.208896   0.011632   0.010939
    12     H      -0.158539   0.027017   0.148185
    13     H      -0.150830   0.025340   0.151256
    14     H       0.189369  -0.004515  -0.104244
    15     H       0.008122   0.039306  -0.181570
    16     H       0.071348   0.005981  -0.045123
    17     H       0.059619   0.019311  -0.117558
    18     H       0.115864   0.012020  -0.028880
    19     H       0.066871   0.015022  -0.075690
    20     H      -0.113904   0.042102  -0.118113
    21     H      -0.117122   0.035992  -0.092156
    22     H      -0.181843   0.020242  -0.009160
    23     C      -0.006883  -0.005687  -0.027252
    24     C      -0.005759   0.008418  -0.035518
    25     H      -0.068446   0.016654  -0.034991
    26     H       0.309909   0.148046  -0.145035
    27     C      -0.036851   0.020516   0.007697
    28     C      -0.003785   0.053401  -0.072513
    29     H      -0.073765   0.369133  -0.227544
    30     C       0.044518   0.138468  -0.111615
    31     H      -0.096720   0.006259   0.043847
    32     C       0.014102  -0.034089  -0.047208
    33     H      -0.027816   0.016392  -0.041912
    34     H      -0.059682   0.108025  -0.117292
    35     H       0.073310   0.072786  -0.091870
    36     H      -0.075938  -0.027851   0.020314
    37     H      -0.045257   0.063415   0.057814
    38     H      -0.008372   0.035791  -0.015995
    39     H      -0.003865   0.011593  -0.051489
    40     H       0.039601  -0.067939  -0.111270
    41     H       0.018247  -0.086680   0.009550
 
 Mode:    11      Frequency (cm-1):      112.9418     Intensity (km/mol):        0.0000
 Index  Atom      ---- Displacements (x/y/z) ----
     1     O      -0.020344   0.079465   0.112901
     2     P      -0.000887  -0.076516   0.071318
     3     O      -0.061858  -0.053011  -0.086906
     4     O      -0.054336  -0.020372   0.059113
     5     C      -0.005636  -0.033737  -0.015071
     6     C      -0.047715   0.002273  -0.045504
     7     C       0.087106  -0.132614  -0.026145
     8     C       0.012459   0.018015   0.091128
     9     C       0.053393   0.028720  -0.125899
    10     C      -0.166115   0.056894  -0.112595
    11     H       0.133406  -0.106758   0.021981
    12     H       0.045772  -0.188225  -0.082665
    13     H       0.146837  -0.176861  -0.021522
    14     H      -0.060070   0.069166   0.104635
    15     H       0.047743   0.038084   0.148172
    16     H       0.065829  -0.009889   0.099787
    17     H       0.052361   0.039960  -0.194059
    18     H       0.126616   0.040658  -0.081015
    19     H       0.052459   0.033719  -0.162330
    20     H      -0.163366   0.079068  -0.194108
    21     H      -0.178313   0.067919  -0.139595
    22     H      -0.248175   0.063102  -0.054526
    23     C      -0.026338   0.058918   0.058122
    24     C       0.056362   0.029879  -0.000945
    25     H      -0.085479   0.159241   0.006390
    26     H      -0.162342   0.049362  -0.039997
    27     C       0.061551   0.014620  -0.036716
    28     C       0.153337   0.047227   0.048008
    29     H      -0.069199   0.009795   0.013983
    30     C      -0.091325   0.069853   0.007852
    31     H      -0.039934   0.068022   0.086351
    32     C       0.051626  -0.003606  -0.077541
    33     H       0.201897  -0.017899   0.026900
    34     H       0.131961   0.096199   0.066226
    35     H       0.199649   0.080961   0.083940
    36     H      -0.030544  -0.011733  -0.089876
    37     H       0.067039   0.053957   0.045090
    38     H       0.151467  -0.011087  -0.095678
    39     H       0.093099   0.014957  -0.113162
    40     H       0.042699  -0.017738  -0.095345
    41     H       0.021248  -0.031661  -0.080401
 
 Mode:    12      Frequency (cm-1):      217.9715     Intensity (km/mol):        0.0000
 Index  Atom      ---- Displacements (x/y/z) ----
     1     O      -0.029651  -0.047859   0.053609
     2     P       0.003787  -0.010826  -0.015680
     3     O       0.027187  -0.026753   0.033332
     4     O      -0.098934  -0.059046  -0.171121
     5     C      -0.009604  -0.014501  -0.021820
     6     C      -0.047921  -0.008056  -0.034611
     7     C      -0.073740   0.000394  -0.002807
     8     C       0.053754   0.014175  -0.091934
     9     C      -0.179464   0.092681   0.053718
    10     C       0.064862  -0.059063   0.029391
    11     H      -0.105505  -0.031637  -0.031801
    12     H      -0.044278   0.025106   0.009762
    13     H      -0.107630   0.025589   0.024694
    14     H       0.147143   0.030017  -0.114081
    15     H       0.005064   0.029045  -0.169821
    16     H       0.061140   0.002822  -0.046837
    17     H      -0.105943   0.194022   0.137438
    18     H      -0.207701   0.027134   0.014967
    19     H      -0.314876   0.126817   0.077310
    20     H       0.153744  -0.012948   0.191372
    21     H      -0.032121  -0.002674   0.007210
    22     H       0.165730  -0.195686  -0.059046
    23     C      -0.019480  -0.011988   0.081523
    24     C       0.050021   0.010621   0.037585
    25     H      -0.053663   0.015846   0.062571
    26     H       0.075198   0.048631   0.014760
    27     C       0.116498   0.036482   0.044582
    28     C       0.128975   0.033458   0.066392
    29     H      -0.060331   0.125001  -0.015170
    30     C      -0.016065   0.048196   0.035959
    31     H      -0.043699  -0.004662   0.110689
    32     C       0.021873   0.007060  -0.068009
    33     H       0.152452  -0.054494   0.073724
    34     H       0.076706   0.095593   0.038764
    35     H       0.214258   0.078847   0.097069
    36     H       0.015308  -0.007270   0.000757
    37     H       0.146168   0.072679   0.184669
    38     H       0.238388   0.067096  -0.048369
    39     H       0.028428   0.130593  -0.117900
    40     H      -0.015926  -0.069115  -0.169094
    41     H       0.036702  -0.041943  -0.003257
 
 Mode:    13      Frequency (cm-1):      227.8769     Intensity (km/mol):        0.0000
 Index  Atom      ---- Displacements (x/y/z) ----
     1     O      -0.011539   0.009577   0.013119
     2     P       0.013652  -0.005503   0.003562
     3     O       0.042047  -0.009775   0.032434
     4     O       0.017819  -0.010881  -0.003841
     5     C       0.027854  -0.006459   0.009976
     6     C       0.024449  -0.007155   0.001956
     7     C      -0.007997   0.001274   0.022433
     8     C       0.051325  -0.003546  -0.026595
     9     C       0.025493   0.002687   0.000705
    10     C       0.027580  -0.017577  -0.000221
    11     H      -0.026467   0.015736  -0.003786
    12     H      -0.029636  -0.002126   0.046901
    13     H       0.001934  -0.006019   0.034126
    14     H       0.095062  -0.003515  -0.036449
    15     H       0.028429  -0.000461  -0.064115
    16     H       0.049329  -0.005556  -0.008612
    17     H       0.029955   0.009151   0.001781
    18     H       0.028366   0.001298   0.001754
    19     H       0.018428   0.005123  -0.003263
    20     H       0.035666  -0.012922   0.012478
    21     H       0.019123  -0.011296  -0.010868
    22     H       0.030365  -0.035260  -0.004470
    23     C      -0.025929   0.013790  -0.000299
    24     C      -0.029316   0.012804  -0.008640
    25     H       0.142042   0.386207  -0.145469
    26     H      -0.518177  -0.082668  -0.154118
    27     C      -0.050094   0.002127  -0.025690
    28     C      -0.025667   0.014454  -0.004607
    29     H       0.143739  -0.331209   0.278404
    30     C      -0.063169  -0.001500  -0.008845
    31     H      -0.023061   0.018508   0.006818
    32     C      -0.029087   0.014678  -0.009694
    33     H      -0.037848  -0.034417   0.019446
    34     H      -0.055684   0.039802  -0.035815
    35     H       0.022236   0.038527   0.008860
    36     H      -0.251766  -0.091016  -0.109543
    37     H      -0.051373   0.111433   0.159801
    38     H       0.129326  -0.023058  -0.149473
    39     H      -0.102762   0.149535  -0.008090
    40     H      -0.025896  -0.066956  -0.137578
    41     H       0.049866  -0.028432   0.119459
 
 Mode:    14      Frequency (cm-1):      275.3828     Intensity (km/mol):        0.0000
 Index  Atom      ---- Displacements (x/y/z) ----
     1     O       0.065664  -0.056784  -0.078995
     2     P      -0.026420  -0.010921  -0.019269
     3     O      -0.058211  -0.004291  -0.027644
     4     O      -0.042154   0.015349   0.022382
     5     C      -0.053965   0.003071  -0.004760
     6     C      -0.060392   0.013822   0.013621
     7     C      -0.019533  -0.016038  -0.015382
     8     C      -0.077662   0.009521   0.046926
     9     C      -0.075195   0.001182   0.025155
    10     C      -0.085810   0.058314   0.019952
    11     H       0.003053   0.020390   0.001656
    12     H      -0.049496  -0.040832  -0.024633
    13     H       0.017945  -0.043917  -0.029781
    14     H      -0.159121  -0.000117   0.065934
    15     H      -0.036246   0.030998   0.116758
    16     H      -0.054133   0.005705   0.001337
    17     H      -0.066417   0.017716   0.018387
    18     H      -0.076494  -0.027885   0.014858
    19     H      -0.095099   0.003019   0.053660
    20     H      -0.073339   0.077172  -0.003245
    21     H      -0.108516   0.068070   0.038356
    22     H      -0.101533   0.064504   0.030890
    23     C       0.087667  -0.023187  -0.036043
    24     C       0.064728  -0.002683   0.004094
    25     H       0.300835   0.229602  -0.114146
    26     H      -0.095179  -0.043996  -0.109559
    27     C       0.075074   0.013010   0.030108
    28     C       0.000924  -0.018118  -0.031436
    29     H       0.286095  -0.148283   0.223464
    30     C       0.152970   0.005201  -0.014446
    31     H       0.073571  -0.030089  -0.039972
    32     C       0.087375   0.023304   0.080638
    33     H      -0.084453  -0.114636   0.067291
    34     H      -0.086104   0.018164  -0.164560
    35     H       0.121082   0.030256  -0.022351
    36     H      -0.057410  -0.064061  -0.010201
    37     H       0.082253   0.087931   0.176549
    38     H       0.201917   0.029163  -0.063239
    39     H      -0.070015   0.222746   0.118666
    40     H       0.112552  -0.098237  -0.117238
    41     H       0.231709  -0.034521   0.290445
 
 Mode:    15      Frequency (cm-1):      291.1248     Intensity (km/mol):        0.0000
 Index  Atom      ---- Displacements (x/y/z) ----
     1     O       0.022410   0.067206  -0.006810
     2     P       0.000002  -0.025856   0.010092
     3     O       0.012941  -0.038676   0.024412
     4     O      -0.031915  -0.028481  -0.006059
     5     C      -0.000688  -0.025383   0.003863
     6     C      -0.028007  -0.012213   0.006172
     7     C      -0.039274  -0.044711   0.023665
     8     C       0.062230   0.003907  -0.043414
     9     C      -0.058353   0.018799   0.025531
    10     C      -0.031658   0.008036   0.017598
    11     H      -0.056883  -0.009482  -0.007414
    12     H      -0.084912  -0.066612   0.047642
    13     H      -0.003104  -0.072088   0.047613
    14     H       0.123697   0.010038  -0.058121
    15     H       0.029528   0.037287  -0.096260
    16     H       0.089953  -0.013748  -0.018600
    17     H      -0.005202   0.104875   0.015833
    18     H      -0.038805  -0.064173   0.007810
    19     H      -0.156925   0.040166   0.070549
    20     H       0.071306   0.089134   0.094941
    21     H      -0.159287   0.083118  -0.015168
    22     H      -0.011066  -0.121744  -0.014333
    23     C       0.031596   0.045135  -0.040143
    24     C       0.023825   0.034894  -0.026180
    25     H       0.063163   0.053074  -0.036070
    26     H      -0.154444  -0.036198   0.018729
    27     C      -0.043436  -0.000826  -0.062569
    28     C       0.008212   0.039114  -0.039600
    29     H       0.073387  -0.169668   0.068228
    30     C       0.004677  -0.028104   0.003595
    31     H       0.052865   0.035319  -0.070910
    32     C       0.073344   0.023619   0.084275
    33     H      -0.012666   0.021144  -0.017106
    34     H      -0.017205   0.056235  -0.070064
    35     H       0.041576   0.050208  -0.043620
    36     H       0.142484   0.106642  -0.008427
    37     H      -0.078113  -0.091724  -0.312078
    38     H      -0.250208  -0.056339   0.096325
    39     H       0.180603  -0.327430   0.140162
    40     H       0.120884   0.240241   0.398924
    41     H      -0.044618   0.154203  -0.169854
 
 Mode:    16      Frequency (cm-1):      325.2512     Intensity (km/mol):        0.0000
 Index  Atom      ---- Displacements (x/y/z) ----
     1     O       0.005212  -0.019341  -0.003224
     2     P      -0.002237   0.000264  -0.001962
     3     O       0.003344   0.000079   0.005994
     4     O      -0.010389  -0.003162  -0.014333
     5     C      -0.000274   0.004253   0.001656
     6     C      -0.007155  -0.000741  -0.002464
     7     C       0.003154   0.018701  -0.004255
     8     C       0.015425   0.017277   0.007567
     9     C      -0.022099   0.001895   0.007556
    10     C      -0.009070  -0.030820  -0.015942
    11     H       0.001558  -0.040396   0.011215
    12     H       0.067209   0.051921  -0.028096
    13     H      -0.055405   0.062231  -0.003229
    14     H      -0.122396  -0.060293   0.042522
    15     H       0.089010   0.123041   0.135173
    16     H       0.100347   0.003307  -0.145888
    17     H       0.017276   0.069053  -0.019903
    18     H      -0.001741  -0.079386  -0.009400
    19     H      -0.099409   0.016240   0.060001
    20     H      -0.233001  -0.198480  -0.207612
    21     H       0.266931  -0.196955   0.074685
    22     H      -0.066870   0.257654   0.062046
    23     C       0.007244  -0.015891  -0.000899
    24     C       0.010810  -0.003853   0.005286
    25     H      -0.024858   0.056115  -0.030751
    26     H      -0.060155  -0.013325  -0.072255
    27     C       0.020298   0.016952   0.034930
    28     C      -0.001792   0.009384  -0.013325
    29     H      -0.014728  -0.027693  -0.037250
    30     C      -0.021407   0.001366  -0.033940
    31     H       0.005866  -0.012017   0.009011
    32     C       0.015692  -0.000198   0.030363
    33     H       0.035760   0.159286  -0.088046
    34     H       0.087146  -0.049578   0.095724
    35     H      -0.147060  -0.067978  -0.065335
    36     H      -0.172013  -0.091292  -0.024969
    37     H       0.031746   0.128278   0.256720
    38     H       0.208107   0.037449  -0.103046
    39     H       0.138141  -0.260005   0.041226
    40     H       0.015856   0.163055   0.283175
    41     H      -0.098380   0.099378  -0.188760
 
 Mode:    17      Frequency (cm-1):      327.4281     Intensity (km/mol):        0.0000
 Index  Atom      ---- Displacements (x/y/z) ----
     1     O      -0.006432   0.015301   0.000432
     2     P      -0.001050  -0.000018  -0.002479
     3     O       0.008498  -0.005486   0.010906
     4     O      -0.005856  -0.006423  -0.009044
     5     C       0.006659  -0.001310   0.006704
     6     C      -0.004045  -0.004681   0.004093
     7     C       0.001277   0.007744   0.006447
     8     C       0.039468   0.016512  -0.002046
     9     C      -0.020532  -0.001412   0.016391
    10     C      -0.012997  -0.032995  -0.011159
    11     H      -0.002989   0.058204  -0.012120
    12     H      -0.039121  -0.007578   0.033141
    13     H       0.039533  -0.020115  -0.002864
    14     H      -0.040301  -0.038422   0.018386
    15     H       0.082997   0.101026   0.074708
    16     H       0.110414   0.000505  -0.103874
    17     H       0.044734   0.110185  -0.034366
    18     H       0.016537  -0.134644  -0.009263
    19     H      -0.145703   0.021765   0.102163
    20     H      -0.274378  -0.226457  -0.243509
    21     H       0.308205  -0.226750   0.097532
    22     H      -0.090296   0.306783   0.086508
    23     C      -0.006683   0.018232   0.000718
    24     C      -0.005647   0.010128  -0.005214
    25     H       0.036736  -0.024006   0.020198
    26     H       0.014250   0.005925   0.062942
    27     C      -0.020738  -0.012232  -0.037403
    28     C       0.012794   0.003226   0.011637
    29     H       0.027550  -0.006618   0.057608
    30     C       0.016955  -0.002383   0.034217
    31     H      -0.005146   0.013903  -0.009868
    32     C      -0.003525   0.004546  -0.018123
    33     H      -0.018204  -0.133830   0.077420
    34     H      -0.068721   0.060799  -0.084959
    35     H       0.147954   0.074307   0.057848
    36     H       0.183057   0.104250   0.024101
    37     H      -0.035127  -0.129492  -0.277516
    38     H      -0.223346  -0.037892   0.112265
    39     H      -0.094966   0.189775  -0.022818
    40     H       0.001226  -0.112350  -0.201285
    41     H       0.081954  -0.066550   0.142830
 
 Mode:    18      Frequency (cm-1):      329.0748     Intensity (km/mol):        0.0000
 Index  Atom      ---- Displacements (x/y/z) ----
     1     O      -0.001685   0.006643   0.003803
     2     P       0.003475   0.013002   0.001740
     3     O       0.007123   0.006114   0.015107
     4     O       0.004223   0.001921  -0.004085
     5     C      -0.005236  -0.000850  -0.005570
     6     C      -0.004553  -0.007074  -0.011445
     7     C      -0.026613  -0.015434   0.006062
     8     C       0.030683   0.025894  -0.000469
     9     C      -0.003037  -0.047080  -0.005927
    10     C       0.001030   0.003852  -0.004755
    11     H      -0.034222  -0.098490   0.020395
    12     H       0.030192   0.009147  -0.025790
    13     H      -0.090178   0.031074   0.039332
    14     H      -0.373688  -0.211990   0.102840
    15     H       0.240290   0.349957   0.360902
    16     H       0.281390  -0.015946  -0.454790
    17     H      -0.024898  -0.082483   0.004951
    18     H      -0.018342  -0.034939  -0.010125
    19     H       0.038699  -0.059877  -0.000939
    20     H       0.144428   0.113542   0.113489
    21     H      -0.174106   0.108369  -0.059755
    22     H       0.041764  -0.181300  -0.057137
    23     C      -0.002241   0.004226   0.003704
    24     C      -0.002599  -0.000894   0.000770
    25     H       0.001152   0.004610   0.003589
    26     H       0.001179   0.005889   0.006137
    27     C      -0.004767  -0.004282  -0.003293
    28     C      -0.002259  -0.002729   0.003472
    29     H       0.000004   0.007473   0.007968
    30     C      -0.000683   0.005375   0.004842
    31     H      -0.000355   0.005169   0.004276
    32     C      -0.003742  -0.005794  -0.011823
    33     H       0.015697   0.048581  -0.026487
    34     H       0.035290  -0.030034   0.047020
    35     H      -0.059855  -0.029434  -0.008298
    36     H       0.029302   0.014290   0.007770
    37     H      -0.006745  -0.024724  -0.043538
    38     H      -0.039729  -0.005899   0.021960
    39     H      -0.028657   0.058509  -0.018489
    40     H      -0.003742  -0.046880  -0.075375
    41     H       0.020973  -0.033859   0.042213
 
 Mode:    19      Frequency (cm-1):      334.5537     Intensity (km/mol):        0.0000
 Index  Atom      ---- Displacements (x/y/z) ----
     1     O       0.010840   0.007877   0.017992
     2     P       0.008949  -0.009674   0.016274
     3     O      -0.004991  -0.006702  -0.001193
     4     O      -0.014800  -0.007622  -0.006172
     5     C      -0.005368  -0.000864  -0.000104
     6     C      -0.009444   0.001745  -0.000929
     7     C      -0.002389   0.007151  -0.003624
     8     C      -0.009373  -0.002376  -0.003540
     9     C      -0.018330   0.026743   0.001149
    10     C      -0.007632  -0.004613  -0.002312
    11     H      -0.006024  -0.133113   0.031744
    12     H       0.134485   0.072810  -0.063916
    13     H      -0.128996   0.100301   0.013732
    14     H       0.068941   0.043547  -0.023588
    15     H      -0.049174  -0.060093  -0.071856
    16     H      -0.056073   0.005625   0.079321
    17     H       0.005165   0.065145  -0.005649
    18     H      -0.003760  -0.003611  -0.001450
    19     H      -0.064400   0.038392   0.011457
    20     H      -0.019482  -0.015417  -0.004845
    21     H       0.007052  -0.013057  -0.000365
    22     H      -0.002795   0.006620  -0.003583
    23     C       0.010274   0.008880   0.007909
    24     C       0.012525  -0.003932  -0.001088
    25     H       0.066234   0.133897  -0.037836
    26     H      -0.067798   0.015148  -0.047637
    27     C      -0.003037  -0.011841  -0.004627
    28     C      -0.017871  -0.002738  -0.019458
    29     H       0.061172  -0.017730   0.075066
    30     C       0.016043   0.035394  -0.004550
    31     H       0.005426   0.011811   0.016161
    32     C       0.029581  -0.027599  -0.009434
    33     H       0.090486   0.402810  -0.228523
    34     H       0.249112  -0.198589   0.288198
    35     H      -0.438605  -0.212333  -0.137582
    36     H       0.121566   0.053736   0.036809
    37     H      -0.012295  -0.086714  -0.158172
    38     H      -0.141252  -0.011966   0.094259
    39     H      -0.037175   0.114991  -0.016111
    40     H       0.049060  -0.122100  -0.163222
    41     H       0.095929  -0.099462   0.132305
 
 Mode:    20      Frequency (cm-1):      359.4570     Intensity (km/mol):        0.0000
 Index  Atom      ---- Displacements (x/y/z) ----
     1     O       0.001045   0.033626   0.002026
     2     P       0.012033   0.038510   0.001437
     3     O       0.004149   0.023314   0.010514
     4     O       0.015176   0.009175   0.000197
     5     C       0.001809  -0.007489  -0.003138
     6     C      -0.001177  -0.008319  -0.011629
     7     C       0.010146  -0.054972   0.007875
     8     C       0.014510  -0.007955  -0.002420
     9     C      -0.012678  -0.073691   0.001999
    10     C      -0.014945   0.043259   0.000994
    11     H       0.019075  -0.003879   0.003312
    12     H      -0.044774  -0.095069   0.007218
    13     H       0.070688  -0.100312   0.023080
    14     H       0.087860   0.011050  -0.021682
    15     H      -0.019790  -0.039310  -0.061763
    16     H      -0.007540  -0.008999   0.063988
    17     H       0.198171   0.294562  -0.225362
    18     H       0.138007  -0.566768  -0.085988
    19     H      -0.412210  -0.008351   0.338788
    20     H       0.058333   0.108390   0.025634
    21     H      -0.110912   0.094621   0.014621
    22     H      -0.011768  -0.026607  -0.011306
    23     C       0.005672   0.003986  -0.004850
    24     C      -0.006294  -0.008814  -0.000898
    25     H      -0.044741  -0.073141   0.021622
    26     H       0.077214   0.012051   0.016361
    27     C      -0.000429  -0.004368   0.008099
    28     C      -0.023679  -0.023038   0.001128
    29     H      -0.039941   0.056820  -0.065072
    30     C      -0.001824  -0.002058  -0.007081
    31     H       0.020486   0.006504  -0.008061
    32     C      -0.016009  -0.006712  -0.012889
    33     H      -0.019461   0.012143  -0.013160
    34     H       0.001620  -0.049726   0.022703
    35     H      -0.068825  -0.042138  -0.003658
    36     H      -0.096848  -0.062146  -0.017690
    37     H       0.005887   0.053179   0.124751
    38     H       0.100058   0.005521  -0.065849
    39     H      -0.032511   0.042637  -0.020133
    40     H      -0.021992  -0.037089  -0.057398
    41     H      -0.004568  -0.028707   0.020324
 
 Mode:    21      Frequency (cm-1):      397.0449     Intensity (km/mol):        0.0000
 Index  Atom      ---- Displacements (x/y/z) ----
     1     O      -0.006413  -0.134605  -0.019203
     2     P      -0.009550  -0.006237  -0.018945
     3     O       0.010757   0.015420   0.006497
     4     O       0.004687   0.004357  -0.012428
     5     C       0.003606   0.013987   0.005332
     6     C       0.018353   0.009724  -0.016118
     7     C       0.015842   0.054314  -0.006683
     8     C      -0.075475  -0.022200   0.061390
     9     C       0.038481  -0.011352  -0.036118
    10     C       0.028821   0.032531  -0.014197
    11     H       0.019758  -0.137425   0.052418
    12     H       0.192294   0.144683  -0.082940
    13     H      -0.162085   0.186989  -0.000824
    14     H      -0.123011  -0.020487   0.072562
    15     H      -0.047691  -0.073613   0.106673
    16     H      -0.127563   0.003856   0.052115
    17     H       0.136987   0.163214  -0.166084
    18     H       0.130973  -0.248166  -0.068571
    19     H      -0.154798   0.022271   0.114705
    20     H       0.083801   0.072743   0.032267
    21     H      -0.039016   0.071696  -0.019062
    22     H       0.058909  -0.027949  -0.041899
    23     C      -0.030746  -0.040620   0.030184
    24     C      -0.008840   0.001766   0.020343
    25     H       0.072737   0.219876  -0.068669
    26     H      -0.213567  -0.033513  -0.097098
    27     C       0.002784   0.012149   0.025426
    28     C       0.065985   0.058314   0.021868
    29     H       0.061670  -0.128197   0.123927
    30     C      -0.023640   0.011989  -0.004794
    31     H      -0.072388  -0.035388   0.064025
    32     C      -0.023882   0.008306  -0.015870
    33     H       0.078549  -0.029765   0.039503
    34     H       0.007089   0.138412  -0.009656
    35     H       0.181937   0.107203   0.034184
    36     H       0.209667   0.134933   0.081746
    37     H      -0.002044  -0.117717  -0.212064
    38     H      -0.211912   0.015798   0.178923
    39     H       0.066700  -0.122039  -0.031078
    40     H      -0.051618   0.092432   0.125340
    41     H      -0.079593   0.079363  -0.141890
 
 Mode:    22      Frequency (cm-1):      405.2705     Intensity (km/mol):        0.0000
 Index  Atom      ---- Displacements (x/y/z) ----
     1     O      -0.051296  -0.026310  -0.092582
     2     P      -0.071847   0.058577  -0.091640
     3     O       0.044600   0.022219   0.056904
     4     O       0.003456   0.030244   0.005233
     5     C       0.026882  -0.017488   0.012884
     6     C      -0.013243  -0.004412   0.003874
     7     C       0.046066  -0.093464   0.034231
     8     C       0.074260  -0.036404  -0.055256
     9     C      -0.020085  -0.148632   0.026770
    10     C      -0.063869   0.090852   0.014604
    11     H       0.061953  -0.003963   0.025778
    12     H      -0.028732  -0.155244   0.027809
    13     H       0.146005  -0.168397   0.055619
    14     H       0.197589  -0.044576  -0.083679
    15     H       0.007230  -0.062922  -0.171867
    16     H       0.049293  -0.038062   0.020239
    17     H      -0.161232  -0.382696   0.096576
    18     H      -0.141019   0.042353   0.029081
    19     H       0.256742  -0.220856  -0.028579
    20     H      -0.110221   0.082828  -0.118231
    21     H      -0.023220   0.056901   0.093935
    22     H      -0.128799   0.208071   0.072982
    23     C      -0.026419   0.009863   0.006242
    24     C       0.002186   0.012195   0.036094
    25     H       0.038800   0.071993  -0.004147
    26     H      -0.120899  -0.008089   0.027590
    27     C       0.031059   0.028717   0.047137
    28     C       0.096658   0.029044   0.089357
    29     H       0.031826  -0.084796   0.093929
    30     C      -0.015563   0.002514   0.032401
    31     H      -0.017044   0.009799   0.005212
    32     C       0.005965  -0.012324  -0.012379
    33     H       0.209180   0.168717  -0.040476
    34     H       0.209587  -0.028086   0.253457
    35     H      -0.070265  -0.041900   0.072525
    36     H       0.105065   0.071754   0.068581
    37     H       0.035604  -0.021843  -0.029424
    38     H      -0.038833   0.044990   0.095923
    39     H       0.060587  -0.036265  -0.041713
    40     H       0.000618  -0.000097   0.009303
    41     H      -0.023641  -0.013449  -0.040380
 
 Mode:    23      Frequency (cm-1):      412.9679     Intensity (km/mol):        0.0000
 Index  Atom      ---- Displacements (x/y/z) ----
     1     O       0.004137  -0.032051   0.058875
     2     P       0.033226   0.031432   0.036624
     3     O       0.003297   0.026483   0.013213
     4     O      -0.010712  -0.004878  -0.045019
     5     C      -0.005331   0.002106  -0.007635
     6     C      -0.003151  -0.000955  -0.025330
     7     C       0.016689  -0.004972  -0.010778
     8     C      -0.034893  -0.016631   0.002238
     9     C      -0.027188  -0.028095  -0.007687
    10     C       0.019824   0.023503  -0.005192
    11     H       0.045513   0.436149  -0.101785
    12     H      -0.341058  -0.175048   0.165594
    13     H       0.391995  -0.281356  -0.101829
    14     H      -0.092881  -0.047451   0.016896
    15     H      -0.006810  -0.004118   0.049792
    16     H      -0.027399  -0.012896  -0.043221
    17     H      -0.062462  -0.089044   0.027030
    18     H      -0.061518   0.021374  -0.009330
    19     H       0.036776  -0.044350  -0.023931
    20     H       0.012907   0.020037  -0.019083
    21     H       0.030430   0.013263   0.026884
    22     H       0.017367   0.057115  -0.001111
    23     C      -0.000886  -0.036020   0.037722
    24     C       0.016284  -0.034067   0.004969
    25     H      -0.035689   0.208355  -0.062464
    26     H      -0.131898   0.010618  -0.143668
    27     C       0.067190  -0.002098   0.043558
    28     C      -0.057962   0.003078  -0.079295
    29     H      -0.023441  -0.000688   0.004337
    30     C      -0.056064   0.046318  -0.050192
    31     H      -0.010113  -0.016640   0.082773
    32     C       0.006508  -0.027544  -0.005011
    33     H      -0.107798   0.074341  -0.061950
    34     H      -0.076305   0.011237  -0.099505
    35     H      -0.058988  -0.029644  -0.152595
    36     H       0.221177   0.084145   0.088111
    37     H       0.084884  -0.112901  -0.103666
    38     H      -0.084728   0.050177   0.142948
    39     H       0.023039  -0.062614  -0.003849
    40     H      -0.001951  -0.006044   0.032703
    41     H      -0.007907  -0.006737  -0.042242
 
 Mode:    24      Frequency (cm-1):      441.7721     Intensity (km/mol):        0.0000
 Index  Atom      ---- Displacements (x/y/z) ----
     1     O      -0.055134   0.029081  -0.035262
     2     P      -0.080105  -0.006656  -0.027407
     3     O      -0.052208   0.001639  -0.060188
     4     O       0.032805   0.058465   0.108546
     5     C      -0.021342   0.033977  -0.018602
     6     C      -0.000990   0.005117   0.038463
     7     C      -0.018205  -0.035922  -0.020582
     8     C       0.096953   0.128827  -0.041652
     9     C       0.072285  -0.007227   0.001357
    10     C       0.028737  -0.165191   0.012540
    11     H      -0.030960  -0.162174  -0.000466
    12     H       0.032242  -0.032281  -0.092121
    13     H      -0.079038   0.007718   0.044087
    14     H       0.204282   0.186982  -0.070204
    15     H       0.039907   0.149950  -0.136552
    16     H       0.152842   0.088743   0.054483
    17     H       0.126087   0.087274  -0.079084
    18     H       0.136321  -0.097003   0.005311
    19     H      -0.005125   0.008394   0.047256
    20     H       0.050415  -0.181103   0.145818
    21     H       0.022389  -0.146902  -0.105275
    22     H       0.071435  -0.298049  -0.031801
    23     C      -0.017190  -0.013395  -0.003292
    24     C       0.026391  -0.034571   0.018600
    25     H      -0.083294   0.134439  -0.054651
    26     H      -0.136422   0.018612  -0.079913
    27     C       0.144975   0.042545   0.111799
    28     C      -0.035670  -0.020854  -0.045128
    29     H      -0.059271  -0.002318  -0.000523
    30     C      -0.088417   0.032145  -0.050593
    31     H       0.000810   0.000361   0.021183
    32     C       0.041996  -0.046170   0.049817
    33     H      -0.117906  -0.063301   0.033620
    34     H      -0.103002   0.010038  -0.146564
    35     H       0.058001   0.002812  -0.069668
    36     H       0.306746   0.119889   0.171178
    37     H       0.187242  -0.080730   0.003459
    38     H       0.009418   0.155415   0.191407
    39     H       0.001617  -0.007431   0.066062
    40     H       0.067146  -0.075430  -0.002747
    41     H       0.060094  -0.073679   0.092348
 
 Mode:    25      Frequency (cm-1):      449.1494     Intensity (km/mol):        0.0000
 Index  Atom      ---- Displacements (x/y/z) ----
     1     O      -0.034593   0.023090  -0.054762
     2     P      -0.043777  -0.039568  -0.062028
     3     O      -0.026299  -0.040580   0.004003
     4     O       0.010402  -0.032765   0.000724
     5     C       0.001720  -0.016182   0.047456
     6     C       0.022961  -0.016554   0.027571
     7     C      -0.032577   0.115678   0.051091
     8     C      -0.019227  -0.038831   0.023997
     9     C       0.084736   0.072450  -0.031436
    10     C       0.000999  -0.032622   0.001001
    11     H      -0.044541   0.535249  -0.078468
    12     H      -0.331585   0.023912   0.307156
    13     H       0.265580  -0.102438  -0.086840
    14     H      -0.095932  -0.089854   0.044585
    15     H       0.023273   0.024523   0.099638
    16     H       0.011666  -0.034573  -0.087356
    17     H       0.162775   0.207532  -0.118125
    18     H       0.184371  -0.043621  -0.019229
    19     H      -0.070422   0.114807  -0.011502
    20     H       0.061032   0.011670   0.049332
    21     H      -0.070702   0.015941  -0.058608
    22     H       0.000308  -0.107869  -0.009044
    23     C      -0.013471   0.026653  -0.014465
    24     C       0.003838   0.017980   0.007854
    25     H       0.020433  -0.053677   0.024901
    26     H       0.012112   0.007028   0.074192
    27     C       0.012829   0.018251  -0.003261
    28     C       0.041837   0.000877   0.052882
    29     H       0.010735  -0.009910   0.031686
    30     C       0.009910  -0.006270   0.032517
    31     H      -0.003858   0.018523  -0.034794
    32     C       0.030252  -0.013712   0.006571
    33     H       0.119806   0.138574  -0.049587
    34     H       0.142346  -0.074033   0.178862
    35     H      -0.129533  -0.070712   0.038181
    36     H      -0.020344   0.002637  -0.015745
    37     H       0.016724   0.035555   0.035656
    38     H       0.053653   0.015352  -0.031057
    39     H       0.034515  -0.008343   0.002070
    40     H       0.055741  -0.022717  -0.017039
    41     H       0.026309  -0.040635   0.029026
 
 Mode:    26      Frequency (cm-1):      466.5669     Intensity (km/mol):        0.0000
 Index  Atom      ---- Displacements (x/y/z) ----
     1     O      -0.055467   0.101541   0.005747
     2     P      -0.008437  -0.011754  -0.041212
     3     O       0.033169  -0.030618   0.037330
     4     O      -0.018851  -0.068621  -0.068135
     5     C       0.053868  -0.048758   0.049376
     6     C       0.027057  -0.018607  -0.003054
     7     C       0.019085   0.062031   0.064027
     8     C       0.005189  -0.133432   0.025319
     9     C       0.021679   0.016510  -0.013087
    10     C      -0.022975   0.128727  -0.001288
    11     H      -0.008680  -0.201775   0.106921
    12     H       0.258010   0.210237   0.010725
    13     H      -0.260696   0.269884   0.079963
    14     H      -0.017904  -0.181828   0.033967
    15     H       0.023334  -0.137270   0.053880
    16     H      -0.036594  -0.103667  -0.044823
    17     H       0.010643  -0.001787  -0.007545
    18     H       0.019923   0.034349  -0.008780
    19     H       0.027100   0.018585  -0.037568
    20     H      -0.026784   0.157925  -0.119582
    21     H      -0.037989   0.127953   0.079102
    22     H      -0.062067   0.221921   0.037707
    23     C      -0.017190   0.022951  -0.009215
    24     C       0.019477  -0.012927  -0.007198
    25     H      -0.162225  -0.047583   0.014627
    26     H      -0.026415   0.034482   0.025294
    27     C       0.105887   0.033311   0.034793
    28     C      -0.078222  -0.031242  -0.070304
    29     H      -0.135993   0.068822  -0.070255
    30     C      -0.104600   0.013029  -0.022630
    31     H       0.026497   0.032515  -0.011190
    32     C       0.059563  -0.036077   0.070480
    33     H      -0.197660  -0.134229   0.054481
    34     H      -0.165002  -0.004532  -0.223804
    35     H       0.055476   0.020421  -0.067926
    36     H       0.150138   0.056075   0.048084
    37     H       0.143173  -0.016181   0.040861
    38     H       0.092763   0.103324   0.033376
    39     H      -0.034413   0.040839   0.111026
    40     H       0.120137  -0.092331  -0.038489
    41     H       0.100040  -0.098082   0.168485
 
 Mode:    27      Frequency (cm-1):      488.9305     Intensity (km/mol):        0.0000
 Index  Atom      ---- Displacements (x/y/z) ----
     1     O       0.046499   0.095643  -0.026320
     2     P       0.074828  -0.025963  -0.045556
     3     O      -0.009464  -0.034327  -0.058227
     4     O       0.069384  -0.000164   0.015776
     5     C      -0.008965  -0.028213  -0.015317
     6     C       0.028725   0.002229   0.043214
     7     C      -0.117387  -0.066534   0.027850
     8     C      -0.023798  -0.025139  -0.006309
     9     C       0.003949   0.104800   0.080588
    10     C      -0.059542   0.060360   0.036616
    11     H      -0.173259  -0.087830  -0.027835
    12     H      -0.130061  -0.065121   0.055762
    13     H      -0.139511  -0.055746   0.102610
    14     H      -0.070286  -0.019969   0.003979
    15     H       0.001299   0.014204   0.038211
    16     H       0.004976  -0.033272  -0.047678
    17     H       0.024153   0.131378   0.136912
    18     H      -0.008065   0.135087   0.085078
    19     H      -0.044262   0.126917   0.039669
    20     H      -0.093291   0.057903  -0.065475
    21     H      -0.044836   0.051092   0.053184
    22     H      -0.143364   0.107923   0.099618
    23     C       0.058780   0.003027  -0.030173
    24     C      -0.005495  -0.042333   0.024236
    25     H       0.040624   0.163207  -0.124756
    26     H      -0.106910  -0.013345  -0.156533
    27     C      -0.026533   0.013425   0.178324
    28     C       0.013781  -0.068307   0.066317
    29     H       0.054447  -0.106031  -0.085694
    30     C       0.010127   0.012181  -0.104205
    31     H       0.090061   0.022052  -0.005294
    32     C      -0.107142  -0.007290  -0.130991
    33     H       0.031601  -0.120972   0.069519
    34     H      -0.001959  -0.062890   0.051375
    35     H       0.032931  -0.040743   0.117657
    36     H       0.099014   0.013323   0.286226
    37     H      -0.051690  -0.018311   0.064003
    38     H      -0.190047   0.097512   0.282884
    39     H       0.013715  -0.039306  -0.210573
    40     H      -0.220226   0.023752  -0.039140
    41     H      -0.183488   0.044218  -0.258105
 
 Mode:    28      Frequency (cm-1):      512.6271     Intensity (km/mol):        0.0000
 Index  Atom      ---- Displacements (x/y/z) ----
     1     O       0.030961   0.024257  -0.016576
     2     P      -0.035955   0.067954   0.057092
     3     O      -0.018160   0.024670   0.066428
     4     O      -0.041459  -0.016906   0.015316
     5     C       0.019297  -0.021873   0.052909
     6     C      -0.034806  -0.027156   0.034294
     7     C       0.217045   0.070439  -0.043273
     8     C       0.004115  -0.128828  -0.117346
     9     C      -0.025700   0.068031  -0.009584
    10     C      -0.101880  -0.122549  -0.037190
    11     H       0.311117   0.053790   0.061626
    12     H       0.278873   0.088739  -0.102521
    13     H       0.202441   0.089307  -0.194277
    14     H       0.017241  -0.279571  -0.116249
    15     H       0.008617  -0.064894  -0.110304
    16     H      -0.007654  -0.097663  -0.291492
    17     H       0.000222   0.114274  -0.018994
    18     H       0.016845   0.054721   0.008759
    19     H      -0.099349   0.096794  -0.061999
    20     H      -0.027634  -0.075423   0.054919
    21     H      -0.194276  -0.057532  -0.169494
    22     H      -0.094512  -0.245399  -0.059108
    23     C       0.038229  -0.013194  -0.041889
    24     C       0.014661  -0.008845  -0.006928
    25     H       0.012045   0.034931  -0.077289
    26     H      -0.018735  -0.026389  -0.096395
    27     C      -0.045271   0.016773   0.084338
    28     C       0.027041  -0.048620   0.025013
    29     H       0.038190  -0.054789  -0.056873
    30     C       0.016043  -0.017871  -0.078502
    31     H       0.047991  -0.011087  -0.040684
    32     C      -0.020962   0.042905  -0.019807
    33     H       0.021893  -0.126789   0.054369
    34     H       0.014305  -0.049594  -0.007086
    35     H       0.067686  -0.010096   0.081124
    36     H      -0.004321  -0.011788   0.148427
    37     H      -0.080488   0.036972   0.031866
    38     H      -0.125920   0.042716   0.138947
    39     H      -0.024593   0.081848  -0.032448
    40     H      -0.070817   0.028727  -0.022876
    41     H      -0.013046   0.063199  -0.029989
 
 Mode:    29      Frequency (cm-1):      523.9344     Intensity (km/mol):        0.0000
 Index  Atom      ---- Displacements (x/y/z) ----
     1     O       0.017929   0.062809   0.005359
     2     P       0.005504  -0.026283   0.010696
     3     O      -0.014766  -0.016798   0.006484
     4     O      -0.050018  -0.069414  -0.061996
     5     C       0.003690   0.018590   0.029044
     6     C      -0.037538  -0.042928  -0.042874
[...]
    15     H       0.322091   0.014822  -0.197938
    16     H       0.114638   0.224562   0.033038
    17     H      -0.269873   0.169491   0.034875
    18     H      -0.171551  -0.100840   0.293635
    19     H      -0.021460  -0.047995  -0.000710
    20     H      -0.265974   0.268237   0.061127
    21     H      -0.049579  -0.067812  -0.015401
    22     H      -0.268890   0.051495  -0.371319
    23     C      -0.000002  -0.000498   0.000177
    24     C       0.000097  -0.000351  -0.000070
    25     H       0.003021  -0.000870   0.005047
    26     H       0.002268  -0.033799   0.011299
    27     C      -0.004462  -0.000182   0.002197
    28     C       0.005020   0.004195  -0.000230
    29     H      -0.026627  -0.010519   0.008194
    30     C       0.001894   0.003920  -0.002132
    31     H      -0.000467   0.003130  -0.001992
    32     C      -0.002816   0.004570  -0.000508
    33     H      -0.020789  -0.007907  -0.024091
    34     H      -0.041159  -0.024604   0.019829
    35     H       0.004319  -0.015656   0.006934
    36     H       0.016541  -0.017523  -0.019777
    37     H       0.029299   0.018080  -0.010981
    38     H       0.004855   0.001164   0.005190
    39     H       0.002932   0.000416   0.003689
    40     H       0.009614  -0.032268   0.020420
    41     H       0.019111  -0.019165  -0.017465
 
 Mode:   119      Frequency (cm-1):     2949.5426     Intensity (km/mol):        0.0000
 Index  Atom      ---- Displacements (x/y/z) ----
     1     O       0.000061   0.000307   0.000088
     2     P      -0.000039  -0.000009  -0.000001
     3     O      -0.000028   0.000135  -0.000001
     4     O      -0.000044  -0.000119   0.000023
     5     C       0.000193  -0.001910  -0.000420
     6     C       0.000223   0.000881  -0.000205
     7     C      -0.009358   0.027630  -0.002266
     8     C       0.007919   0.011190   0.011980
     9     C      -0.001972  -0.007702   0.002374
    10     C      -0.001344  -0.008892  -0.003353
    11     H       0.067166  -0.020615  -0.054203
    12     H       0.120636  -0.175858   0.078218
    13     H      -0.080153  -0.116891   0.000364
    14     H      -0.025964  -0.008518  -0.112457
    15     H      -0.007470  -0.002688   0.001508
    16     H      -0.056164  -0.115444  -0.021457
    17     H      -0.014938   0.011165   0.001153
    18     H       0.020015   0.014120  -0.035114
    19     H       0.016883   0.061718   0.007285
    20     H      -0.033488   0.036713   0.009248
    21     H       0.034867   0.064933   0.010252
    22     H       0.012420  -0.000861   0.018083
    23     C      -0.000167  -0.001996   0.000666
    24     C       0.004470  -0.000424  -0.000375
    25     H       0.024821  -0.004736   0.038616
    26     H       0.013509  -0.180502   0.061390
    27     C      -0.066635  -0.005820   0.028006
    28     C      -0.003398  -0.015792   0.011220
    29     H      -0.124346  -0.049478   0.039201
    30     C       0.007822   0.020370  -0.011931
    31     H      -0.000410   0.009812  -0.007410
    32     C      -0.031771   0.034153  -0.030309
    33     H      -0.012663  -0.002050  -0.019113
    34     H       0.093487   0.057438  -0.048755
    35     H      -0.042516   0.121798  -0.057543
    36     H       0.222209  -0.231883  -0.262453
    37     H       0.439693   0.272866  -0.163524
    38     H       0.092396   0.024181   0.106338
    39     H       0.148261   0.068037   0.208001
    40     H       0.105456  -0.348223   0.226558
    41     H       0.107116  -0.105327  -0.090030
 
 Mode:   120      Frequency (cm-1):     2949.8973     Intensity (km/mol):        0.0000
 Index  Atom      ---- Displacements (x/y/z) ----
     1     O       0.000018  -0.000101   0.000276
     2     P       0.000034   0.000025  -0.000022
     3     O       0.000042  -0.000061   0.000037
     4     O       0.000025   0.000078  -0.000026
     5     C      -0.000224   0.000862   0.000199
     6     C       0.000055  -0.000474   0.000090
     7     C       0.006957  -0.012299   0.000106
     8     C      -0.003960  -0.005181  -0.004907
     9     C      -0.000366   0.003448  -0.000169
    10     C      -0.001460   0.005400   0.000516
    11     H      -0.046678   0.012966   0.037812
    12     H      -0.060036   0.086055  -0.038242
    13     H       0.026404   0.040459  -0.000008
    14     H       0.011074   0.003695   0.047401
    15     H       0.007791   0.001477  -0.003478
    16     H       0.026090   0.053513   0.009827
    17     H       0.014725  -0.010006  -0.001541
    18     H      -0.003686  -0.003185   0.006691
    19     H      -0.006794  -0.025784  -0.003189
    20     H       0.028059  -0.029867  -0.007200
    21     H      -0.015550  -0.029975  -0.004540
    22     H       0.004702  -0.001700   0.006048
    23     C      -0.001754   0.004983  -0.002493
    24     C       0.003296  -0.001122   0.006109
    25     H      -0.044982   0.002498  -0.060668
    26     H      -0.005544   0.039047  -0.014944
    27     C      -0.010597  -0.025203  -0.045189
    28     C      -0.038849   0.033581  -0.053786
    29     H      -0.045295  -0.015074   0.011425
    30     C       0.008265  -0.002434   0.005525
    31     H       0.012212  -0.049396   0.024117
    32     C      -0.019407   0.009917  -0.037256
    33     H       0.300913   0.097477   0.366358
    34     H      -0.031333  -0.029817   0.030544
    35     H       0.170703  -0.449397   0.216229
    36     H      -0.154871   0.178975   0.201922
    37     H       0.052405   0.036341  -0.009464
    38     H       0.225448   0.067793   0.319607
    39     H       0.172694   0.086647   0.247969
    40     H       0.066419  -0.218259   0.147397
    41     H      -0.016129   0.019407   0.028869
 
 Mode:   121      Frequency (cm-1):     2951.8116     Intensity (km/mol):        0.0000
 Index  Atom      ---- Displacements (x/y/z) ----
     1     O       0.000003  -0.000007  -0.000024
     2     P       0.000028   0.000001   0.000007
     3     O      -0.000006  -0.001045   0.000392
     4     O       0.000329   0.000810  -0.000580
     5     C       0.002916   0.002145  -0.002514
     6     C       0.001619  -0.003644   0.000545
     7     C      -0.018522  -0.003508   0.007729
     8     C      -0.048607  -0.022301   0.047263
     9     C      -0.013580   0.013953   0.007910
    10     C      -0.037472   0.054973  -0.009720
    11     H       0.115118  -0.025936  -0.095760
    12     H       0.020442  -0.026205   0.010554
    13     H       0.070616   0.091706  -0.001879
    14     H      -0.049533  -0.011144  -0.276528
    15     H       0.481515   0.024806  -0.299470
    16     H       0.126098   0.243110   0.032705
    17     H       0.136805  -0.088288  -0.015980
    18     H       0.035755   0.018715  -0.059795
    19     H      -0.020178  -0.086688  -0.011969
    20     H       0.363137  -0.383051  -0.088951
    21     H      -0.101746  -0.209403  -0.029213
    22     H       0.168815  -0.039495   0.229198
    23     C       0.000070  -0.000007   0.000041
    24     C       0.000313   0.000295  -0.000265
    25     H       0.003917   0.000031   0.005069
    26     H      -0.000048   0.006087  -0.001815
    27     C      -0.003203   0.000492   0.003007
    28     C      -0.003518  -0.007453   0.004074
    29     H       0.013540   0.005086  -0.003749
    30     C      -0.001501  -0.000962   0.000074
    31     H      -0.000170   0.000477  -0.000173
    32     C      -0.000712   0.000344  -0.000996
    33     H       0.004492   0.002790   0.003815
    34     H       0.053440   0.032452  -0.026726
    35     H      -0.017114   0.049918  -0.023322
    36     H       0.016610  -0.017792  -0.020157
    37     H       0.021821   0.013488  -0.008431
    38     H      -0.002621  -0.000925  -0.005015
    39     H       0.005285   0.002606   0.007303
    40     H       0.001981  -0.006173   0.004056
    41     H       0.000966  -0.001116  -0.001072
 
 Mode:   122      Frequency (cm-1):     2957.3188     Intensity (km/mol):        0.0000
 Index  Atom      ---- Displacements (x/y/z) ----
     1     O       0.000246   0.001026   0.000498
     2     P      -0.000157  -0.000011  -0.000029
     3     O      -0.000074   0.000046  -0.000049
     4     O       0.000028  -0.000001  -0.000017
     5     C       0.000684  -0.001354  -0.000149
     6     C      -0.000014   0.000079  -0.000244
     7     C      -0.013992   0.027009  -0.001611
     8     C       0.000747   0.003407   0.006790
     9     C      -0.000483  -0.000553   0.000437
    10     C      -0.001640   0.000328  -0.000971
    11     H       0.086828  -0.024856  -0.069971
    12     H       0.138413  -0.192946   0.087099
    13     H      -0.059718  -0.090900   0.000571
    14     H      -0.011693  -0.003783  -0.053505
    15     H       0.019765   0.000064  -0.013341
    16     H      -0.015603  -0.033607  -0.006388
    17     H       0.001112  -0.000599  -0.000228
    18     H       0.002879   0.002012  -0.004969
    19     H       0.001337   0.004687   0.000515
    20     H       0.006886  -0.007137  -0.001569
    21     H       0.002705   0.004277   0.000859
    22     H       0.008370  -0.001967   0.011857
    23     C      -0.002272  -0.007012   0.002154
    24     C      -0.001668   0.000848   0.000725
    25     H      -0.107998  -0.005478  -0.134687
    26     H       0.015463  -0.368203   0.119819
    27     C       0.010238   0.001121  -0.004078
    28     C       0.016228   0.018810  -0.007353
    29     H      -0.594256  -0.226122   0.163761
    30     C       0.059435   0.051702  -0.014065
    31     H      -0.005950   0.045325  -0.025150
    32     C       0.020103  -0.038117  -0.013876
    33     H      -0.043969  -0.017783  -0.047366
    34     H      -0.181820  -0.106545   0.087025
    35     H       0.029903  -0.095926   0.044902
    36     H      -0.031100   0.031067   0.034223
    37     H      -0.065385  -0.040768   0.024079
    38     H      -0.014757  -0.003764  -0.017148
    39     H       0.042706   0.030327   0.067283
    40     H      -0.057180   0.188260  -0.113296
    41     H      -0.205537   0.227692   0.223568
 
 Mode:   123      Frequency (cm-1):     2959.8936     Intensity (km/mol):        0.0000
 Index  Atom      ---- Displacements (x/y/z) ----
     1     O      -0.000264  -0.000467  -0.000062
     2     P       0.000060  -0.000013   0.000001
     3     O      -0.000172   0.000097  -0.000122
     4     O       0.000042  -0.000011  -0.000007
     5     C       0.001235  -0.002394  -0.000110
     6     C      -0.000091   0.000151  -0.000469
     7     C      -0.025420   0.048631  -0.003372
     8     C       0.001540   0.005410   0.009816
     9     C      -0.000559  -0.000737   0.000534
    10     C      -0.002151   0.000156  -0.001329
    11     H       0.153222  -0.043914  -0.123256
    12     H       0.255088  -0.351919   0.159598
    13     H      -0.104983  -0.160571   0.001284
    14     H      -0.016930  -0.005602  -0.077076
    15     H       0.025654  -0.000170  -0.017461
    16     H      -0.024604  -0.053131  -0.009773
    17     H       0.000964  -0.000502  -0.000247
    18     H       0.003467   0.002475  -0.005985
    19     H       0.001710   0.006061   0.000671
    20     H       0.007817  -0.008111  -0.001785
    21     H       0.004410   0.007209   0.001393
    22     H       0.010954  -0.002771   0.015726
    23     C       0.001350   0.002854  -0.001251
    24     C      -0.002144  -0.003161   0.000682
    25     H       0.042698   0.001961   0.053422
    26     H      -0.005954   0.139739  -0.045839
    27     C       0.005813  -0.001243  -0.006384
    28     C       0.046443   0.052919  -0.017663
    29     H       0.234326   0.089032  -0.063699
    30     C      -0.023458  -0.019860   0.005361
    31     H       0.002235  -0.019448   0.010540
    32     C      -0.008499   0.023387   0.015396
    33     H      -0.139353  -0.056310  -0.155623
    34     H      -0.484313  -0.285921   0.232225
    35     H       0.083111  -0.262993   0.121075
    36     H      -0.031594   0.034236   0.039640
    37     H      -0.040193  -0.025192   0.015650
    38     H       0.008447   0.002472   0.014287
    39     H      -0.063267  -0.037127  -0.091718
    40     H       0.025623  -0.087953   0.051071
    41     H       0.126615  -0.138558  -0.135535

PES point character: Geometry corresponds to a local minimum on the PES.




 ============================
 Statistical Thermal Analysis  ***  ideal gas assumed  ***
 ============================
  
 Pressure:                  1.000000 atm.
 Temperature:             298.150000 K



 Moments of Inertia [amu*bohr^2] and principal axis
 ==================================================

        1951.4378       6429.5505       6888.1674
 ------------------------------------------------
           0.9953         -0.0340         -0.0902
          -0.0399          0.7065         -0.7066
           0.0877          0.7069          0.7019


 The rotational contribution to the molecular entropy includes
 a term, dependent on the symmetry number sigma. The results 
 reported below were computed using sigma = 1, determined from
 the point group symmetry of the input geometry (NOSYM). 
 If this is not the correct symmetry, try symmetrizing the molecule before
 running the calculation (note: linear molecules should be aligned along one
 of the Cartesian axes).
 Contributions from frequencies below 20 1/cm are not included in vibrational sums.
 Their contributions, if any, are reported separately.


     Temp                                                        Transl      Rotat     Vibrat     Total
     ----                                                        ------      -----     ------     -----

     298.15   Entropy (cal/mol-K):                               42.427     32.824     48.354    123.605
              Nuclear Internal Energy (kcal/mol):                 0.889      0.889    246.262    248.040
              Constant Volume Heat Capacity (cal/mol-K):          2.981      2.981     56.844     62.806
          (c) Constant Volume Heat Capacity (cal/mol-K):          2.981      2.981     53.330     59.292

       Summary of energy terms
                                                   hartree              eV         kcal/mol           kJ/mol
                                      --------------------     -----------       ----------      -----------
      Energy from Engine:                0.050422165483883          1.3721            31.64           132.38
      Nuclear Internal Energy:           0.395276287287804         10.7560           248.04          1037.80
  (c) Nuclear Internal Energy:           0.393474322949548         10.7070           246.91          1033.07
      Internal Energy U:                 0.445698452771687         12.1281           279.68          1170.18
      pV/n = RT:                         0.000944186013486          0.0257             0.59             2.48
      Enthalpy H:                        0.446642638785173         12.1538           280.27          1172.66
      -T*S:                             -0.058728830238574         -1.5981           -36.85          -154.19
  (c) -T*S:                             -0.056777069036688         -1.5450           -35.63          -149.07
      Gibbs free energy:                 0.387913808546599         10.5557           243.42          1018.47
 
 
 
  (c) The properties marked with this symbol have been corrected using 'low vibrational frequency free rotor
      interpolation corrections'. For those terms all positive frequencies are used (also ones below 20 1/cm),
      but the contribution to the partition function of small vibrational frequencies is modified as described
      in the following paper:
      S. Grimme, 'Supramolecular Binding Thermodynamics by Dispersion-Corrected Density Functional Theory'
      (Chem. Eur. J. 2012, 18, 9955-9964)
      Configuration: Dampener Frequency          :   100.000 1/cm
                     Dampener Alpha              :     4.000
                     Averaging Moment of Inertia : 1.000E-44 kg m2
-----------
Bond orders
-----------

Description: Unknown
Only bonds with bond orders > 0.200 are printed.

 Index  Atom    Index  Atom    BondOrder
     1     O        2     P        1.000
     1     O       23     C        1.000
     2     P        3     O        1.000
     2     P        4     O        1.000
     3     O        5     C        1.000
     4     O        6     C        1.000
     5     C        6     C        1.000
     5     C        7     C        1.000
     5     C        8     C        1.000
     6     C        9     C        1.000
     6     C       10     C        1.000
     7     C       11     H        1.000
     7     C       12     H        1.000
     7     C       13     H        1.000
     8     C       14     H        1.000
     8     C       15     H        1.000
     8     C       16     H        1.000
     9     C       17     H        1.000
     9     C       18     H        1.000
     9     C       19     H        1.000
    10     C       20     H        1.000
    10     C       21     H        1.000
    10     C       22     H        1.000
    23     C       24     C        1.000
    23     C       30     C        1.000
    23     C       31     H        1.000
    24     C       27     C        1.000
    24     C       28     C        1.000
    24     C       32     C        1.000
    25     H       30     C        1.000
    26     H       30     C        1.000
    27     C       36     H        1.000
    27     C       37     H        1.000
    27     C       38     H        1.000
    28     C       33     H        1.000
    28     C       34     H        1.000
    28     C       35     H        1.000
    29     H       30     C        1.000
    32     C       39     H        1.000
    32     C       40     H        1.000
    32     C       41     H        1.000


--------------
Atomic charges
--------------
  Index   Atom    Charge
      1      O    0.0000
      2      P    0.0000
      3      O    0.0000
      4      O    0.0000
      5      C    0.0000
      6      C    0.0000
      7      C    0.0000
      8      C    0.0000
      9      C    0.0000
     10      C    0.0000
     11      H    0.0000
     12      H    0.0000
     13      H    0.0000
     14      H    0.0000
     15      H    0.0000
     16      H    0.0000
     17      H    0.0000
     18      H    0.0000
     19      H    0.0000
     20      H    0.0000
     21      H    0.0000
     22      H    0.0000
     23      C    0.0000
     24      C    0.0000
     25      H    0.0000
     26      H    0.0000
     27      C    0.0000
     28      C    0.0000
     29      H    0.0000
     30      C    0.0000
     31      H    0.0000
     32      C    0.0000
     33      H    0.0000
     34      H    0.0000
     35      H    0.0000
     36      H    0.0000
     37      H    0.0000
     38      H    0.0000
     39      H    0.0000
     40      H    0.0000
     41      H    0.0000


Dipole moment vector    (Debye):     0.00000000    0.00000000    0.00000000
              magnitude (Debye):     0.00000000

 
--------------------
Energy Decomposition
--------------------
Total Energy (hartree)                 0.05042217
Total Energy (eV)                      1.37205693
Bond bending (hartree)                 0.01253037
Bond stretching (hartree)              0.00929039
Bond torsion (hartree)                 0.00308927
Bond inversion (hartree)               0.00021578
Van Der Waals (hartree)                0.02529635
Coulomb (hartree)                      0.00000000
Embedding (hartree)                    0.00000000
Total Bonded (hartree)                 0.02512582
Total NonBonded (hartree)              0.02529635
 

Final PES point is a local minimum. Geometry optimization successful!


AMS application finished. Exiting.
NORMAL TERMINATION
     Total cpu time:       0.47
  Total system time:       0.02
 Total elapsed time:       0.51
