 argument  1 = CH.scf_scangeomvar.nw
                                         
                                         


             Northwest Computational Chemistry Package (NWChem) 7.2.2
             --------------------------------------------------------


                    Environmental Molecular Sciences Laboratory
                       Pacific Northwest National Laboratory
                                Richland, WA 99352

                              Copyright (c) 1994-2022
                       Pacific Northwest National Laboratory
                            Battelle Memorial Institute

             NWChem is an open-source computational chemistry package
                        distributed under the terms of the
                      Educational Community License (ECL) 2.0
             A copy of the license is included with this distribution
                              in the LICENSE.TXT file

                                  ACKNOWLEDGMENT
                                  --------------

            This software and its documentation were developed at the
            EMSL at Pacific Northwest National Laboratory, a multiprogram
            national laboratory, operated for the U.S. Department of Energy
            by Battelle under Contract Number DE-AC05-76RL01830. Support
            for this work was provided by the Department of Energy Office
            of Biological and Environmental Research, Office of Basic
            Energy Sciences, and the Office of Advanced Scientific Computing.


           Job information
           ---------------

    hostname        = MIRO
    program         = nwchem
    date            = Sat Aug 23 20:41:35 2025

    compiled        = Mon_Apr_01_11:12:32_2024
    source          = /build/nwchem-qbYJLs/nwchem-7.2.2/build-openmpi
    nwchem branch   = 7.2.2
    nwchem revision = N/A
    ga revision     = N/A
    use scalapack   = T
    input           = CH.scf_scangeomvar.nw
    prefix          = CH.scf_scangeomvar.
    data base       = ./CH.scf_scangeomvar.db
    status          = restart
    nproc           =        2
    time left       =     -1s



           Memory information
           ------------------

    heap     =   26214394 doubles =    200.0 Mbytes
    stack    =   26214399 doubles =    200.0 Mbytes
    global   =   52428800 doubles =    400.0 Mbytes (distinct from heap & stack)
    total    =  104857593 doubles =    800.0 Mbytes
    verify   = yes
    hardfail = no 


           Directory information
           ---------------------

  0 permanent = .
  0 scratch   = .


           Previous task information
           -------------------------

    Theory    = scf                             
    Operation =                               
    Status    = ok                            
    Qmmm      = F
    Ignore    = F


           Geometries in the database
           --------------------------

       Name                              Natoms  Last Modified
       --------------------------------  ------  ------------------------
    1  geometry                               6  Sat Aug 23 20:40:58 2025  

  The geometry named "geometry" is the default for restart



           Basis sets in the database
           --------------------------

       Name                              Natoms  Last Modified
        --------------------------------  ------  ------------------------
    1  ao basis                               2  Sat Aug 23 20:40:57 2025  

  The basis set named "ao basis" is the default AO basis for restart




                                NWChem Input Module
                                -------------------



                               NWChem Python program
                               ---------------------

geometry = '''
  geometry noprint; symmetry d2h
     C 0 0 %f; H 0  0.916 1.224
  end
'''
x = 0.6
while (x < 0.721):
  input_parse(geometry % x)
  energy = task_energy('scf')
  print (' x = %5.2f   SCF energy = %10.6f' % (x, energy))
  x = x + 0.01

                      Basis "ao basis" -> "" (cartesian)
                      -----
  C (Carbon)
  ----------
            Exponent  Coefficients 
       -------------- ---------------------------------------------------------
  1 S  3.04752490E+03  0.001835
  1 S  4.57369510E+02  0.014037
  1 S  1.03948690E+02  0.068843
  1 S  2.92101550E+01  0.232184
  1 S  9.28666300E+00  0.467941
  1 S  3.16392700E+00  0.362312

  2 S  7.86827240E+00 -0.119332
  2 S  1.88128850E+00 -0.160854
  2 S  5.44249300E-01  1.143456

  3 P  7.86827240E+00  0.068999
  3 P  1.88128850E+00  0.316424
  3 P  5.44249300E-01  0.744308

  4 S  1.68714400E-01  1.000000

  5 P  1.68714400E-01  1.000000

  6 D  8.00000000E-01  1.000000

  H (Hydrogen)
  ------------
            Exponent  Coefficients 
       -------------- ---------------------------------------------------------
  1 S  1.87311370E+01  0.033495
  1 S  2.82539370E+00  0.234727
  1 S  6.40121700E-01  0.813757

  2 S  1.61277800E-01  1.000000



 Summary of "ao basis" -> "" (cartesian)
 ------------------------------------------------------------------------------
       Tag                 Description            Shells   Functions and Types
 ---------------- ------------------------------  ------  ---------------------
 C                           6-31g*                  6       15   3s2p1d
 H                           6-31g*                  2        2   2s


 Turning off AUTOSYM since
 SYMMETRY directive was detected!

  no constraints, skipping    0.0000000000000000     
  no constraints, skipping    0.0000000000000000     
 x =  0.60   SCF energy = -78.006804
 x =  0.60   SCF energy = -78.006804
 Turning off AUTOSYM since
 SYMMETRY directive was detected!

  no constraints, skipping    0.0000000000000000     
  no constraints, skipping    0.0000000000000000     
 x =  0.61   SCF energy = -78.015149
 x =  0.61   SCF energy = -78.015149
 Turning off AUTOSYM since
 SYMMETRY directive was detected!

  no constraints, skipping    0.0000000000000000     
  no constraints, skipping    0.0000000000000000     
 x =  0.62   SCF energy = -78.021611
 Turning off AUTOSYM since
 x =  0.62   SCF energy = -78.021611
 SYMMETRY directive was detected!

  no constraints, skipping    0.0000000000000000     
  no constraints, skipping    0.0000000000000000     
 x =  0.63   SCF energy = -78.026354
 x =  0.63   SCF energy = -78.026354
 Turning off AUTOSYM since
 SYMMETRY directive was detected!

  no constraints, skipping    0.0000000000000000     
  no constraints, skipping    0.0000000000000000     
 x =  0.64   SCF energy = -78.029527
 x =  0.64   SCF energy = -78.029527
 Turning off AUTOSYM since
 SYMMETRY directive was detected!

  no constraints, skipping    0.0000000000000000     
  no constraints, skipping    0.0000000000000000     
 x =  0.65   SCF energy = -78.031268
 x =  0.65   SCF energy = -78.031268
 Turning off AUTOSYM since
 SYMMETRY directive was detected!

  no constraints, skipping    0.0000000000000000     
  no constraints, skipping    0.0000000000000000     
 x =  0.66   SCF energy = -78.031699
 Turning off AUTOSYM since
 SYMMETRY directive was detected!

 x =  0.66   SCF energy = -78.031699
  no constraints, skipping    0.0000000000000000     
  no constraints, skipping    0.0000000000000000     
 x =  0.67   SCF energy = -78.030935
 x =  0.67   SCF energy = -78.030935
 Turning off AUTOSYM since
 SYMMETRY directive was detected!

  no constraints, skipping    0.0000000000000000     
  no constraints, skipping    0.0000000000000000     
 x =  0.68   SCF energy = -78.029078
 x =  0.68   SCF energy = -78.029078
 Turning off AUTOSYM since
 SYMMETRY directive was detected!

  no constraints, skipping    0.0000000000000000     
  no constraints, skipping    0.0000000000000000     
 x =  0.69   SCF energy = -78.026223
 x =  0.69   SCF energy = -78.026223
 Turning off AUTOSYM since
 SYMMETRY directive was detected!

  no constraints, skipping    0.0000000000000000     
  no constraints, skipping    0.0000000000000000     
 x =  0.70   SCF energy = -78.022456
 x =  0.70   SCF energy = -78.022456
 Turning off AUTOSYM since
 SYMMETRY directive was detected!

  no constraints, skipping    0.0000000000000000     
  no constraints, skipping    0.0000000000000000     
 x =  0.71   SCF energy = -78.017855
 x =  0.71   SCF energy = -78.017855
 Turning off AUTOSYM since
 SYMMETRY directive was detected!

  no constraints, skipping    0.0000000000000000     
  no constraints, skipping    0.0000000000000000     
 x =  0.72   SCF energy = -78.012493
 x =  0.72   SCF energy = -78.012493


                                     CITATION
                                     --------
                Please cite the following reference when publishing
                           results obtained with NWChem:

          E. Apra, E. J. Bylaska, W. A. de Jong, N. Govind, K. Kowalski,
       T. P. Straatsma, M. Valiev, H. J. J. van Dam, Y. Alexeev, J. Anchell,
       V. Anisimov, F. W. Aquino, R. Atta-Fynn, J. Autschbach, N. P. Bauman,
     J. C. Becca, D. E. Bernholdt, K. Bhaskaran-Nair, S. Bogatko, P. Borowski,
         J. Boschen, J. Brabec, A. Bruner, E. Cauet, Y. Chen, G. N. Chuev,
      C. J. Cramer, J. Daily, M. J. O. Deegan, T. H. Dunning Jr., M. Dupuis,
   K. G. Dyall, G. I. Fann, S. A. Fischer, A. Fonari, H. Fruchtl, L. Gagliardi,
      J. Garza, N. Gawande, S. Ghosh, K. Glaesemann, A. W. Gotz, J. Hammond,
       V. Helms, E. D. Hermes, K. Hirao, S. Hirata, M. Jacquelin, L. Jensen,
   B. G. Johnson, H. Jonsson, R. A. Kendall, M. Klemm, R. Kobayashi, V. Konkov,
      S. Krishnamoorthy, M. Krishnan, Z. Lin, R. D. Lins, R. J. Littlefield,
      A. J. Logsdail, K. Lopata, W. Ma, A. V. Marenich, J. Martin del Campo,
   D. Mejia-Rodriguez, J. E. Moore, J. M. Mullin, T. Nakajima, D. R. Nascimento,
    J. A. Nichols, P. J. Nichols, J. Nieplocha, A. Otero-de-la-Roza, B. Palmer,
    A. Panyala, T. Pirojsirikul, B. Peng, R. Peverati, J. Pittner, L. Pollack,
   R. M. Richard, P. Sadayappan, G. C. Schatz, W. A. Shelton, D. W. Silverstein,
   D. M. A. Smith, T. A. Soares, D. Song, M. Swart, H. L. Taylor, G. S. Thomas,
            V. Tipparaju, D. G. Truhlar, K. Tsemekhman, T. Van Voorhis,
      A. Vazquez-Mayagoitia, P. Verma, O. Villa, A. Vishnu, K. D. Vogiatzis,
        D. Wang, J. H. Weare, M. J. Williamson, T. L. Windus, K. Wolinski,
        A. T. Wong, Q. Wu, C. Yang, Q. Yu, M. Zacharias, Z. Zhang, Y. Zhao,
                                and R. J. Harrison
                        "NWChem: Past, present, and future
                         J. Chem. Phys. 152, 184102 (2020)
                               doi:10.1063/5.0004997

                                      AUTHORS
                                      -------
  E. Apra, E. J. Bylaska, N. Govind, K. Kowalski, M. Valiev, D. Mejia-Rodriguez,
       A. Kunitsa, N. P. Bauman, A. Panyala, W. A. de Jong, T. P. Straatsma,
   H. J. J. van Dam, D. Wang, T. L. Windus, J. Hammond, J. Autschbach, A. Woods,
    K. Bhaskaran-Nair, J. Brabec, K. Lopata, S. A. Fischer, S. Krishnamoorthy,
     M. Jacquelin, W. Ma, M. Klemm, O. Villa, Y. Chen, V. Anisimov, F. Aquino,
     S. Hirata, M. T. Hackler, E. Hermes, L. Jensen, J. E. Moore, J. C. Becca,
      V. Konjkov, T. Risthaus, M. Malagoli, A. Marenich, A. Otero-de-la-Roza,
        J. Mullin, P. Nichols, R. Peverati, J. Pittner, Y. Zhao, P.-D. Fan,
        A. Fonari, M. J. Williamson, R. J. Harrison, J. R. Rehr, M. Dupuis,
     D. Silverstein, D. M. A. Smith, J. Nieplocha, V. Tipparaju, M. Krishnan,
     B. E. Van Kuiken, A. Vazquez-Mayagoitia, M. Swart, Q. Wu, T. Van Voorhis,
     A. A. Auer, M. Nooijen, L. D. Crosby, E. Brown, G. Cisneros, G. I. Fann,
   H. Fruchtl, J. Garza, K. Hirao, R. A. Kendall, J. A. Nichols, K. Tsemekhman,
    K. Wolinski, J. Anchell, D. E. Bernholdt, P. Borowski, T. Clark, D. Clerc,
   H. Dachsel, M. J. O. Deegan, K. Dyall, D. Elwood, E. Glendening, M. Gutowski,
   A. C. Hess, J. Jaffe, B. G. Johnson, J. Ju, R. Kobayashi, R. Kutteh, Z. Lin,
   R. Littlefield, X. Long, B. Meng, T. Nakajima, S. Niu, L. Pollack, M. Rosing,
   K. Glaesemann, G. Sandrone, M. Stave, H. Taylor, G. Thomas, J. H. van Lenthe,
                               A. T. Wong, Z. Zhang.

 Total times  cpu:        0.8s     wall:        1.4s
