

 Parallel Execution: Process Information
 ==============================================================================
 Rank   Node Name                              NodeID   MyNodeRank  NodeMaster
    0   ubuntu-kch                                0          0          0
    1   ubuntu-kch                                0          1         -1
    2   ubuntu-kch                                0          2         -1
    3   ubuntu-kch                                0          3         -1
 ==============================================================================


May use up to 7570MB of RAM as shared memory on node 0

 *******************************************************************************
 *                                                                             *
 *  --------------------------------                                           *
 *   Amsterdam Modeling Suite (AMS)              2021.105                      *
 *  --------------------------------                                           *
 *                                               r97261 2021-09-16             *
 *                                                                             *
 *                                                                             *
 *                              =================                              *
 *                              |               |                              *
 *                              |     A M S     |                              *
 *                              |               |                              *
 *                              =================                              *
 *                                                                             *
 *                                                                             *
 *   Online information and documentation:  https://www.scm.com/support/       *
 *   E-mail:  support@scm.com   info@scm.com                                   *
 *                                                                             *
 *   Scientific publications using AMS results must be properly referenced     *
 *   See the User Manuals (or the web site) for recommended citations          *
 *   The terms and conditions of the End User License Agreement apply to       *
 *   the use of AMS, https://www.scm.com/license-terms/                        *
 *                                                                             *
 **********************  x86_64_linux_intel / intelmpi  ************************
 
 Licensed to: Dr. Miroslav Ilias / Matej Bel University, Department Chemistry, Fac. Natural Sciences / Banska Bystrica / SLOVAKIA
 SCM User ID: u17848
  
 AMS 2021.105  RunTime: Nov24-2021 23:09:07  ShM Nodes: 1  Procs: 4

 AMS jobname: ams
 AMS jobid  : 420847066

 Start   directory: /home/milias/work/projects/open-collection/theoretical_chemistry/projects/nmr_diplomovky/derivaty_markerov/derivative_2_Peter/ams/nonrel/geometry_optimization/pbe0_tzp_good_cosmo-chcl3/tmp.milias.173753.0.noindex/
 Results directory: /home/milias/work/projects/open-collection/theoretical_chemistry/projects/nmr_diplomovky/derivaty_markerov/derivative_2_Peter/ams/nonrel/geometry_optimization/pbe0_tzp_good_cosmo-chcl3/der2.geopt_pbe0_tzp_good_cosmo-chcl3.results/
 Scratch directory: /tmp/amstmp_ams_kid0.420847066/


 Communication costs MPI_COMM_WORLD:      0.271 usec per message,   0.0034 usec per 8-byte item
 Communication costs for intra-node:      0.474 usec per message,   0.0031 usec per 8-byte item

 RNG seed: -1594665054 -383722278 1963317060 92953510 -726272408 1883095590 -1383568625 1837955995



                      ************************************************************************
                      *  ADF 2021.105  RunTime: Nov24-2021 23:09:08  ShM Nodes: 1  Procs: 4  *
                      ************************************************************************
  
       ***************************
       *  GEOMETRY OPTIMIZATION  *
       ***************************

Optimization Method                    Quasi Newton
Optimization Coordinates               Delocalized Coordinates
Optimize lattice                       F
 
 ------------------------------------------------------
 Convergence criteria (Hartree,Angstrom)
 ------------------------------------------------------
 Maximum gradient               0.001000000000
 Maximum rms gradient           0.000666666667
 Maximum step allowed           0.001000000000
 Maximum rms step allowed       0.000666666667
 Maximum energy change allowe   0.000370000000
 Maximum stress energy allowe   0.000500000000
 
Initial model Hessian                  Automatic Hessian
 
------------------------------------
Quasi-Newton Optimizer Parameters
------------------------------------
Hessian Update Method                  BFGS
Maximum number of steps                  250
First GDIIS cycle                          0
Maximum GDIIS vectors                      0
Trust radius (bohr)                        0.200000
Trust radius varies                        T
Constraints converged at all steps         T
Use projector                              T
 
 Rigid motions settings for: old optimizer
 Atomic rotations (x,y,z):     T T T
 Atomic translations (x,y,z):  T T T
 Tolerance:                   1.000000000000000E-006
 
--------
Geometry
--------
Formula: C10H22NO3P
Atoms
  Index Symbol   x (angstrom)   y (angstrom)   z (angstrom)
      1      O     3.33471402     0.21565103     0.11749661       adf.R=1.517
      2      P     2.21400222    -0.20271444    -0.98809624       adf.R=1.850
      3      O     1.16984868     1.05136222    -1.03047996       adf.R=1.517
      4      O     1.26790132    -1.09018947     0.00342563       adf.R=1.517
      5      C     0.17926498     1.00949526     0.02924594       adf.R=1.700
      6      C    -0.04400182    -0.51881217     0.22525511       adf.R=1.700
      7      C     0.74552930     1.69946637     1.26119796       adf.R=1.700
      8      C    -1.04367505     1.75360229    -0.46462129       adf.R=1.700
      9      C    -0.98288353    -1.11967010    -0.80927893       adf.R=1.700
     10      C    -0.48538637    -0.90291107     1.62203456       adf.R=1.700
     11      H    -0.01841274     1.79254115     2.03413184       adf.R=1.350
     12      H     1.60130588     1.16437063     1.66867012       adf.R=1.350
     13      H     1.06998798     2.70259389     0.98202856       adf.R=1.350
     14      H    -1.37745740     1.38240307    -1.43177470       adf.R=1.350
     15      H    -1.86173404     1.65365811     0.25133651       adf.R=1.350
     16      H    -0.81074290     2.81442305    -0.56324076       adf.R=1.350
     17      H    -2.01338907    -0.80934133    -0.63482207       adf.R=1.350
     18      H    -0.69833032    -0.83145335    -1.82212814       adf.R=1.350
     19      H    -0.93607282    -2.20649581    -0.73545995       adf.R=1.350
     20      H    -1.43785267    -0.42615505     1.86145823       adf.R=1.350
     21      H    -0.62550736    -1.98288569     1.67819250       adf.R=1.350
     22      H     0.25005699    -0.61065253     2.36909428       adf.R=1.350
     23      C     4.63774897     0.58194162    -0.32770670       adf.R=1.700
     24      C     5.65433489    -0.07040938     0.58789572       adf.R=1.700
     25      N     7.01561813     0.31577739     0.27009454       adf.R=1.608
     26      C     7.32033531     1.66109149     0.71772196       adf.R=1.700
     27      H     7.76843469    -1.62709415     0.45338816       adf.R=1.350
     28      H     8.33973373     1.92086783     0.42911533       adf.R=1.350
     29      C     7.96347616    -0.62396861     0.83472374       adf.R=1.700
     30      H     4.79920356     0.25487698    -1.36007103       adf.R=1.350
     31      H     4.71598905     1.67070326    -0.30334134       adf.R=1.350
     32      H     5.56527313    -1.15278860     0.47271415       adf.R=1.350
     33      H     5.39643115     0.16408556     1.63530406       adf.R=1.350
     34      H     7.91771203    -0.65879143     1.93654498       adf.R=1.350
     35      H     7.23711196     1.76244028     1.81339960       adf.R=1.350
     36      H     6.65030599     2.38691334     0.25809086       adf.R=1.350
     37      H     8.97771098    -0.33998824     0.54964252       adf.R=1.350
 
Total System Charge             0.00000
Bonding info available!
 
 
----------------
ADF Engine Input
----------------
 
 Basis
 Type TZP
 Core None
 End
 XC
 Hybrid PBE0
 End
 Relativity
 Level None
 End
 Symmetry NOSYM
 Solvation
 Surf Delley
 Solv name=Chloroform cav0=0.0 cav1=0.0067639
 Charged method=CONJ
 C-Mat POT
 SCF VAR ALL
 CSMRSP
 End
 NumericalQuality Good
 

 Title: *** (NO TITLE) ***

 Using automatic Hessian for delocalized coordinates.
 *** GOStep1 ***

 SOLVATION
-------------------------------------------

  The Delley construction of COSMO surface surface is calculated

       Division Level for Surface Triangles (NDIV)                  3
       Final Division Level for Triangles (NFDIV)                   1
       Radius of the Solvent (RSOL)                           3.17000 angstr
  Dielectric Constant (EPSL)                                  4.80000

       COSMO equation is solved iteratively-               conjugate-gradient

       Maximun of Iterations for Charges (NCIX)                  1000
       Criterion for Charge convergence (CCNV)                1.0E-08

  COSMO charges included variationally in SCF

       COSMO included at every SCF cycle

  Geometry-dependent empirical factor                         0.00000

  C-Matrix calculated in cspmtx

  In cspmtx, C-Matrix calculated using fitted potential

-------------------------------------------



 -------------------------------------------
  COSMO surface
  Area             =          971.425
  Volume           =         2031.954
  Number of Points =         2298
 -------------------------------------------



 ======================
 RI Hartree-Fock Scheme
 ======================
  
 Fit Set Quality     : GOOD
 Integration Quality : GOOD
 Threshold Quality   : GOOD
 Response Quality    : DEFAULT
 Is Range Separated  :  F
 
 RIHartreeFock Dependency: number of modified vectors:          25
 cosmo_calcen: 0.5 (esolb+esolc) (Hartrees) =   -0.010510

 Solvation energy (screening term,uncorrected) =     -6.595227 kcal/mol

 Solvation energy (dispersion and cavitation terms) =      1.456636 kcal/mol
 Solvation Energy Contributions (Hartrees)
          esola   esolb+esolc
     0.01051016   -0.02102033
 esol last cycle   -0.01051016
  
 Hartree-Fock exchange energy:   -113.741172002592     
 cosmo_calcen: 0.5 (esolb+esolc) (Hartrees) =   -0.010510

 Solvation energy (screening term,uncorrected) =     -6.595226 kcal/mol

 Solvation energy (dispersion and cavitation terms) =      1.456636 kcal/mol
 Solvation Energy Contributions (Hartrees)
          esola   esolb+esolc
     0.01051016   -0.02102032
 esol last cycle   -0.01051016
  pauli hf:                              3.711247550199683        100.9882          2328.84          9743.88
  elstat hf:                            -3.762739687375674       -102.3894         -2361.16         -9879.07

 Energy gradients wrt nuclear displacements
 ==========================================

     Atom      Cartesian (a.u./angstrom)
                 X         Y         Z
 ----------------------------------------
     1 O    -0.001704 -0.001081 -0.010450
     2 P    -0.003991  0.002758  0.010973
     3 O     0.003176 -0.008072  0.004691
     4 O     0.000948  0.008584 -0.005729
     5 C     0.001819  0.001051 -0.003368
     6 C     0.003421 -0.002587  0.000498
     7 C    -0.000073 -0.000032  0.000113
     8 C     0.000076  0.000020  0.000282
     9 C    -0.000170  0.000082  0.000109
    10 C    -0.000196  0.000039 -0.000156
    11 H     0.000594 -0.000052 -0.000598
    12 H    -0.000742  0.000431 -0.000167
    13 H    -0.000284 -0.000688  0.000199
    14 H     0.000235  0.000320  0.000778
    15 H     0.000542  0.000070 -0.000534
    16 H    -0.000154 -0.000804  0.000076
    17 H     0.000807 -0.000226 -0.000124
    18 H    -0.000300 -0.000212  0.000740
    19 H    -0.000018  0.000802  0.000025
    20 H     0.000712 -0.000324 -0.000056
    21 H     0.000138  0.000799 -0.000053
    22 H    -0.000592 -0.000241 -0.000516
    23 C    -0.003550 -0.000684  0.003599
    24 C     0.001298  0.000557 -0.001611
    25 N    -0.000459 -0.000104  0.004628
    26 C    -0.000155 -0.001029 -0.001556
    27 H     0.000045  0.000663  0.000343
    28 H    -0.000649 -0.000202  0.000281
    29 C    -0.000623  0.000796 -0.001691
    30 H    -0.000217  0.000104  0.000590
    31 H     0.000139 -0.000607 -0.000070
    32 H     0.000078  0.000591  0.000116
    33 H     0.000144 -0.000065 -0.000651
    34 H    -0.000065  0.000109 -0.000699
    35 H     0.000017 -0.000136 -0.000694
    36 H     0.000386 -0.000499  0.000411
    37 H    -0.000633 -0.000127  0.000270
 ----------------------------------------
 Mulliken charges used for AMS results%charges...
 
----------------------------------------------------------------------
Geometry Convergence after Step   1       (Hartree/Angstrom,Angstrom)
----------------------------------------------------------------------
current energy                               -9.24550828 Hartree
energy change                      -9.24550828     0.00037000    F
constrained gradient max            0.01097088     0.00100000    F
constrained gradient rms            0.00226405     0.00066667    F
gradient max                        0.01097088
gradient rms                        0.00226405
cart. step max                      0.03048416     0.00100000    F
cart. step rms                      0.01257185     0.00066667    F
 
 
--------
Geometry
--------
Formula: C10H22NO3P
Atoms
  Index Symbol   x (angstrom)   y (angstrom)   z (angstrom)
      1      O     3.34042800     0.23267626     0.14180190       adf.R=1.517
      2      P     2.21793866    -0.18926297    -0.96767889       adf.R=1.850
      3      O     1.16599520     1.06379031    -1.01978081       adf.R=1.517
      4      O     1.26956869    -1.08499118     0.02192917       adf.R=1.517
      5      C     0.16774429     1.01252455     0.03523827       adf.R=1.700
      6      C    -0.04926646    -0.51767926     0.22751580       adf.R=1.700
      7      C     0.72271996     1.70415184     1.27187755       adf.R=1.700
      8      C    -1.05643525     1.74998376    -0.46705825       adf.R=1.700
      9      C    -0.97236311    -1.12391194    -0.81872675       adf.R=1.700
     10      C    -0.50443908    -0.90440072     1.61963900       adf.R=1.700
     11      H    -0.04629222     1.79099151     2.04116929       adf.R=1.350
     12      H     1.58014505     1.17340102     1.68283575       adf.R=1.350
     13      H     1.04269721     2.71012760     0.99612626       adf.R=1.350
     14      H    -1.38102163     1.37734699    -1.43733196       adf.R=1.350
     15      H    -1.87927856     1.64432127     0.24323192       adf.R=1.350
     16      H    -0.82925074     2.81275301    -0.56312436       adf.R=1.350
     17      H    -2.00708790    -0.81902928    -0.65715094       adf.R=1.350
     18      H    -0.67640455    -0.83404763    -1.82832106       adf.R=1.350
     19      H    -0.92061269    -2.21093310    -0.74441672       adf.R=1.350
     20      H    -1.46266905    -0.43275840     1.84790724       adf.R=1.350
     21      H    -0.63929033    -1.98557483     1.67445040       adf.R=1.350
     22      H     0.22115969    -0.60772854     2.37521122       adf.R=1.350
     23      C     4.64424863     0.58867226    -0.31796774       adf.R=1.700
     24      C     5.66506816    -0.06444716     0.59334477       adf.R=1.700
     25      N     7.02702634     0.31064864     0.25951292       adf.R=1.608
     26      C     7.34356587     1.65593700     0.70299110       adf.R=1.700
     27      H     7.76787703    -1.63712204     0.45455070       adf.R=1.350
     28      H     8.36322732     1.90835741     0.40731942       adf.R=1.350
     29      C     7.97132366    -0.63229269     0.82810503       adf.R=1.700
     30      H     4.79518810     0.25415563    -1.34990718       adf.R=1.350
     31      H     4.72876187     1.67744430    -0.30113608       adf.R=1.350
     32      H     5.56768105    -1.14723143     0.48576228       adf.R=1.350
     33      H     5.41843051     0.17838947     1.64196003       adf.R=1.350
     34      H     7.93034220    -0.65895611     1.93073296       adf.R=1.350
     35      H     7.26759612     1.76073993     1.79926550       adf.R=1.350
     36      H     6.67567493     2.38543935     0.24507795       adf.R=1.350
     37      H     8.98658802    -0.35754143     0.53622667       adf.R=1.350
 
Total System Charge             0.00000
Bonding info available!
 
 *** GOStep2 ***

 SOLVATION
-------------------------------------------

  The Delley construction of COSMO surface surface is calculated

       Division Level for Surface Triangles (NDIV)                  3
       Final Division Level for Triangles (NFDIV)                   1
       Radius of the Solvent (RSOL)                           3.17000 angstr
  Dielectric Constant (EPSL)                                  4.80000

       COSMO equation is solved iteratively-               conjugate-gradient

       Maximun of Iterations for Charges (NCIX)                  1000
       Criterion for Charge convergence (CCNV)                1.0E-08

  COSMO charges included variationally in SCF

       COSMO included at every SCF cycle

  Geometry-dependent empirical factor                         0.00000

  C-Matrix calculated in cspmtx

  In cspmtx, C-Matrix calculated using fitted potential

-------------------------------------------



 -------------------------------------------
  COSMO surface
  Area             =          972.618
  Volume           =         2033.291
  Number of Points =         2292
 -------------------------------------------



 ======================
 RI Hartree-Fock Scheme
 ======================
  
 Fit Set Quality     : GOOD
 Integration Quality : GOOD
 Threshold Quality   : GOOD
 Response Quality    : DEFAULT
 Is Range Separated  :  F
 
 RIHartreeFock Dependency: number of modified vectors:          25
 cosmo_calcen: 0.5 (esolb+esolc) (Hartrees) =   -0.010580

 Solvation energy (screening term,uncorrected) =     -6.639268 kcal/mol

 Solvation energy (dispersion and cavitation terms) =      1.458425 kcal/mol
 Solvation Energy Contributions (Hartrees)
          esola   esolb+esolc
     0.01058035   -0.02116069
 esol last cycle   -0.01058035
  
 Hartree-Fock exchange energy:   -113.723793197050     
 cosmo_calcen: 0.5 (esolb+esolc) (Hartrees) =   -0.010580

 Solvation energy (screening term,uncorrected) =     -6.639270 kcal/mol

 Solvation energy (dispersion and cavitation terms) =      1.458425 kcal/mol
 Solvation Energy Contributions (Hartrees)
          esola   esolb+esolc
     0.01058035   -0.02116070
 esol last cycle   -0.01058035
  pauli hf:                              3.715574571847633        101.1059          2331.56          9755.24
  elstat hf:                            -3.753253607794932       -102.1312         -2355.20         -9854.17

 Energy gradients wrt nuclear displacements
 ==========================================

     Atom      Cartesian (a.u./angstrom)
                 X         Y         Z
 ----------------------------------------
     1 O     0.000460 -0.000760 -0.006011
     2 P    -0.002772  0.002219  0.007690
     3 O     0.000988 -0.002666  0.001063
     4 O    -0.000103  0.002405 -0.003007
     5 C     0.001339  0.000789 -0.002068
     6 C     0.002209 -0.001683  0.000283
     7 C    -0.000032  0.000055  0.000300
     8 C     0.000120 -0.000014  0.000070
     9 C    -0.000171 -0.000037  0.000080
    10 C    -0.000026  0.000007 -0.000094
    11 H     0.000135  0.000025 -0.000181
    12 H    -0.000322  0.000230 -0.000061
    13 H    -0.000073 -0.000164  0.000078
    14 H     0.000012  0.000126  0.000213
    15 H     0.000193  0.000014 -0.000169
    16 H    -0.000071 -0.000224  0.000007
    17 H     0.000234 -0.000072 -0.000034
    18 H    -0.000095 -0.000109  0.000233
    19 H    -0.000035  0.000196 -0.000009
    20 H     0.000256 -0.000102 -0.000010
    21 H     0.000036  0.000216  0.000018
    22 H    -0.000187 -0.000090 -0.000104
    23 C    -0.002587 -0.000665  0.002251
    24 C     0.001508  0.000592 -0.000945
    25 N    -0.000180 -0.000129  0.001747
    26 C    -0.000216 -0.001125 -0.000804
    27 H     0.000032  0.000185  0.000149
    28 H    -0.000197 -0.000025  0.000125
    29 C    -0.000753  0.000857 -0.000930
    30 H     0.000121  0.000060  0.000050
    31 H     0.000188 -0.000118 -0.000140
    32 H     0.000025  0.000188  0.000071
    33 H    -0.000182 -0.000051 -0.000051
    34 H     0.000113 -0.000080 -0.000050
    35 H     0.000039  0.000135 -0.000057
    36 H     0.000171 -0.000121  0.000181
    37 H    -0.000178 -0.000062  0.000113
 ----------------------------------------
 Mulliken charges used for AMS results%charges...

 dE(predicted):    -0.12693E-03, dE(actual):    -0.20042E-03, Trust radius:    0.200000, all in a.u.
 
----------------------------------------------------------------------
Geometry Convergence after Step   2       (Hartree/Angstrom,Angstrom)
----------------------------------------------------------------------
current energy                               -9.24570870 Hartree
energy change                      -0.00020042     0.00037000    T
constrained gradient max            0.00768775     0.00100000    F
constrained gradient rms            0.00124310     0.00066667    F
gradient max                        0.00768775
gradient rms                        0.00124310
cart. step max                      0.01733410     0.00100000    F
cart. step rms                      0.00622169     0.00066667    F
 
 
--------
Geometry
--------
Formula: C10H22NO3P
Atoms
  Index Symbol   x (angstrom)   y (angstrom)   z (angstrom)
      1      O     3.33734896     0.24241980     0.15649908       adf.R=1.517
      2      P     2.22228084    -0.18951184    -0.96385219       adf.R=1.850
      3      O     1.16355323     1.06332957    -1.02022023       adf.R=1.517
      4      O     1.27196951    -1.08366699     0.03311156       adf.R=1.517
      5      C     0.16574282     1.01180353     0.03851337       adf.R=1.700
      6      C    -0.05207699    -0.51789773     0.22780206       adf.R=1.700
      7      C     0.72656336     1.70016700     1.27442412       adf.R=1.700
      8      C    -1.05899925     1.75074403    -0.46147475       adf.R=1.700
      9      C    -0.96550812    -1.12512525    -0.82668547       adf.R=1.700
     10      C    -0.51630974    -0.90543316     1.61708714       adf.R=1.700
     11      H    -0.03895431     1.78581300     2.04781494       adf.R=1.350
     12      H     1.58576273     1.16702394     1.67985793       adf.R=1.350
     13      H     1.04669156     2.70662606     0.99940796       adf.R=1.350
     14      H    -1.38509492     1.37858397    -1.43182876       adf.R=1.350
     15      H    -1.88113017     1.64511162     0.25021264       adf.R=1.350
     16      H    -0.83108300     2.81374279    -0.55718208       adf.R=1.350
     17      H    -2.00249046    -0.82230420    -0.67342446       adf.R=1.350
     18      H    -0.66140785    -0.83353839    -1.83376266       adf.R=1.350
     19      H    -0.91212568    -2.21242897    -0.75293079       adf.R=1.350
     20      H    -1.47745900    -0.43556279     1.83842048       adf.R=1.350
     21      H    -0.64937081    -1.98720590     1.67117394       adf.R=1.350
     22      H     0.20382560    -0.60685916     2.37762392       adf.R=1.350
     23      C     4.64275222     0.59267615    -0.31262168       adf.R=1.700
     24      C     5.66477380    -0.06036249     0.59801066       adf.R=1.700
     25      N     7.02753138     0.30840986     0.25379922       adf.R=1.608
     26      C     7.34890281     1.65588099     0.69192346       adf.R=1.700
     27      H     7.76366252    -1.64132191     0.46252912       adf.R=1.350
     28      H     8.36858177     1.90471075     0.39207502       adf.R=1.350
     29      C     7.97032451    -0.63426921     0.82922710       adf.R=1.700
     30      H     4.78722033     0.25220561    -1.34370734       adf.R=1.350
     31      H     4.72995580     1.68150619    -0.30112141       adf.R=1.350
     32      H     5.56242116    -1.14355177     0.49647253       adf.R=1.350
     33      H     5.42545489     0.18951365     1.64680539       adf.R=1.350
     34      H     7.92963283    -0.65257302     1.93219577       adf.R=1.350
     35      H     7.27597861     1.76453298     1.78818539       adf.R=1.350
     36      H     6.68128058     2.38524464     0.23251221       adf.R=1.350
     37      H     8.98638349    -0.36448996     0.53430917       adf.R=1.350
 
Total System Charge             0.00000
Bonding info available!
 
 *** GOStep3 ***

 SOLVATION
-------------------------------------------

  The Delley construction of COSMO surface surface is calculated

       Division Level for Surface Triangles (NDIV)                  3
       Final Division Level for Triangles (NFDIV)                   1
       Radius of the Solvent (RSOL)                           3.17000 angstr
  Dielectric Constant (EPSL)                                  4.80000

       COSMO equation is solved iteratively-               conjugate-gradient

       Maximun of Iterations for Charges (NCIX)                  1000
       Criterion for Charge convergence (CCNV)                1.0E-08

  COSMO charges included variationally in SCF

       COSMO included at every SCF cycle

  Geometry-dependent empirical factor                         0.00000

  C-Matrix calculated in cspmtx

  In cspmtx, C-Matrix calculated using fitted potential

-------------------------------------------



 -------------------------------------------
  COSMO surface
  Area             =          973.055
  Volume           =         2034.809
  Number of Points =         2297
 -------------------------------------------



 ======================
 RI Hartree-Fock Scheme
 ======================
  
 Fit Set Quality     : GOOD
 Integration Quality : GOOD
 Threshold Quality   : GOOD
 Response Quality    : DEFAULT
 Is Range Separated  :  F
 
 RIHartreeFock Dependency: number of modified vectors:          25
 cosmo_calcen: 0.5 (esolb+esolc) (Hartrees) =   -0.010625

 Solvation energy (screening term,uncorrected) =     -6.667336 kcal/mol

 Solvation energy (dispersion and cavitation terms) =      1.459080 kcal/mol
 Solvation Energy Contributions (Hartrees)
          esola   esolb+esolc
     0.01062508   -0.02125015
 esol last cycle   -0.01062508
  
 Hartree-Fock exchange energy:   -113.708760842792     
 cosmo_calcen: 0.5 (esolb+esolc) (Hartrees) =   -0.010625

 Solvation energy (screening term,uncorrected) =     -6.667338 kcal/mol

 Solvation energy (dispersion and cavitation terms) =      1.459080 kcal/mol
 Solvation Energy Contributions (Hartrees)
          esola   esolb+esolc
     0.01062508   -0.02125016
 esol last cycle   -0.01062508
  pauli hf:                              3.713556408855862        101.0510          2330.29          9749.94
  elstat hf:                            -3.744901479906201       -101.9040         -2349.96         -9832.24

 Energy gradients wrt nuclear displacements
 ==========================================

     Atom      Cartesian (a.u./angstrom)
                 X         Y         Z
 ----------------------------------------
     1 O    -0.000524  0.000099  0.000783
     2 P     0.001901 -0.000749 -0.001522
     3 O    -0.000423  0.000385  0.000527
     4 O     0.000261  0.000249  0.000108
     5 C    -0.000070  0.001104 -0.000095
     6 C    -0.000345 -0.000896  0.000297
     7 C     0.000120  0.000091 -0.000058
     8 C    -0.000233 -0.000139 -0.000017
     9 C    -0.000201 -0.000068 -0.000055
    10 C    -0.000019  0.000186  0.000137
    11 H    -0.000057 -0.000050  0.000182
    12 H     0.000417 -0.000161  0.000143
    13 H     0.000087  0.000176 -0.000051
    14 H    -0.000109 -0.000051 -0.000199
    15 H    -0.000169  0.000011  0.000097
    16 H     0.000068  0.000188 -0.000014
    17 H    -0.000180  0.000051  0.000007
    18 H     0.000102 -0.000031 -0.000210
    19 H     0.000007 -0.000224 -0.000012
    20 H    -0.000159  0.000058  0.000075
    21 H    -0.000009 -0.000204  0.000003
    22 H     0.000133  0.000048  0.000208
    23 C    -0.000884 -0.000069 -0.000112
    24 C     0.000572 -0.000051  0.000221
    25 N    -0.000127  0.000081 -0.000582
    26 C    -0.000167 -0.000411 -0.000079
    27 H     0.000040 -0.000222 -0.000028
    28 H     0.000175  0.000122 -0.000049
    29 C    -0.000342  0.000218 -0.000149
    30 H     0.000060 -0.000076 -0.000300
    31 H     0.000127  0.000258 -0.000112
    32 H    -0.000069 -0.000185  0.000051
    33 H    -0.000203 -0.000006  0.000308
    34 H     0.000108 -0.000094  0.000316
    35 H     0.000015  0.000154  0.000304
    36 H    -0.000106  0.000210 -0.000076
    37 H     0.000201 -0.000004 -0.000046
 ----------------------------------------
 Mulliken charges used for AMS results%charges...

 dE(predicted):    -0.66751E-04, dE(actual):    -0.68181E-04, Trust radius:    0.200000, all in a.u.
 
----------------------------------------------------------------------
Geometry Convergence after Step   3       (Hartree/Angstrom,Angstrom)
----------------------------------------------------------------------
current energy                               -9.24577688 Hartree
energy change                      -0.00006818     0.00037000    T
constrained gradient max            0.00190385     0.00100000    F
constrained gradient rms            0.00035550     0.00066667    T
gradient max                        0.00190385
gradient rms                        0.00035550
cart. step max                      0.01888864     0.00100000    F
cart. step rms                      0.00572400     0.00066667    F
 
 
--------
Geometry
--------
Formula: C10H22NO3P
Atoms
  Index Symbol   x (angstrom)   y (angstrom)   z (angstrom)
      1      O     3.34178499     0.24177810     0.16328893       adf.R=1.517
      2      P     2.22226756    -0.18993418    -0.95294553       adf.R=1.850
      3      O     1.16568558     1.06410404    -1.01229307       adf.R=1.517
      4      O     1.27058632    -1.08187514     0.04445293       adf.R=1.517
      5      C     0.16243809     1.01219854     0.04131395       adf.R=1.700
      6      C    -0.05482125    -0.51696614     0.23093210       adf.R=1.700
      7      C     0.71354994     1.70255659     1.28021545       adf.R=1.700
      8      C    -1.05983506     1.74956865    -0.46637270       adf.R=1.700
      9      C    -0.96167139    -1.12558826    -0.82807594       adf.R=1.700
     10      C    -0.52670852    -0.90412393     1.61755717       adf.R=1.700
     11      H    -0.05784294     1.78872599     2.04756361       adf.R=1.350
     12      H     1.56982587     1.17059330     1.69275342       adf.R=1.350
     13      H     1.03484378     2.70881968     1.00625878       adf.R=1.350
     14      H    -1.37966723     1.37633343    -1.43826420       adf.R=1.350
     15      H    -1.88593470     1.64346202     0.24049413       adf.R=1.350
     16      H    -0.83254668     2.81265199    -0.56143912       adf.R=1.350
     17      H    -1.99973390    -0.82411033    -0.68024979       adf.R=1.350
     18      H    -0.65279911    -0.83369041    -1.83348725       adf.R=1.350
     19      H    -0.90725019    -2.21268424    -0.75367892       adf.R=1.350
     20      H    -1.48939989    -0.43488583     1.83300769       adf.R=1.350
     21      H    -0.65918881    -1.98586565     1.67157561       adf.R=1.350
     22      H     0.18878692    -0.60445915     2.38186353       adf.R=1.350
     23      C     4.64615057     0.59287318    -0.30887907       adf.R=1.700
     24      C     5.67080723    -0.06146708     0.59754206       adf.R=1.700
     25      N     7.03289648     0.30787580     0.25097336       adf.R=1.608
     26      C     7.35554598     1.65509361     0.68888093       adf.R=1.700
     27      H     7.76985458    -1.64173566     0.45529901       adf.R=1.350
     28      H     8.37444278     1.90375254     0.38660651       adf.R=1.350
     29      C     7.97737287    -0.63525907     0.82278475       adf.R=1.700
     30      H     4.78759531     0.25436577    -1.34085881       adf.R=1.350
     31      H     4.73290292     1.68158055    -0.29540730       adf.R=1.350
     32      H     5.56843496    -1.14440751     0.49437719       adf.R=1.350
     33      H     5.43460216     0.18669247     1.64725818       adf.R=1.350
     34      H     7.93899809    -0.65464157     1.92564415       adf.R=1.350
     35      H     7.28527855     1.76279978     1.78523258       adf.R=1.350
     36      H     6.68681685     2.38456333     0.23151404       adf.R=1.350
     37      H     8.99251632    -0.36475180     0.52574397       adf.R=1.350
 
Total System Charge             0.00000
Bonding info available!
 
 *** GOStep4 ***

 SOLVATION
-------------------------------------------

  The Delley construction of COSMO surface surface is calculated

       Division Level for Surface Triangles (NDIV)                  3
       Final Division Level for Triangles (NFDIV)                   1
       Radius of the Solvent (RSOL)                           3.17000 angstr
  Dielectric Constant (EPSL)                                  4.80000

       COSMO equation is solved iteratively-               conjugate-gradient

       Maximun of Iterations for Charges (NCIX)                  1000
       Criterion for Charge convergence (CCNV)                1.0E-08

  COSMO charges included variationally in SCF

       COSMO included at every SCF cycle

  Geometry-dependent empirical factor                         0.00000

  C-Matrix calculated in cspmtx

  In cspmtx, C-Matrix calculated using fitted potential

-------------------------------------------



 -------------------------------------------
  COSMO surface
  Area             =          972.933
  Volume           =         2034.030
  Number of Points =         2295
 -------------------------------------------



 ======================
 RI Hartree-Fock Scheme
 ======================
  
 Fit Set Quality     : GOOD
 Integration Quality : GOOD
 Threshold Quality   : GOOD
 Response Quality    : DEFAULT
 Is Range Separated  :  F
 
 RIHartreeFock Dependency: number of modified vectors:          25
 cosmo_calcen: 0.5 (esolb+esolc) (Hartrees) =   -0.010650

 Solvation energy (screening term,uncorrected) =     -6.683139 kcal/mol

 Solvation energy (dispersion and cavitation terms) =      1.458897 kcal/mol
 Solvation Energy Contributions (Hartrees)
          esola   esolb+esolc
     0.01065026   -0.02130052
 esol last cycle   -0.01065026
  
 Hartree-Fock exchange energy:   -113.710100855826     
 cosmo_calcen: 0.5 (esolb+esolc) (Hartrees) =   -0.010650

 Solvation energy (screening term,uncorrected) =     -6.683140 kcal/mol

 Solvation energy (dispersion and cavitation terms) =      1.458897 kcal/mol
 Solvation Energy Contributions (Hartrees)
          esola   esolb+esolc
     0.01065026   -0.02130052
 esol last cycle   -0.01065026
  pauli hf:                              3.715249656828558        101.0971          2331.35          9754.39
  elstat hf:                            -3.745617935411222       -101.9234         -2350.41         -9834.12

 Energy gradients wrt nuclear displacements
 ==========================================

     Atom      Cartesian (a.u./angstrom)
                 X         Y         Z
 ----------------------------------------
     1 O     0.000421  0.000040  0.000040
     2 P     0.000534 -0.000338 -0.000101
     3 O    -0.000347  0.000291 -0.000175
     4 O    -0.000325 -0.000200 -0.000180
     5 C     0.000199  0.000563 -0.000120
     6 C    -0.000069 -0.000572  0.000206
     7 C    -0.000226  0.000037  0.000287
     8 C     0.000018 -0.000026  0.000024
     9 C    -0.000102  0.000039  0.000009
    10 C     0.000001  0.000070  0.000078
    11 H    -0.000043  0.000015  0.000098
    12 H     0.000016 -0.000000 -0.000005
    13 H     0.000013  0.000069 -0.000050
    14 H    -0.000021 -0.000048 -0.000064
    15 H    -0.000043 -0.000010  0.000054
    16 H     0.000019  0.000085 -0.000006
    17 H    -0.000075  0.000021  0.000010
    18 H     0.000071 -0.000005 -0.000054
    19 H     0.000010 -0.000089  0.000025
    20 H    -0.000064  0.000022  0.000031
    21 H    -0.000004 -0.000091  0.000019
    22 H     0.000059  0.000029  0.000062
    23 C    -0.000459 -0.000003  0.000022
    24 C     0.000233 -0.000025 -0.000020
    25 N    -0.000051  0.000018 -0.000048
    26 C     0.000004 -0.000098 -0.000063
    27 H     0.000013 -0.000087 -0.000022
    28 H     0.000084  0.000068 -0.000029
    29 C    -0.000034  0.000072 -0.000095
    30 H     0.000072 -0.000017 -0.000117
    31 H     0.000126  0.000135 -0.000075
    32 H    -0.000059 -0.000068  0.000022
    33 H    -0.000052  0.000007  0.000096
    34 H     0.000023 -0.000011  0.000104
    35 H     0.000003  0.000032  0.000098
    36 H    -0.000049  0.000086 -0.000040
    37 H     0.000106 -0.000007 -0.000024
 ----------------------------------------
 Mulliken charges used for AMS results%charges...

 dE(predicted):    -0.83086E-05, dE(actual):    -0.21225E-04, Trust radius:    0.200000, all in a.u.
 
----------------------------------------------------------------------
Geometry Convergence after Step   4       (Hartree/Angstrom,Angstrom)
----------------------------------------------------------------------
current energy                               -9.24579811 Hartree
energy change                      -0.00002123     0.00037000    T
constrained gradient max            0.00056965     0.00100000    T
constrained gradient rms            0.00014809     0.00066667    T
gradient max                        0.00056965
gradient rms                        0.00014809
cart. step max                      0.00438367     0.00100000    F
cart. step rms                      0.00106459     0.00066667    F
 
 
--------
Geometry
--------
Formula: C10H22NO3P
Atoms
  Index Symbol   x (angstrom)   y (angstrom)   z (angstrom)
      1      O     3.34085352     0.24209241     0.16272604       adf.R=1.517
      2      P     2.22152412    -0.19037637    -0.95315669       adf.R=1.850
      3      O     1.16514441     1.06327728    -1.01350518       adf.R=1.517
      4      O     1.27098217    -1.08182361     0.04537162       adf.R=1.517
      5      C     0.16296734     1.01174450     0.04092171       adf.R=1.700
      6      C    -0.05443891    -0.51698527     0.23092496       adf.R=1.700
      7      C     0.71672756     1.70186998     1.27860132       adf.R=1.700
      8      C    -1.05945359     1.74979746    -0.46527486       adf.R=1.700
      9      C    -0.96104957    -1.12595589    -0.82796630       adf.R=1.700
     10      C    -0.52658850    -0.90409320     1.61737064       adf.R=1.700
     11      H    -0.05345927     1.78900935     2.04695827       adf.R=1.350
     12      H     1.57299698     1.16913537     1.69004230       adf.R=1.350
     13      H     1.03861159     2.70770440     1.00399339       adf.R=1.350
     14      H    -1.38067529     1.37682216    -1.43673782       adf.R=1.350
     15      H    -1.88471681     1.64412485     0.24256000       adf.R=1.350
     16      H    -0.83172093     2.81270013    -0.56055907       adf.R=1.350
     17      H    -1.99915423    -0.82494531    -0.67988857       adf.R=1.350
     18      H    -0.65264970    -0.83383372    -1.83339110       adf.R=1.350
     19      H    -0.90619995    -2.21297205    -0.75362015       adf.R=1.350
     20      H    -1.48925262    -0.43481312     1.83257364       adf.R=1.350
     21      H    -0.65911653    -1.98576439     1.67139286       adf.R=1.350
     22      H     0.18871642    -0.60444633     2.38177637       adf.R=1.350
     23      C     4.64533268     0.59352675    -0.30890554       adf.R=1.700
     24      C     5.66971639    -0.06125400     0.59725566       adf.R=1.700
     25      N     7.03188622     0.30811785     0.25126579       adf.R=1.608
     26      C     7.35443992     1.65527379     0.68921687       adf.R=1.700
     27      H     7.76850306    -1.64140308     0.45566333       adf.R=1.350
     28      H     8.37347730     1.90362584     0.38740511       adf.R=1.350
     29      C     7.97597803    -0.63507824     0.82340655       adf.R=1.700
     30      H     4.78685572     0.25574178    -1.34102292       adf.R=1.350
     31      H     4.73160120     1.68216710    -0.29452637       adf.R=1.350
     32      H     5.56751686    -1.14409308     0.49342177       adf.R=1.350
     33      H     5.43341175     0.18637311     1.64698987       adf.R=1.350
     34      H     7.93697144    -0.65451811     1.92615964       adf.R=1.350
     35      H     7.28362355     1.76300922     1.78544708       adf.R=1.350
     36      H     6.68604625     2.38468307     0.23142750       adf.R=1.350
     37      H     8.99117642    -0.36449720     0.52686465       adf.R=1.350
 
Total System Charge             0.00000
Bonding info available!
 
 *** GOStep5 ***

 SOLVATION
-------------------------------------------

  The Delley construction of COSMO surface surface is calculated

       Division Level for Surface Triangles (NDIV)                  3
       Final Division Level for Triangles (NFDIV)                   1
       Radius of the Solvent (RSOL)                           3.17000 angstr
  Dielectric Constant (EPSL)                                  4.80000

       COSMO equation is solved iteratively-               conjugate-gradient

       Maximun of Iterations for Charges (NCIX)                  1000
       Criterion for Charge convergence (CCNV)                1.0E-08

  COSMO charges included variationally in SCF

       COSMO included at every SCF cycle

  Geometry-dependent empirical factor                         0.00000

  C-Matrix calculated in cspmtx

  In cspmtx, C-Matrix calculated using fitted potential

-------------------------------------------



 -------------------------------------------
  COSMO surface
  Area             =          972.376
  Volume           =         2032.865
  Number of Points =         2292
 -------------------------------------------



 ======================
 RI Hartree-Fock Scheme
 ======================
  
 Fit Set Quality     : GOOD
 Integration Quality : GOOD
 Threshold Quality   : GOOD
 Response Quality    : DEFAULT
 Is Range Separated  :  F
 
 RIHartreeFock Dependency: number of modified vectors:          25
 cosmo_calcen: 0.5 (esolb+esolc) (Hartrees) =   -0.010645

 Solvation energy (screening term,uncorrected) =     -6.679759 kcal/mol

 Solvation energy (dispersion and cavitation terms) =      1.458063 kcal/mol
 Solvation Energy Contributions (Hartrees)
          esola   esolb+esolc
     0.01064487   -0.02128974
 esol last cycle   -0.01064487
  
 Hartree-Fock exchange energy:   -113.711791203989     
 cosmo_calcen: 0.5 (esolb+esolc) (Hartrees) =   -0.010645

 Solvation energy (screening term,uncorrected) =     -6.679759 kcal/mol

 Solvation energy (dispersion and cavitation terms) =      1.458063 kcal/mol
 Solvation Energy Contributions (Hartrees)
          esola   esolb+esolc
     0.01064487   -0.02128974
 esol last cycle   -0.01064487
  pauli hf:                              3.714101342983671        101.0658          2330.63          9751.37
  elstat hf:                            -3.746637883295648       -101.9512         -2351.05         -9836.80

 Energy gradients wrt nuclear displacements
 ==========================================

     Atom      Cartesian (a.u./angstrom)
                 X         Y         Z
 ----------------------------------------
     1 O     0.000178  0.000025 -0.000080
     2 P    -0.000114 -0.000079  0.000301
     3 O    -0.000194  0.000273  0.000024
     4 O    -0.000155 -0.000142 -0.000087
     5 C     0.000160  0.000221 -0.000176
     6 C     0.000056 -0.000310  0.000036
     7 C     0.000003  0.000027  0.000012
     8 C     0.000019  0.000024 -0.000037
     9 C    -0.000058 -0.000006  0.000059
    10 C     0.000075 -0.000050  0.000011
    11 H     0.000006 -0.000017 -0.000013
    12 H     0.000020  0.000007 -0.000016
    13 H     0.000002  0.000021 -0.000006
    14 H    -0.000003 -0.000002  0.000012
    15 H     0.000006 -0.000002  0.000018
    16 H    -0.000003  0.000014  0.000001
    17 H    -0.000001 -0.000004  0.000007
    18 H     0.000034 -0.000013  0.000020
    19 H    -0.000003 -0.000022  0.000023
    20 H     0.000002  0.000003 -0.000004
    21 H    -0.000000 -0.000020  0.000023
    22 H     0.000003 -0.000002  0.000004
    23 C    -0.000218 -0.000008  0.000030
    24 C     0.000129 -0.000008 -0.000018
    25 N    -0.000024  0.000001  0.000067
    26 C     0.000014 -0.000034 -0.000033
    27 H    -0.000002 -0.000006 -0.000013
    28 H     0.000022  0.000024 -0.000027
    29 C    -0.000016  0.000031 -0.000054
    30 H     0.000027 -0.000006 -0.000023
    31 H     0.000039  0.000029 -0.000038
    32 H    -0.000007 -0.000004  0.000006
    33 H    -0.000008  0.000007 -0.000000
    34 H     0.000005  0.000010  0.000005
    35 H     0.000002  0.000003  0.000002
    36 H    -0.000012  0.000013 -0.000014
    37 H     0.000018  0.000006 -0.000019
 ----------------------------------------
 Mulliken charges used for AMS results%charges...

 dE(predicted):    -0.13247E-05, dE(actual):    -0.19720E-05, Trust radius:    0.200000, all in a.u.
 
----------------------------------------------------------------------
Geometry Convergence after Step   5       (Hartree/Angstrom,Angstrom)
----------------------------------------------------------------------
current energy                               -9.24580008 Hartree
energy change                      -0.00000197     0.00037000    T
constrained gradient max            0.00030796     0.00100000    T
constrained gradient rms            0.00007501     0.00066667    T
gradient max                        0.00030796
gradient rms                        0.00007501
cart. step max                      0.00317910     0.00100000    F
cart. step rms                      0.00096406     0.00066667    F
 
 
--------
Geometry
--------
Formula: C10H22NO3P
Atoms
  Index Symbol   x (angstrom)   y (angstrom)   z (angstrom)
      1      O     3.34101174     0.24356029     0.16354351       adf.R=1.517
      2      P     2.22187841    -0.18982474    -0.95218396       adf.R=1.850
      3      O     1.16499104     1.06319831    -1.01304564       adf.R=1.517
      4      O     1.27212261    -1.08041288     0.04788212       adf.R=1.517
      5      C     0.16254617     1.01175445     0.04130160       adf.R=1.700
      6      C    -0.05408971    -0.51662649     0.23149499       adf.R=1.700
      7      C     0.71581474     1.70222971     1.27894824       adf.R=1.700
      8      C    -1.06020581     1.74897147    -0.46524416       adf.R=1.700
      9      C    -0.95894781    -1.12646778    -0.82836515       adf.R=1.700
     10      C    -0.52784241    -0.90337626     1.61746702       adf.R=1.700
     11      H    -0.05473215     1.78976453     2.04688937       adf.R=1.350
     12      H     1.57176033     1.16951506     1.69103703       adf.R=1.350
     13      H     1.03795151     2.70791229     1.00419724       adf.R=1.350
     14      H    -1.38102351     1.37561948    -1.43667975       adf.R=1.350
     15      H    -1.88553921     1.64292470     0.24243468       adf.R=1.350
     16      H    -0.83310684     2.81196608    -0.56067716       adf.R=1.350
     17      H    -1.99749221    -0.82660989    -0.68112923       adf.R=1.350
     18      H    -0.65013447    -0.83384805    -1.83349822       adf.R=1.350
     19      H    -0.90302085    -2.21340668    -0.75410782       adf.R=1.350
     20      H    -1.49103505    -0.43456864     1.83125438       adf.R=1.350
     21      H    -0.65979856    -1.98507215     1.67176818       adf.R=1.350
     22      H     0.18630025    -0.60298791     2.38264929       adf.R=1.350
     23      C     4.64553470     0.59490567    -0.30832737       adf.R=1.700
     24      C     5.66981051    -0.06108095     0.59689583       adf.R=1.700
     25      N     7.03207582     0.30769584     0.25057328       adf.R=1.608
     26      C     7.35521899     1.65467825     0.68863897       adf.R=1.700
     27      H     7.76776915    -1.64213247     0.45492239       adf.R=1.350
     28      H     8.37441824     1.90239555     0.38698740       adf.R=1.350
     29      C     7.97569497    -0.63596259     0.82276218       adf.R=1.700
     30      H     4.78638954     0.25794666    -1.34076059       adf.R=1.350
     31      H     4.73193243     1.68346986    -0.29290771       adf.R=1.350
     32      H     5.56703945    -1.14377226     0.49229700       adf.R=1.350
     33      H     5.43417119     0.18597519     1.64687725       adf.R=1.350
     34      H     7.93655491    -0.65541867     1.92547040       adf.R=1.350
     35      H     7.28427114     1.76241255     1.78482106       adf.R=1.350
     36      H     6.68730773     2.38439521     0.23070449       adf.R=1.350
     37      H     8.99098802    -0.36577933     0.52629118       adf.R=1.350
 
Total System Charge             0.00000
Bonding info available!
 
 *** GOStep6 ***

 SOLVATION
-------------------------------------------

  The Delley construction of COSMO surface surface is calculated

       Division Level for Surface Triangles (NDIV)                  3
       Final Division Level for Triangles (NFDIV)                   1
       Radius of the Solvent (RSOL)                           3.17000 angstr
  Dielectric Constant (EPSL)                                  4.80000

       COSMO equation is solved iteratively-               conjugate-gradient

       Maximun of Iterations for Charges (NCIX)                  1000
       Criterion for Charge convergence (CCNV)                1.0E-08

  COSMO charges included variationally in SCF

       COSMO included at every SCF cycle

  Geometry-dependent empirical factor                         0.00000

  C-Matrix calculated in cspmtx

  In cspmtx, C-Matrix calculated using fitted potential

-------------------------------------------



 -------------------------------------------
  COSMO surface
  Area             =          972.702
  Volume           =         2033.470
  Number of Points =         2292
 -------------------------------------------



 ======================
 RI Hartree-Fock Scheme
 ======================
  
 Fit Set Quality     : GOOD
 Integration Quality : GOOD
 Threshold Quality   : GOOD
 Response Quality    : DEFAULT
 Is Range Separated  :  F
 
 RIHartreeFock Dependency: number of modified vectors:          25
 cosmo_calcen: 0.5 (esolb+esolc) (Hartrees) =   -0.010649

 Solvation energy (screening term,uncorrected) =     -6.682655 kcal/mol

 Solvation energy (dispersion and cavitation terms) =      1.458551 kcal/mol
 Solvation Energy Contributions (Hartrees)
          esola   esolb+esolc
     0.01064949   -0.02129897
 esol last cycle   -0.01064949
  
 Hartree-Fock exchange energy:   -113.712261067276     
 cosmo_calcen: 0.5 (esolb+esolc) (Hartrees) =   -0.010649

 Solvation energy (screening term,uncorrected) =     -6.682655 kcal/mol

 Solvation energy (dispersion and cavitation terms) =      1.458551 kcal/mol
 Solvation Energy Contributions (Hartrees)
          esola   esolb+esolc
     0.01064949   -0.02129898
 esol last cycle   -0.01064949
  pauli hf:                              3.713658488475883        101.0538          2330.36          9750.21
  elstat hf:                            -3.746968981246340       -101.9602         -2351.26         -9837.67

 Energy gradients wrt nuclear displacements
 ==========================================

     Atom      Cartesian (a.u./angstrom)
                 X         Y         Z
 ----------------------------------------
     1 O     0.000041 -0.000010  0.000060
     2 P    -0.000117 -0.000085  0.000022
     3 O    -0.000067  0.000013  0.000088
     4 O     0.000058  0.000068 -0.000078
     5 C     0.000078  0.000116 -0.000077
     6 C    -0.000008 -0.000112  0.000024
     7 C     0.000006 -0.000025  0.000007
     8 C    -0.000028 -0.000018 -0.000008
     9 C    -0.000001  0.000019  0.000032
    10 C     0.000027  0.000013  0.000015
    11 H     0.000018 -0.000015 -0.000016
    12 H    -0.000005  0.000016 -0.000007
    13 H    -0.000010 -0.000014  0.000005
    14 H    -0.000002 -0.000004  0.000028
    15 H     0.000004  0.000003  0.000002
    16 H    -0.000000 -0.000028  0.000007
    17 H     0.000024 -0.000003  0.000011
    18 H     0.000000 -0.000012  0.000029
    19 H    -0.000008  0.000011  0.000018
    20 H     0.000012 -0.000008  0.000011
    21 H     0.000012  0.000020  0.000007
    22 H    -0.000008  0.000003 -0.000008
    23 C    -0.000002  0.000024 -0.000044
    24 C     0.000012 -0.000007  0.000029
    25 N     0.000014  0.000017  0.000002
    26 C    -0.000005  0.000012  0.000007
    27 H    -0.000004  0.000026 -0.000010
    28 H    -0.000029 -0.000020 -0.000017
    29 C    -0.000003 -0.000011 -0.000004
    30 H    -0.000013 -0.000009  0.000021
    31 H    -0.000007 -0.000017 -0.000013
    32 H     0.000022  0.000021 -0.000004
    33 H     0.000008  0.000005 -0.000037
    34 H     0.000001  0.000014 -0.000037
    35 H     0.000005 -0.000003 -0.000039
    36 H    -0.000002 -0.000012 -0.000009
    37 H    -0.000023  0.000011 -0.000018
 ----------------------------------------
 Mulliken charges used for AMS results%charges...

 dE(predicted):    -0.46818E-06, dE(actual):    -0.15259E-05, Trust radius:    0.200000, all in a.u.
 
----------------------------------------------------------------------
Geometry Convergence after Step   6       (Hartree/Angstrom,Angstrom)
----------------------------------------------------------------------
current energy                               -9.24580161 Hartree
energy change                      -0.00000153     0.00037000    T
constrained gradient max            0.00011829     0.00100000    T
constrained gradient rms            0.00003180     0.00066667    T
gradient max                        0.00011829
gradient rms                        0.00003180
cart. step max                      0.00275063     0.00100000    F
cart. step rms                      0.00107526     0.00066667    F
 
 
--------
Geometry
--------
Formula: C10H22NO3P
Atoms
  Index Symbol   x (angstrom)   y (angstrom)   z (angstrom)
      1      O     3.34119636     0.24566692     0.16464526       adf.R=1.517
      2      P     2.22218721    -0.18870600    -0.95084770       adf.R=1.850
      3      O     1.16463278     1.06369103    -1.01225727       adf.R=1.517
      4      O     1.27280285    -1.07923521     0.04981605       adf.R=1.517
      5      C     0.16176861     1.01183830     0.04183296       adf.R=1.700
      6      C    -0.05412466    -0.51648652     0.23184267       adf.R=1.700
      7      C     0.71436379     1.70264346     1.27959192       adf.R=1.700
      8      C    -1.06106763     1.74860043    -0.46515649       adf.R=1.700
      9      C    -0.95734670    -1.12712644    -0.82898827       adf.R=1.700
     10      C    -0.52916904    -0.90360615     1.61727989       adf.R=1.700
     11      H    -0.05657679     1.79036581     2.04713414       adf.R=1.350
     12      H     1.57010916     1.17003758     1.69225412       adf.R=1.350
     13      H     1.03661236     2.70827515     1.00477946       adf.R=1.350
     14      H    -1.38129216     1.37524540    -1.43679320       adf.R=1.350
     15      H    -1.88665944     1.64204814     0.24214976       adf.R=1.350
     16      H    -0.83444278     2.81172457    -0.56032737       adf.R=1.350
     17      H    -1.99637012    -0.82848388    -0.68258042       adf.R=1.350
     18      H    -0.64806027    -0.83394821    -1.83381730       adf.R=1.350
     19      H    -0.90027022    -2.21401805    -0.75490601       adf.R=1.350
     20      H    -1.49286619    -0.43536696     1.83004210       adf.R=1.350
     21      H    -0.66055812    -1.98538409     1.67139444       adf.R=1.350
     22      H     0.18396699    -0.60284921     2.38326659       adf.R=1.350
     23      C     4.64583821     0.59645550    -0.30755422       adf.R=1.700
     24      C     5.67000378    -0.06042387     0.59708941       adf.R=1.700
     25      N     7.03250016     0.30705148     0.25007186       adf.R=1.608
     26      C     7.35698513     1.65407494     0.68714877       adf.R=1.700
     27      H     7.76669925    -1.64328198     0.45542995       adf.R=1.350
     28      H     8.37637688     1.90064868     0.38517781       adf.R=1.350
     29      C     7.97552993    -0.63705129     0.82260280       adf.R=1.700
     30      H     4.78610301     0.25973199    -1.34014284       adf.R=1.350
     31      H     4.73275579     1.68496530    -0.29179920       adf.R=1.350
     32      H     5.56618876    -1.14302358     0.49250649       adf.R=1.350
     33      H     5.43515871     0.18681806     1.64720834       adf.R=1.350
     34      H     7.93664381    -0.65580734     1.92533087       adf.R=1.350
     35      H     7.28628823     1.76265735     1.78326279       adf.R=1.350
     36      H     6.68970182     2.38408989     0.22877827       adf.R=1.350
     37      H     8.99097555    -0.36788779     0.52571594       adf.R=1.350
 
Total System Charge             0.00000
Bonding info available!
 
 *** GOStep7 ***

 SOLVATION
-------------------------------------------

  The Delley construction of COSMO surface surface is calculated

       Division Level for Surface Triangles (NDIV)                  3
       Final Division Level for Triangles (NFDIV)                   1
       Radius of the Solvent (RSOL)                           3.17000 angstr
  Dielectric Constant (EPSL)                                  4.80000

       COSMO equation is solved iteratively-               conjugate-gradient

       Maximun of Iterations for Charges (NCIX)                  1000
       Criterion for Charge convergence (CCNV)                1.0E-08

  COSMO charges included variationally in SCF

       COSMO included at every SCF cycle

  Geometry-dependent empirical factor                         0.00000

  C-Matrix calculated in cspmtx

  In cspmtx, C-Matrix calculated using fitted potential

-------------------------------------------



 -------------------------------------------
  COSMO surface
  Area             =          972.784
  Volume           =         2033.566
  Number of Points =         2293
 -------------------------------------------



 ======================
 RI Hartree-Fock Scheme
 ======================
  
 Fit Set Quality     : GOOD
 Integration Quality : GOOD
 Threshold Quality   : GOOD
 Response Quality    : DEFAULT
 Is Range Separated  :  F
 
 RIHartreeFock Dependency: number of modified vectors:          25
 cosmo_calcen: 0.5 (esolb+esolc) (Hartrees) =   -0.010652

 Solvation energy (screening term,uncorrected) =     -6.684429 kcal/mol

 Solvation energy (dispersion and cavitation terms) =      1.458674 kcal/mol
 Solvation Energy Contributions (Hartrees)
          esola   esolb+esolc
     0.01065232   -0.02130463
 esol last cycle   -0.01065232
  
 Hartree-Fock exchange energy:   -113.712051856132     
 cosmo_calcen: 0.5 (esolb+esolc) (Hartrees) =   -0.010652

 Solvation energy (screening term,uncorrected) =     -6.684432 kcal/mol

 Solvation energy (dispersion and cavitation terms) =      1.458674 kcal/mol
 Solvation Energy Contributions (Hartrees)
          esola   esolb+esolc
     0.01065232   -0.02130464
 esol last cycle   -0.01065232
  pauli hf:                              3.713589051508261        101.0519          2330.31          9750.03
  elstat hf:                            -3.746842766523692       -101.9568         -2351.18         -9837.33

 Energy gradients wrt nuclear displacements
 ==========================================

     Atom      Cartesian (a.u./angstrom)
                 X         Y         Z
 ----------------------------------------
     1 O     0.000009 -0.000032  0.000106
     2 P    -0.000077 -0.000046 -0.000068
     3 O    -0.000023 -0.000028  0.000044
     4 O     0.000062  0.000067 -0.000028
     5 C     0.000033 -0.000017  0.000017
     6 C    -0.000064  0.000024 -0.000002
     7 C     0.000001  0.000003 -0.000020
     8 C    -0.000012  0.000004  0.000006
     9 C     0.000022 -0.000015  0.000035
    10 C     0.000010 -0.000007  0.000005
    11 H     0.000014 -0.000001 -0.000006
    12 H    -0.000005  0.000009 -0.000007
    13 H    -0.000007 -0.000006  0.000010
    14 H    -0.000001  0.000001  0.000025
    15 H     0.000004  0.000002  0.000005
    16 H    -0.000003 -0.000018  0.000006
    17 H     0.000015 -0.000009  0.000014
    18 H    -0.000009 -0.000010  0.000022
    19 H    -0.000010  0.000005  0.000012
    20 H     0.000010 -0.000008  0.000013
    21 H     0.000009  0.000013  0.000011
    22 H    -0.000006 -0.000002 -0.000003
    23 C     0.000071  0.000040 -0.000047
    24 C    -0.000066 -0.000009  0.000014
    25 N     0.000007  0.000016 -0.000016
    26 C     0.000018  0.000043  0.000008
    27 H     0.000000  0.000021 -0.000011
    28 H    -0.000017 -0.000004 -0.000019
    29 C     0.000029 -0.000026  0.000009
    30 H    -0.000022 -0.000014  0.000022
    31 H    -0.000002 -0.000015 -0.000014
    32 H     0.000016  0.000016 -0.000008
    33 H     0.000007  0.000001 -0.000036
    34 H     0.000001  0.000012 -0.000036
    35 H     0.000003 -0.000004 -0.000039
    36 H     0.000001 -0.000013 -0.000010
    37 H    -0.000015  0.000006 -0.000015
 ----------------------------------------
 Mulliken charges used for AMS results%charges...

 dE(predicted):    -0.12151E-06, dE(actual):    -0.12417E-05, Trust radius:    0.200000, all in a.u.
 
----------------------------------------------------------------------
Geometry Convergence after Step   7       (Hartree/Angstrom,Angstrom)
----------------------------------------------------------------------
current energy                               -9.24580285 Hartree
energy change                      -0.00000124     0.00037000    T
constrained gradient max            0.00010789     0.00100000    T
constrained gradient rms            0.00002540     0.00066667    T
gradient max                        0.00010789
gradient rms                        0.00002540
cart. step max                      0.00221591     0.00100000    F
cart. step rms                      0.00087703     0.00066667    F
 
 
--------
Geometry
--------
Formula: C10H22NO3P
Atoms
  Index Symbol   x (angstrom)   y (angstrom)   z (angstrom)
      1      O     3.34128328     0.24784193     0.16506775       adf.R=1.517
      2      P     2.22248235    -0.18735271    -0.95023367       adf.R=1.850
      3      O     1.16424831     1.06443171    -1.01186375       adf.R=1.517
      4      O     1.27353208    -1.07832670     0.05057494       adf.R=1.517
      5      C     0.16116452     1.01196000     0.04207787       adf.R=1.700
      6      C    -0.05385038    -0.51642615     0.23195585       adf.R=1.700
      7      C     0.71315393     1.70295231     1.28001983       adf.R=1.700
      8      C    -1.06200662     1.74800610    -0.46514074       adf.R=1.700
      9      C    -0.95627825    -1.12751127    -0.82933875       adf.R=1.700
     10      C    -0.52931530    -0.90381523     1.61718912       adf.R=1.700
     11      H    -0.05806744     1.79050020     2.04731898       adf.R=1.350
     12      H     1.56891055     1.17058243     1.69299453       adf.R=1.350
     13      H     1.03522870     2.70866098     1.00526659       adf.R=1.350
     14      H    -1.38173143     1.37456818    -1.43692465       adf.R=1.350
     15      H    -1.88771561     1.64077196     0.24193460       adf.R=1.350
     16      H    -0.83609162     2.81130933    -0.56009438       adf.R=1.350
     17      H    -1.99559594    -0.82971831    -0.68317994       adf.R=1.350
     18      H    -0.64693408    -0.83385953    -1.83402038       adf.R=1.350
     19      H    -0.89835710    -2.21437804    -0.75547863       adf.R=1.350
     20      H    -1.49330879    -0.43599396     1.82954889       adf.R=1.350
     21      H    -0.66025503    -1.98565954     1.67123275       adf.R=1.350
     22      H     0.18336775    -0.60275855     2.38349872       adf.R=1.350
     23      C     4.64610034     0.59801612    -0.30711094       adf.R=1.700
     24      C     5.66997371    -0.05971062     0.59725240       adf.R=1.700
     25      N     7.03272666     0.30641412     0.24980376       adf.R=1.608
     26      C     7.35845406     1.65341696     0.68603957       adf.R=1.700
     27      H     7.76525662    -1.64446557     0.45626315       adf.R=1.350
     28      H     8.37811058     1.89884874     0.38398718       adf.R=1.350
     29      C     7.97500152    -0.63817756     0.82278892       adf.R=1.700
     30      H     4.78611363     0.26152625    -1.33982486       adf.R=1.350
     31      H     4.73358820     1.68647994    -0.29105377       adf.R=1.350
     32      H     5.56510207    -1.14222959     0.49277086       adf.R=1.350
     33      H     5.43567820     0.18779919     1.64745077       adf.R=1.350
     34      H     7.93624419    -0.65625021     1.92554637       adf.R=1.350
     35      H     7.28779425     1.76280044     1.78209084       adf.R=1.350
     36      H     6.69191342     2.38379375     0.22714814       adf.R=1.350
     37      H     8.99066366    -0.37010371     0.52562441       adf.R=1.350
 
Total System Charge             0.00000
Bonding info available!
 
 *** GOStep8 ***

 SOLVATION
-------------------------------------------

  The Delley construction of COSMO surface surface is calculated

       Division Level for Surface Triangles (NDIV)                  3
       Final Division Level for Triangles (NFDIV)                   1
       Radius of the Solvent (RSOL)                           3.17000 angstr
  Dielectric Constant (EPSL)                                  4.80000

       COSMO equation is solved iteratively-               conjugate-gradient

       Maximun of Iterations for Charges (NCIX)                  1000
       Criterion for Charge convergence (CCNV)                1.0E-08

  COSMO charges included variationally in SCF

       COSMO included at every SCF cycle

  Geometry-dependent empirical factor                         0.00000

  C-Matrix calculated in cspmtx

  In cspmtx, C-Matrix calculated using fitted potential

-------------------------------------------



 -------------------------------------------
  COSMO surface
  Area             =          972.969
  Volume           =         2033.828
  Number of Points =         2294
 -------------------------------------------



 ======================
 RI Hartree-Fock Scheme
 ======================
  
 Fit Set Quality     : GOOD
 Integration Quality : GOOD
 Threshold Quality   : GOOD
 Response Quality    : DEFAULT
 Is Range Separated  :  F
 
 RIHartreeFock Dependency: number of modified vectors:          25
 cosmo_calcen: 0.5 (esolb+esolc) (Hartrees) =   -0.010653

 Solvation energy (screening term,uncorrected) =     -6.684649 kcal/mol

 Solvation energy (dispersion and cavitation terms) =      1.458952 kcal/mol
 Solvation Energy Contributions (Hartrees)
          esola   esolb+esolc
     0.01065267   -0.02130533
 esol last cycle   -0.01065267
  
 Hartree-Fock exchange energy:   -113.711913304935     
 cosmo_calcen: 0.5 (esolb+esolc) (Hartrees) =   -0.010653

 Solvation energy (screening term,uncorrected) =     -6.684652 kcal/mol

 Solvation energy (dispersion and cavitation terms) =      1.458952 kcal/mol
 Solvation Energy Contributions (Hartrees)
          esola   esolb+esolc
     0.01065267   -0.02130534
 esol last cycle   -0.01065267
  pauli hf:                              3.713565009581067        101.0512          2330.30          9749.96
  elstat hf:                            -3.746788961452438       -101.9553         -2351.15         -9837.19

 Energy gradients wrt nuclear displacements
 ==========================================

     Atom      Cartesian (a.u./angstrom)
                 X         Y         Z
 ----------------------------------------
     1 O    -0.000004 -0.000043  0.000068
     2 P    -0.000057  0.000009 -0.000038
     3 O     0.000015 -0.000031 -0.000016
     4 O     0.000065  0.000017  0.000011
     5 C    -0.000002 -0.000055  0.000033
     6 C    -0.000044  0.000059 -0.000003
     7 C     0.000001 -0.000012 -0.000004
     8 C    -0.000011 -0.000005  0.000006
     9 C     0.000013  0.000006  0.000015
    10 C     0.000006  0.000001  0.000009
    11 H     0.000004  0.000005  0.000009
    12 H     0.000001  0.000001  0.000003
    13 H    -0.000004 -0.000002  0.000003
    14 H    -0.000008 -0.000006  0.000010
    15 H     0.000001 -0.000003  0.000010
    16 H    -0.000004 -0.000007  0.000004
    17 H    -0.000005 -0.000006  0.000013
    18 H    -0.000013 -0.000006  0.000009
    19 H    -0.000003  0.000001  0.000014
    20 H     0.000006 -0.000002  0.000013
    21 H     0.000008  0.000003  0.000013
    22 H     0.000004  0.000003  0.000011
    23 C     0.000057  0.000031 -0.000024
    24 C    -0.000059  0.000003  0.000000
    25 N     0.000004  0.000011 -0.000026
    26 C     0.000010  0.000028 -0.000002
    27 H     0.000003  0.000007 -0.000011
    28 H    -0.000003  0.000006 -0.000020
    29 C     0.000019 -0.000015  0.000000
    30 H    -0.000018 -0.000013  0.000006
    31 H     0.000005 -0.000003 -0.000017
    32 H     0.000010  0.000003 -0.000006
    33 H     0.000002  0.000002 -0.000021
    34 H     0.000005  0.000007 -0.000022
    35 H     0.000003  0.000003 -0.000024
    36 H    -0.000002 -0.000003 -0.000012
    37 H    -0.000003  0.000004 -0.000015
 ----------------------------------------
 Mulliken charges used for AMS results%charges...
 
---------------------------------------------------------
Geometry Convergence after Step   8       ** CONVERGED **
---------------------------------------------------------
current energy                               -9.24580282 Hartree
energy change                       0.00000003     0.00037000    T
constrained gradient max            0.00006981     0.00100000    T
constrained gradient rms            0.00001877     0.00066667    T
gradient max                        0.00006981
gradient rms                        0.00001877
cart. step max                      0.00266690     0.00100000    F
cart. step rms                      0.00096965     0.00066667    F
 
Geometry optimization converged

Optimized geometry:
 
--------
Geometry
--------
Formula: C10H22NO3P
Atoms
  Index Symbol   x (angstrom)   y (angstrom)   z (angstrom)
      1      O     3.34128328     0.24784193     0.16506775       adf.R=1.517
      2      P     2.22248235    -0.18735271    -0.95023367       adf.R=1.850
      3      O     1.16424831     1.06443171    -1.01186375       adf.R=1.517
      4      O     1.27353208    -1.07832670     0.05057494       adf.R=1.517
      5      C     0.16116452     1.01196000     0.04207787       adf.R=1.700
      6      C    -0.05385038    -0.51642615     0.23195585       adf.R=1.700
      7      C     0.71315393     1.70295231     1.28001983       adf.R=1.700
      8      C    -1.06200662     1.74800610    -0.46514074       adf.R=1.700
      9      C    -0.95627825    -1.12751127    -0.82933875       adf.R=1.700
     10      C    -0.52931530    -0.90381523     1.61718912       adf.R=1.700
     11      H    -0.05806744     1.79050020     2.04731898       adf.R=1.350
     12      H     1.56891055     1.17058243     1.69299453       adf.R=1.350
     13      H     1.03522870     2.70866098     1.00526659       adf.R=1.350
     14      H    -1.38173143     1.37456818    -1.43692465       adf.R=1.350
     15      H    -1.88771561     1.64077196     0.24193460       adf.R=1.350
     16      H    -0.83609162     2.81130933    -0.56009438       adf.R=1.350
     17      H    -1.99559594    -0.82971831    -0.68317994       adf.R=1.350
     18      H    -0.64693408    -0.83385953    -1.83402038       adf.R=1.350
     19      H    -0.89835710    -2.21437804    -0.75547863       adf.R=1.350
     20      H    -1.49330879    -0.43599396     1.82954889       adf.R=1.350
     21      H    -0.66025503    -1.98565954     1.67123275       adf.R=1.350
     22      H     0.18336775    -0.60275855     2.38349872       adf.R=1.350
     23      C     4.64610034     0.59801612    -0.30711094       adf.R=1.700
     24      C     5.66997371    -0.05971062     0.59725240       adf.R=1.700
     25      N     7.03272666     0.30641412     0.24980376       adf.R=1.608
     26      C     7.35845406     1.65341696     0.68603957       adf.R=1.700
     27      H     7.76525662    -1.64446557     0.45626315       adf.R=1.350
     28      H     8.37811058     1.89884874     0.38398718       adf.R=1.350
     29      C     7.97500152    -0.63817756     0.82278892       adf.R=1.700
     30      H     4.78611363     0.26152625    -1.33982486       adf.R=1.350
     31      H     4.73358820     1.68647994    -0.29105377       adf.R=1.350
     32      H     5.56510207    -1.14222959     0.49277086       adf.R=1.350
     33      H     5.43567820     0.18779919     1.64745077       adf.R=1.350
     34      H     7.93624419    -0.65625021     1.92554637       adf.R=1.350
     35      H     7.28779425     1.76280044     1.78209084       adf.R=1.350
     36      H     6.69191342     2.38379375     0.22714814       adf.R=1.350
     37      H     8.99066366    -0.37010371     0.52562441       adf.R=1.350
 
Total System Charge             0.00000
Bonding info available!
 
Performing a single point calculation on the final geometry ...

 *** adf ***



 ===========================
 A T T A C H E D   F I L E S
 ===========================
  
 Restart/tmp/amstmp_ams_kid0.420847066/GOStep8.rkf*** GOStep8 ***



 ===============================
 M O D E L   P A R A M E T E R S
 ===============================
  
 DENSITY FUNCTIONAL POTENTIAL (scf)
    Hybrid:                            PBE0                                    == Not Default ==

 SPIN  (restricted / unrestr.)
    Molecule:                          Restricted                               
    Fragments:                         Restricted                               

 OTHER ASPECTS
    Relativistic Corrections:          ---                                     == Not Default ==

    Nuclear Charge Density Model:      Point Charge Nuclei                      
    Core Treatment:                    Frozen Orbital(s)                        

    Hyperfine or Zeeman Interaction:   ---                                      

 SOLVATION
-------------------------------------------

  The Delley construction of COSMO surface surface is calculated

       Division Level for Surface Triangles (NDIV)                  3
       Final Division Level for Triangles (NFDIV)                   1
       Radius of the Solvent (RSOL)                           3.17000 angstr
  Dielectric Constant (EPSL)                                  4.80000

       COSMO equation is solved iteratively-               conjugate-gradient

       Maximun of Iterations for Charges (NCIX)                  1000
       Criterion for Charge convergence (CCNV)                1.0E-08

  COSMO charges included variationally in SCF

       COSMO included at every SCF cycle

  Geometry-dependent empirical factor                         0.00000

  C-Matrix calculated in cspmtx

  In cspmtx, C-Matrix calculated using fitted potential

-------------------------------------------




 ===============
 G E O M E T R Y  ***  3D  Molecule  ***
 ===============
  

 ATOMS
 =====                            X Y Z                    CHARGE                     RADIUS
                                (Angstrom)             Nucl     +Core       At.Mass (Angstrom)
                       --------------------------    ----------------       ------- ----------
    1  O               3.3413    0.2478    0.1651      8.00      8.00       15.9949    1.5170
    2  P               2.2225   -0.1874   -0.9502     15.00     15.00       30.9738    1.8500
    3  O               1.1642    1.0644   -1.0119      8.00      8.00       15.9949    1.5170
    4  O               1.2735   -1.0783    0.0506      8.00      8.00       15.9949    1.5170
    5  C               0.1612    1.0120    0.0421      6.00      6.00       12.0000    1.7000
    6  C              -0.0539   -0.5164    0.2320      6.00      6.00       12.0000    1.7000
    7  C               0.7132    1.7030    1.2800      6.00      6.00       12.0000    1.7000
    8  C              -1.0620    1.7480   -0.4651      6.00      6.00       12.0000    1.7000
    9  C              -0.9563   -1.1275   -0.8293      6.00      6.00       12.0000    1.7000
   10  C              -0.5293   -0.9038    1.6172      6.00      6.00       12.0000    1.7000
   11  H              -0.0581    1.7905    2.0473      1.00      1.00        1.0078    1.3500
   12  H               1.5689    1.1706    1.6930      1.00      1.00        1.0078    1.3500
   13  H               1.0352    2.7087    1.0053      1.00      1.00        1.0078    1.3500
   14  H              -1.3817    1.3746   -1.4369      1.00      1.00        1.0078    1.3500
   15  H              -1.8877    1.6408    0.2419      1.00      1.00        1.0078    1.3500
   16  H              -0.8361    2.8113   -0.5601      1.00      1.00        1.0078    1.3500
   17  H              -1.9956   -0.8297   -0.6832      1.00      1.00        1.0078    1.3500
   18  H              -0.6469   -0.8339   -1.8340      1.00      1.00        1.0078    1.3500
   19  H              -0.8984   -2.2144   -0.7555      1.00      1.00        1.0078    1.3500
   20  H              -1.4933   -0.4360    1.8295      1.00      1.00        1.0078    1.3500
   21  H              -0.6603   -1.9857    1.6712      1.00      1.00        1.0078    1.3500
   22  H               0.1834   -0.6028    2.3835      1.00      1.00        1.0078    1.3500
   23  C               4.6461    0.5980   -0.3071      6.00      6.00       12.0000    1.7000
   24  C               5.6700   -0.0597    0.5973      6.00      6.00       12.0000    1.7000
   25  N               7.0327    0.3064    0.2498      7.00      7.00       14.0031    1.6080
   26  C               7.3585    1.6534    0.6860      6.00      6.00       12.0000    1.7000
   27  H               7.7653   -1.6445    0.4563      1.00      1.00        1.0078    1.3500
   28  H               8.3781    1.8988    0.3840      1.00      1.00        1.0078    1.3500
   29  C               7.9750   -0.6382    0.8228      6.00      6.00       12.0000    1.7000
   30  H               4.7861    0.2615   -1.3398      1.00      1.00        1.0078    1.3500
   31  H               4.7336    1.6865   -0.2911      1.00      1.00        1.0078    1.3500
   32  H               5.5651   -1.1422    0.4928      1.00      1.00        1.0078    1.3500
   33  H               5.4357    0.1878    1.6475      1.00      1.00        1.0078    1.3500
   34  H               7.9362   -0.6563    1.9255      1.00      1.00        1.0078    1.3500
   35  H               7.2878    1.7628    1.7821      1.00      1.00        1.0078    1.3500
   36  H               6.6919    2.3838    0.2271      1.00      1.00        1.0078    1.3500
   37  H               8.9907   -0.3701    0.5256      1.00      1.00        1.0078    1.3500


 FRAGMENTS
 =========                                     Atoms in this Fragment     Cart. coord.s (Angstrom)
                                               -------------------------------------------------------
    1  O                                                 1  O            3.3413    0.2478    0.1651
[...]
                                   -1.21%     3 P:y             2.910  0.00     4 P
                                    1.21%     1 S              -6.581  1.00    22 H
                                    1.20%     2 S               3.073  0.00    21 H
                                    1.18%     1 P:x            -5.051  0.67     6 C
                                    1.15%     1 P:x            12.104  0.00    25 H
                                    1.09%     2 S               3.073  0.00    20 H
                                    1.08%     1 P:x            12.104  0.00    20 H
                                    1.05%     1 P:y            -5.051  0.67    14 C
                                   -1.03%     2 P:y            10.809  0.00     3 O
                                   -1.03%     2 P:x             5.518  0.00     7 C
                                    1.02%     2 P:z             5.518  0.00    13 C
       5.438  0.00    99 A        -15.84%     2 P:z             5.518  0.00     6 C
                                   10.13%     1 P:y            -5.051  0.67     7 C
                                   10.11%     1 S              -6.581  1.00    17 H
                                    9.12%     1 P:z            -5.051  0.67     6 C
                                    8.38%     1 S              -6.581  1.00    35 H
                                   -8.11%     2 P:x             5.518  0.00     5 C
                                    7.10%     1 P:x            -5.051  0.67     9 C
                                    6.75%     1 P:x            -5.051  0.67     5 C
                                    6.38%     1 P:z            -5.051  0.67    10 C
                                    6.15%     1 P:y            -5.051  0.67     8 C
                                   -5.62%     2 S               3.073  0.00    35 H
                                   -5.41%     2 S               3.073  0.00    17 H
                                    4.89%     1 S              -6.581  1.00    30 H
                                    4.28%     1 S              -6.581  1.00    20 H
                                    4.19%     2 P:y             5.518  0.00    14 C
                                    4.01%     1 P:x            -5.051  0.67    13 C
                                    4.01%     2 S               3.073  0.00    30 H
                                    3.49%     1 P:x            -5.051  0.67     8 C
                                    3.49%     1 S              -6.581  1.00    21 H
                                   -3.24%     2 P:x             8.876  0.00    37 N
                                    3.06%     1 P:y            -5.051  0.67     9 C
                                    2.87%     1 S              -6.581  1.00    32 H
                                    2.81%     1 P:y            -5.051  0.67    14 C
                                    2.77%     2 P:y             5.518  0.00     9 C
                                    2.76%     1 S              -6.581  1.00    23 H
                                   -2.68%     2 P:z             5.518  0.00     5 C
                                    2.66%     1 P:y            -5.051  0.67    10 C
                                    2.62%     2 P:y             5.518  0.00    10 C
                                   -2.41%     2 P:y             5.518  0.00    11 C
                                    2.30%     2 P:x             5.518  0.00    13 C
                                    2.27%     1 S              -6.581  1.00    34 H
                                    2.15%     1 S              -6.581  1.00    24 H
                                    2.07%     1 P:y            -5.051  0.67    12 C
                                    2.02%     3 P:x             2.910  0.00     4 P
                                    1.88%     1 P:z            -5.051  0.67    13 C
                                   -1.84%     2 S               3.073  0.00    20 H
                                   -1.80%     2 P:z             5.518  0.00    10 C
                                   -1.72%     2 S               3.073  0.00    28 H
                                    1.67%     1 P:x            -7.358  1.00    37 N
                                   -1.64%     2 S               3.073  0.00    34 H
                                    1.58%     1 S              -6.581  1.00    25 H
                                   -1.51%     2 S               3.073  0.00    32 H
                                    1.50%     3 P:y             2.910  0.00     4 P
                                    1.44%     1 S              -6.581  1.00    31 H
                                    1.40%     1 S              -6.581  1.00    19 H
                                    1.40%     1 P:z            -5.051  0.67     7 C
                                    1.37%     1 S              -6.581  1.00    28 H
                                    1.26%     2 P:y             5.518  0.00     8 C
                                    1.17%     1 P:y            -5.051  0.67    13 C
                                    1.17%     2 P:x             5.518  0.00     6 C
                                   -1.15%     2 P:x             5.518  0.00     8 C
                                    1.10%     1 P:x            -5.051  0.67    10 C
                                   -1.06%     2 S               3.073  0.00    25 H
                                    1.02%     1 P:z            -5.051  0.67     5 C
                                   -1.01%     2 S               3.073  0.00    23 H
       5.489  0.00   100 A         13.62%     1 P:x            -5.051  0.67    10 C
                                   -8.56%     2 P:z             5.518  0.00     6 C
                                    8.28%     1 P:z            -5.051  0.67     6 C
                                    7.20%     1 P:z            -5.051  0.67     8 C
                                    6.40%     1 S              -6.581  1.00    26 H
                                    5.81%     1 S              -6.581  1.00    25 H
                                    5.08%     1 S              -6.581  1.00    23 H
                                    4.97%     1 P:y            -5.051  0.67     5 C
                                    4.95%     2 P:x             5.518  0.00     7 C
                                   -4.87%     2 S               3.073  0.00    24 H
                                    4.73%     2 S               3.073  0.00    16 H
                                   -4.73%     2 S               3.073  0.00    25 H
                                    4.46%     2 P:x             5.518  0.00    10 C
                                    4.22%     1 S              -6.581  1.00    18 H
                                    4.20%     1 P:z            -5.051  0.67     9 C
                                    4.03%     2 S               3.073  0.00    22 H
                                   -3.81%     2 S               3.073  0.00    26 H
                                    3.77%     1 P:y            -5.051  0.67     9 C
                                    3.69%     2 P:z             5.518  0.00     8 C
                                    3.45%     1 S              -6.581  1.00    24 H
                                    3.38%     1 P:y            -5.051  0.67    10 C
                                    3.21%     2 P:z             5.518  0.00     9 C
                                   -3.15%     2 P:y             5.518  0.00     9 C
                                    3.06%     2 P:x             5.518  0.00     8 C
                                    3.05%     1 P:y            -5.051  0.67     8 C
                                    2.67%     1 S              -6.581  1.00    20 H
                                   -2.59%     2 P:x             5.518  0.00     6 C
                                    2.27%     1 P:x            -5.051  0.67     7 C
                                   -2.16%     2 S               3.073  0.00    23 H
                                    2.13%     1 P:x            -7.358  1.00    37 N
                                    2.11%     2 S               3.073  0.00    19 H
                                    2.10%     1 S              -6.581  1.00    32 H
                                   -2.02%     2 P:y             5.518  0.00     5 C
                                   -1.99%     2 S               3.073  0.00    17 H
                                   -1.92%     2 S               3.073  0.00    18 H
                                    1.85%     2 P:z             5.518  0.00    13 C
                                   -1.75%     1 P:z            -5.051  0.67     5 C
                                    1.64%     1 P:z            12.104  0.00    20 H
                                    1.54%     1 P:z            -5.051  0.67    13 C
                                    1.38%     1 P:x            -5.051  0.67    11 C
                                   -1.33%     3 S              11.281  0.00     7 C
                                    1.30%     1 S              -6.581  1.00    16 H
                                    1.27%     2 S             -15.858  2.00     6 C
                                    1.23%     1 P:x            -5.051  0.67     5 C
                                   -1.20%     3 P:x             2.910  0.00     4 P
                                   -1.07%     2 P:x            10.809  0.00     1 O
                                    1.07%     1 P:x            -5.051  0.67    12 C
                                    1.02%     2 P:z             5.518  0.00     7 C
       5.542  0.00   101 A         20.00%     1 P:z            -5.051  0.67    14 C
                                  -18.26%     2 P:y             8.876  0.00    37 N
                                   14.68%     1 P:z            -5.051  0.67    13 C
                                   14.55%     1 S              -6.581  1.00    34 H
                                   11.95%     2 P:z             5.518  0.00    14 C
                                   11.79%     1 S              -6.581  1.00    33 H
                                   10.13%     1 P:y            -5.051  0.67    13 C
                                    9.17%     1 P:y            -7.358  1.00    37 N
                                   -7.96%     2 S               3.073  0.00    33 H
                                   -7.67%     2 S               3.073  0.00    34 H
                                    5.01%     2 P:z             5.518  0.00    13 C
                                    3.92%     1 P:x            -5.051  0.67    14 C
                                    3.71%     1 P:y            -5.051  0.67    14 C
                                    3.15%     1 P:x            -5.051  0.67    13 C
                                    2.71%     1 S              -6.581  1.00    28 H
                                    2.52%     1 P:y            -5.051  0.67     8 C
                                    2.34%     2 S               3.073  0.00    36 H
                                   -2.30%     3 S              43.508  0.00    33 H
                                   -2.20%     2 P:x             8.876  0.00    37 N
                                   -2.19%     2 P:x             5.518  0.00    14 C
                                    1.82%     2 P:y             5.518  0.00    12 C
                                   -1.76%     2 P:x             5.518  0.00     5 C
                                    1.67%     2 P:y             5.518  0.00    14 C
                                   -1.65%     3 S              43.508  0.00    34 H
                                    1.62%     1 S              -6.581  1.00    20 H
                                    1.60%     2 P:y             5.518  0.00    13 C
                                    1.42%     1 P:z            -5.051  0.67    12 C
                                    1.19%     2 P:y             5.518  0.00     8 C
                                   -1.12%     2 S               3.073  0.00    28 H
                                   -1.12%     2 P:z             5.518  0.00     5 C
                                    1.11%     1 P:x            -5.051  0.67     5 C
                                    1.08%     2 S               3.073  0.00    31 H
                                    1.05%     1 S              -6.581  1.00    17 H
                                   -1.02%     2 S               3.073  0.00    20 H

 Energy gradients wrt nuclear displacements
 ==========================================

     Atom      Cartesian (a.u./angstrom)
                 X         Y         Z
 ----------------------------------------
     1 O    -0.000004 -0.000043  0.000068
     2 P    -0.000057  0.000009 -0.000038
     3 O     0.000015 -0.000031 -0.000016
     4 O     0.000065  0.000017  0.000011
     5 C    -0.000002 -0.000055  0.000033
     6 C    -0.000044  0.000059 -0.000003
     7 C     0.000001 -0.000012 -0.000004
     8 C    -0.000011 -0.000005  0.000006
     9 C     0.000013  0.000006  0.000015
    10 C     0.000006  0.000001  0.000009
    11 H     0.000004  0.000005  0.000009
    12 H     0.000001  0.000001  0.000003
    13 H    -0.000004 -0.000002  0.000003
    14 H    -0.000008 -0.000006  0.000010
    15 H     0.000001 -0.000003  0.000010
    16 H    -0.000004 -0.000007  0.000004
    17 H    -0.000005 -0.000006  0.000013
    18 H    -0.000013 -0.000006  0.000009
    19 H    -0.000003  0.000001  0.000014
    20 H     0.000006 -0.000002  0.000013
    21 H     0.000008  0.000003  0.000013
    22 H     0.000004  0.000003  0.000011
    23 C     0.000057  0.000031 -0.000024
    24 C    -0.000059  0.000003  0.000000
    25 N     0.000004  0.000011 -0.000026
    26 C     0.000010  0.000028 -0.000002
    27 H     0.000003  0.000007 -0.000011
    28 H    -0.000003  0.000006 -0.000020
    29 C     0.000019 -0.000015  0.000000
    30 H    -0.000018 -0.000013  0.000006
    31 H     0.000005 -0.000003 -0.000017
    32 H     0.000010  0.000003 -0.000006
    33 H     0.000002  0.000002 -0.000021
    34 H     0.000005  0.000007 -0.000022
    35 H     0.000003  0.000003 -0.000024
    36 H    -0.000002 -0.000003 -0.000012
    37 H    -0.000003  0.000004 -0.000015
 ----------------------------------------



 =======================================================================
 Electrostatic potential at the Nuclei due to electrons and other nuclei
 =======================================================================
  
         Atom                  Potential
         ----                  ---------
     1)   O                  22.34310385
     2)   P                  54.11289461
     3)   O                  22.35015431
     4)   O                  22.35266448
     5)   C                  14.69163149
     6)   C                  14.69110690
     7)   C                  14.77788384
     8)   C                  14.76899303
     9)   C                  14.77465149
    10)   C                  14.76972306
    11)   H                   1.10783835
    12)   H                   1.12399392
    13)   H                   1.11730990
    14)   H                   1.11246439
    15)   H                   1.09727442
    16)   H                   1.11086536
    17)   H                   1.10499535
    18)   H                   1.11680732
    19)   H                   1.11591839
    20)   H                   1.09776596
    21)   H                   1.11190507
    22)   H                   1.11420349
    23)   C                  14.71763349
    24)   C                  14.74726021
    25)   N                  18.38343955
    26)   C                  14.75121391
    27)   H                   1.11770344
    28)   H                   1.11504834
    29)   C                  14.75248203
    30)   H                   1.11893899
    31)   H                   1.11676321
    32)   H                   1.12098480
    33)   H                   1.12438315
    34)   H                   1.12020975
    35)   H                   1.11814701
    36)   H                   1.11445240
    37)   H                   1.11693183
 Mulliken charges used for AMS results%charges...


    =====================
     CALCULATION RESULTS
    =====================

Energy (hartree)            -9.24580282

Gradients (hartree/bohr)
  Index   Atom            d/dx            d/dy            d/dz
      1      O   -0.0000020034   -0.0000225709    0.0000360750
      2      P   -0.0000301647    0.0000048925   -0.0000201278
      3      O    0.0000081555   -0.0000162752   -0.0000082426
      4      O    0.0000343322    0.0000087681    0.0000057291
      5      C   -0.0000013078   -0.0000290709    0.0000176220
      6      C   -0.0000233890    0.0000313393   -0.0000014167
      7      C    0.0000002781   -0.0000064481   -0.0000019568
      8      C   -0.0000057682   -0.0000027342    0.0000031854
      9      C    0.0000068027    0.0000033104    0.0000079945
     10      C    0.0000029716    0.0000007200    0.0000048387
     11      H    0.0000021960    0.0000025023    0.0000046100
     12      H    0.0000007440    0.0000006586    0.0000014398
     13      H   -0.0000019290   -0.0000009542    0.0000015336
     14      H   -0.0000043051   -0.0000031669    0.0000050822
     15      H    0.0000003841   -0.0000013476    0.0000051681
     16      H   -0.0000023055   -0.0000038607    0.0000022116
     17      H   -0.0000026464   -0.0000030382    0.0000071432
     18      H   -0.0000070705   -0.0000030713    0.0000047874
     19      H   -0.0000016051    0.0000003213    0.0000075171
     20      H    0.0000030346   -0.0000012116    0.0000069322
     21      H    0.0000040066    0.0000018158    0.0000070627
     22      H    0.0000023452    0.0000015519    0.0000057760
     23      C    0.0000299032    0.0000165986   -0.0000128650
     24      C   -0.0000312303    0.0000017332    0.0000001099
     25      N    0.0000023421    0.0000056668   -0.0000135733
     26      C    0.0000053075    0.0000146510   -0.0000009215
     27      H    0.0000015484    0.0000039615   -0.0000058454
     28      H   -0.0000018068    0.0000029991   -0.0000107958
     29      C    0.0000098837   -0.0000078656    0.0000001255
     30      H   -0.0000093812   -0.0000068889    0.0000030130
     31      H    0.0000027815   -0.0000017792   -0.0000092239
     32      H    0.0000053979    0.0000015680   -0.0000030512
     33      H    0.0000008354    0.0000011223   -0.0000111578
     34      H    0.0000023867    0.0000037769   -0.0000114914
     35      H    0.0000017603    0.0000016155   -0.0000129043
     36      H   -0.0000011121   -0.0000014556   -0.0000064326
     37      H   -0.0000013721    0.0000021659   -0.0000079509


--------------
Atomic charges
--------------
  Index   Atom    Charge
      1      O   -0.6927
      2      P    1.0794
      3      O   -0.7020
      4      O   -0.7072
      5      C    0.2861
      6      C    0.3113
      7      C    0.4728
      8      C    0.4487
      9      C    0.4747
     10      C    0.4518
     11      H   -0.1430
     12      H   -0.1285
     13      H   -0.1681
     14      H   -0.1406
     15      H   -0.1349
     16      H   -0.1594
     17      H   -0.1406
     18      H   -0.1587
     19      H   -0.1631
     20      H   -0.1350
     21      H   -0.1588
     22      H   -0.1418
     23      C    0.6307
     24      C    0.4709
     25      N   -0.4450
     26      C    0.6085
     27      H   -0.1601
     28      H   -0.1556
     29      C    0.6046
     30      H   -0.1604
     31      H   -0.1334
     32      H   -0.1353
     33      H   -0.1523
     34      H   -0.1512
     35      H   -0.1492
     36      H   -0.1569
     37      H   -0.1656


Dipole moment vector    (Debye):    -1.40050005    1.11396333    2.21025171
              magnitude (Debye):     2.84385783


AMS application finished. Exiting.
NORMAL TERMINATION
     Total cpu time:    4416.90
  Total system time:      51.60
 Total elapsed time:    4809.09
