

 Parallel Execution: Process Information
 ==============================================================================
 Rank   Node Name                              NodeID   MyNodeRank  NodeMaster
    0   adf1                                      0          0          0
    1   adf1                                      0          1         -1
    2   adf1                                      0          2         -1
    3   adf1                                      0          3         -1
    4   adf1                                      0          4         -1
    5   adf1                                      0          5         -1
    6   adf1                                      0          6         -1
    7   adf1                                      0          7         -1
    8   adf1                                      0          8         -1
    9   adf1                                      0          9         -1
   10   adf1                                      0         10         -1
   11   adf1                                      0         11         -1
 ==============================================================================


May use up to 22932MB of RAM as shared memory on node 0

 *******************************************************************************
 *                                                                             *
 *  --------------------------------                                           *
 *   Amsterdam Modeling Suite (AMS)              2020.202                      *
 *  --------------------------------                                           *
 *                                               r90167 2020-12-05             *
 *                                                                             *
 *                                                                             *
 *                              =================                              *
 *                              |               |                              *
 *                              |     A M S     |                              *
 *                              |               |                              *
 *                              =================                              *
 *                                                                             *
 *                                                                             *
 *   Online information and documentation:  https://www.scm.com/support/       *
 *   E-mail:  support@scm.com   info@scm.com                                   *
 *                                                                             *
 *   Scientific publications using AMS results must be properly referenced     *
 *   See the User Manuals (or the web site) for recommended citations          *
 *   The terms and conditions of the End User License Agreement apply to       *
 *   the use of AMS, https://www.scm.com/license-terms/                        *
 *                                                                             *
 **********************  x86_64_linux_intel / intelmpi  ************************
 
 Licensed to: Dr. Miroslav Ilias / Matej Bel University, Department Chemistry, Fac. Natural Sciences / Banska Bystrica / SLOVAKIA
 SCM User ID: u17848
  
 AMS 2020.202  RunTime: Mar08-2021 11:24:27  Nodes: 1  Procs: 12

 AMS jobname: ams
 AMS jobid  : 924145954

 Start   directory: /home/milias/Work/projects/open-collection/theoretical_chemistry/projects/nmr_diplomovky/HD/ams/b3lyp_tz2p_good/cosmo-chcl3/tmp.milias.1540.0.noindex/
 Results directory: /home/milias/Work/projects/open-collection/theoretical_chemistry/projects/nmr_diplomovky/HD/ams/b3lyp_tz2p_good/cosmo-chcl3/HD.geopt_freq_nmr_shield_b3lyp_tz2p_good_cosmo-chcl3.results/
 Scratch directory: /tmp/amstmp_ams_kid0.924145954/


 Communication costs MPI_COMM_WORLD:      0.377 usec per message,   0.0531 usec per 8-byte item
 Communication costs for intra-node:      2.724 usec per message,   0.0274 usec per 8-byte item

 RNG seed: 426003004 -333478086 853314694 -5657776 684432536 -388155839 1474767867 -1126503648



                       *********************************************************************
                       *  ADF 2020.202  RunTime: Mar08-2021 11:24:28  Nodes: 1  Procs: 12  *
                       *********************************************************************
  
       ***************************
       *  GEOMETRY OPTIMIZATION  *
       ***************************

Optimization Method                    Quasi Newton
Optimization Coordinates               Delocalized Coordinates
Optimize lattice                       F
 
 ------------------------------------------------------
 Convergence criteria (Hartree,Angstrom)
 ------------------------------------------------------
 Maximum gradient               0.001000000000
 Maximum rms gradient           0.000666666667
 Maximum step allowed           0.001000000000
 Maximum rms step allowed       0.000666666667
 Maximum energy change allowe   0.000150000000
 Maximum stress energy allowe   0.000500000000
 
Initial model Hessian                  Automatic Hessian
 
------------------------------------
Quasi-Newton Optimizer Parameters
------------------------------------
Hessian Update Method                  BFGS
Maximum number of steps                  250
First GDIIS cycle                          0
Maximum GDIIS vectors                      0
Trust radius (bohr)                        0.200000
Trust radius varies                        T
Constraints converged at all steps         T
Use projector                              T
 
 Rigid motions settings for: old optimizer
 Atomic rotations (x,y,z):     T T T
 Atomic translations (x,y,z):  T T T
 Tolerance:                   1.000000000000000E-006
 
--------
Geometry
--------
Atoms
  Index Symbol   x (angstrom)   y (angstrom)   z (angstrom)
      1      S     0.00000000    -0.00000000    -0.96270310       adf.R=1.792
      2      C     1.37539800    -0.00000000     0.21759479       adf.R=1.700
      3      H     1.30859250     0.88826987     0.84667183       adf.R=1.350
      4      H     1.30859250    -0.88826987     0.84667183       adf.R=1.350
      5      C     2.66969601    -0.00000000    -0.55831387       adf.R=1.700
      6      H     2.76938648     0.88788554    -1.17805410       adf.R=1.350
      7      H     2.76938648    -0.88788554    -1.17805410       adf.R=1.350
      8      C    -1.37539800     0.00000000     0.21759479       adf.R=1.700
      9      H    -1.30859250    -0.88826987     0.84667183       adf.R=1.350
     10      H    -1.30859250     0.88826987     0.84667183       adf.R=1.350
     11      C    -2.66969601     0.00000000    -0.55831387       adf.R=1.700
     12      H    -2.76938648     0.88788554    -1.17805410       adf.R=1.350
     13      H    -2.76938648    -0.88788554    -1.17805410       adf.R=1.350
     14     Cl     4.06608205    -0.00000000     0.56288473       adf.R=1.725
     15     Cl    -4.06608205     0.00000000     0.56288473       adf.R=1.725
 
Total System Charge             0.00000
Bonding info available!
 
 
----------------
ADF Engine Input
----------------
 
 Basis
 Type TZ2P
 Core None
 End
 Save TAPE10
 XC
 Hybrid B3LYP
 End
 Relativity
 Level None
 End
 Solvation
 Surf Delley
 Solv name=Chloroform cav0=0.0 cav1=0.0067639
 Charged method=CONJ
 C-Mat POT
 SCF VAR ALL
 CSMRSP
 End
 NumericalQuality Good
 

 Title: *** (NO TITLE) ***

Number of symmetry operators: 4
Schoenflies symbol:           C(2V)
 Using automatic Hessian for delocalized coordinates.
 *** GOStep1 ***

 SOLVATION
-------------------------------------------

  The Delley construction of COSMO surface surface is calculated

       Division Level for Surface Triangles (NDIV)                  3
       Final Division Level for Triangles (NFDIV)                   1
       Radius of the Solvent (RSOL)                           3.17000 angstr
  Dielectric Constant (EPSL)                                  4.80000

       COSMO equation is solved iteratively-               conjugate-gradient

       Maximun of Iterations for Charges (NCIX)                  1000
       Criterion for Charge convergence (CCNV)                1.0E-08

  COSMO charges included variationally in SCF

       COSMO included at every SCF cycle

  Geometry-dependent empirical factor                         0.00000

  C-Matrix calculated in cspmtx

  In cspmtx, C-Matrix calculated using fitted potential

-------------------------------------------



 -------------------------------------------
  COSMO surface
  Area             =          598.074
  Volume           =         1034.505
  Number of Points =         1353
 -------------------------------------------



 ======================
 RI Hartree-Fock Scheme
 ======================
  
 Fit Set Quality     : GOOD
 Integration Quality : GOOD
 Threshold Quality   : GOOD
 Response Quality    : DEFAULT
 Is Range Separated  :  F
 
 RIHartreeFock Dependency: number of modified vectors:          12
 cosmo_calcen: 0.5 (esolb+esolc) (Hartrees) =   -0.006718

 Solvation energy (screening term,uncorrected) =     -4.215357 kcal/mol

 Solvation energy (dispersion and cavitation terms) =      0.896802 kcal/mol
 Solvation Energy Contributions (Hartrees)
          esola   esolb+esolc
     0.00671760   -0.01343520
 esol last cycle   -0.00671760
  
 Hartree-Fock exchange energy:   -103.690440213294     
 cosmo_calcen: 0.5 (esolb+esolc) (Hartrees) =   -0.006718

 Solvation energy (screening term,uncorrected) =     -4.215357 kcal/mol

 Solvation energy (dispersion and cavitation terms) =      0.896802 kcal/mol
 Solvation Energy Contributions (Hartrees)
          esola   esolb+esolc
     0.00671760   -0.01343520
 esol last cycle   -0.00671760
  pauli hf:                              1.084034600644461         29.4981           680.24          2846.13
  elstat hf:                            -1.054819500359873        -28.7031          -661.91         -2769.43

 Energy gradients wrt nuclear displacements
 ==========================================

     Atom      Cartesian (a.u./angstrom)
                 X         Y         Z
 ----------------------------------------
     1 S     0.000000  0.000000  0.014792
     2 C    -0.002571  0.000000 -0.009739
     3 H    -0.000264  0.001311  0.000221
     4 H    -0.000264 -0.001311  0.000221
     5 C     0.004604  0.000000  0.013249
     6 H     0.000141  0.001418 -0.000497
     7 H     0.000141 -0.001418 -0.000497
     8 C     0.002571 -0.000000 -0.009739
     9 H     0.000264 -0.001311  0.000221
    10 H     0.000264  0.001311  0.000221
    11 C    -0.004604 -0.000000  0.013249
    12 H    -0.000141  0.001418 -0.000497
    13 H    -0.000141 -0.001418 -0.000497
    14 Cl   -0.015011  0.000000 -0.010353
    15 Cl    0.015011 -0.000000 -0.010353
 ----------------------------------------
 Mulliken charges used for AMS results%charges...
 
----------------------------------------------------------------------
Geometry Convergence after Step   1       (Hartree/Angstrom,Angstrom)
----------------------------------------------------------------------
current energy                               -3.09992114 Hartree
energy change                      -3.09992114     0.00015000    F
constrained gradient max            0.01501118     0.00100000    F
constrained gradient rms            0.00576710     0.00066667    F
gradient max                        0.01501118
gradient rms                        0.00576710
cart. step max                      0.03727608     0.00100000    F
cart. step rms                      0.01282227     0.00066667    F
 
 
--------
Geometry
--------
Atoms
  Index Symbol   x (angstrom)   y (angstrom)   z (angstrom)
      1      S    -0.00000000     0.00000000    -0.96025951       adf.R=1.792
      2      C     1.39024059    -0.00000000     0.21560407       adf.R=1.700
      3      H     1.32491060     0.88637267     0.84633358       adf.R=1.350
      4      H     1.32491060    -0.88637267     0.84633358       adf.R=1.350
      5      C     2.69264852    -0.00000000    -0.55705912       adf.R=1.700
      6      H     2.79183762     0.88616045    -1.17792248       adf.R=1.350
      7      H     2.79183762    -0.88616045    -1.17792248       adf.R=1.350
      8      C    -1.39024059     0.00000000     0.21560407       adf.R=1.700
      9      H    -1.32491060    -0.88637267     0.84633358       adf.R=1.350
     10      H    -1.32491060     0.88637267     0.84633358       adf.R=1.350
     11      C    -2.69264852     0.00000000    -0.55705912       adf.R=1.700
     12      H    -2.79183762     0.88616045    -1.17792248       adf.R=1.350
     13      H    -2.79183762    -0.88616045    -1.17792248       adf.R=1.350
     14     Cl     4.10335813    -0.00000000     0.56281218       adf.R=1.725
     15     Cl    -4.10335813     0.00000000     0.56281218       adf.R=1.725
 
Total System Charge             0.00000
Bonding info available!
 
 *** GOStep2 ***

 SOLVATION
-------------------------------------------

  The Delley construction of COSMO surface surface is calculated

       Division Level for Surface Triangles (NDIV)                  3
       Final Division Level for Triangles (NFDIV)                   1
       Radius of the Solvent (RSOL)                           3.17000 angstr
  Dielectric Constant (EPSL)                                  4.80000

       COSMO equation is solved iteratively-               conjugate-gradient

       Maximun of Iterations for Charges (NCIX)                  1000
       Criterion for Charge convergence (CCNV)                1.0E-08

  COSMO charges included variationally in SCF

       COSMO included at every SCF cycle

  Geometry-dependent empirical factor                         0.00000

  C-Matrix calculated in cspmtx

  In cspmtx, C-Matrix calculated using fitted potential

-------------------------------------------



 -------------------------------------------
  COSMO surface
  Area             =          600.670
  Volume           =         1038.621
  Number of Points =         1371
 -------------------------------------------



 ======================
 RI Hartree-Fock Scheme
 ======================
  
 Fit Set Quality     : GOOD
 Integration Quality : GOOD
 Threshold Quality   : GOOD
 Response Quality    : DEFAULT
 Is Range Separated  :  F
 
 RIHartreeFock Dependency: number of modified vectors:          12
 cosmo_calcen: 0.5 (esolb+esolc) (Hartrees) =   -0.006760

 Solvation energy (screening term,uncorrected) =     -4.242254 kcal/mol

 Solvation energy (dispersion and cavitation terms) =      0.900695 kcal/mol
 Solvation Energy Contributions (Hartrees)
          esola   esolb+esolc
     0.00676046   -0.01352092
 esol last cycle   -0.00676046
  
 Hartree-Fock exchange energy:   -103.671998318938     
 cosmo_calcen: 0.5 (esolb+esolc) (Hartrees) =   -0.006760

 Solvation energy (screening term,uncorrected) =     -4.242256 kcal/mol

 Solvation energy (dispersion and cavitation terms) =      0.900695 kcal/mol
 Solvation Energy Contributions (Hartrees)
          esola   esolb+esolc
     0.00676046   -0.01352093
 esol last cycle   -0.00676046
  pauli hf:                              3.178080121100511         86.4800          1994.28          8344.05
  elstat hf:                            -1.043689220875841        -28.4002          -654.92         -2740.21

 Energy gradients wrt nuclear displacements
 ==========================================

     Atom      Cartesian (a.u./angstrom)
                 X         Y         Z
 ----------------------------------------
     1 S     0.000000  0.000000  0.013053
     2 C    -0.003332 -0.000000 -0.010746
     3 H     0.000106  0.000316  0.000281
     4 H     0.000106 -0.000316  0.000281
     5 C     0.006951  0.000000  0.011297
     6 H    -0.000561  0.000264 -0.000734
     7 H    -0.000561 -0.000264 -0.000734
     8 C     0.003332  0.000000 -0.010746
     9 H    -0.000106 -0.000316  0.000281
    10 H    -0.000106  0.000316  0.000281
    11 C    -0.006951  0.000000  0.011297
    12 H     0.000561  0.000264 -0.000734
    13 H     0.000561 -0.000264 -0.000734
    14 Cl   -0.006513 -0.000000 -0.006171
    15 Cl    0.006513  0.000000 -0.006171
 ----------------------------------------
 Mulliken charges used for AMS results%charges...

 dE(predicted):    -0.45065E-03, dE(actual):    -0.51418E-03, Trust radius:    0.200000, all in a.u.
 
----------------------------------------------------------------------
Geometry Convergence after Step   2       (Hartree/Angstrom,Angstrom)
----------------------------------------------------------------------
current energy                               -3.10043532 Hartree
energy change                      -0.00051418     0.00015000    F
constrained gradient max            0.01305277     0.00100000    F
constrained gradient rms            0.00457256     0.00066667    F
gradient max                        0.01305277
gradient rms                        0.00457256
cart. step max                      0.01601814     0.00100000    F
cart. step rms                      0.00506085     0.00066667    F
 
 
--------
Geometry
--------
Atoms
  Index Symbol   x (angstrom)   y (angstrom)   z (angstrom)
      1      S    -0.00000000     0.00000000    -0.97627765       adf.R=1.792
      2      C     1.38925366    -0.00000000     0.21410521       adf.R=1.700
      3      H     1.32130057     0.88594443     0.84416392       adf.R=1.350
      4      H     1.32130057    -0.88594443     0.84416392       adf.R=1.350
      5      C     2.69590619    -0.00000000    -0.55904354       adf.R=1.700
      6      H     2.80070955     0.88628277    -1.17748755       adf.R=1.350
      7      H     2.80070955    -0.88628277    -1.17748755       adf.R=1.350
      8      C    -1.38925366     0.00000000     0.21410521       adf.R=1.700
      9      H    -1.32130057    -0.88594443     0.84416392       adf.R=1.350
     10      H    -1.32130057     0.88594443     0.84416392       adf.R=1.350
     11      C    -2.69590619     0.00000000    -0.55904354       adf.R=1.700
     12      H    -2.80070955     0.88628277    -1.17748755       adf.R=1.350
     13      H    -2.80070955    -0.88628277    -1.17748755       adf.R=1.350
     14     Cl     4.10691909    -0.00000000     0.57777399       adf.R=1.725
     15     Cl    -4.10691909     0.00000000     0.57777399       adf.R=1.725
 
Total System Charge             0.00000
Bonding info available!
 
 *** GOStep3 ***

 SOLVATION
-------------------------------------------

  The Delley construction of COSMO surface surface is calculated

       Division Level for Surface Triangles (NDIV)                  3
       Final Division Level for Triangles (NFDIV)                   1
       Radius of the Solvent (RSOL)                           3.17000 angstr
  Dielectric Constant (EPSL)                                  4.80000

       COSMO equation is solved iteratively-               conjugate-gradient

       Maximun of Iterations for Charges (NCIX)                  1000
       Criterion for Charge convergence (CCNV)                1.0E-08

  COSMO charges included variationally in SCF

       COSMO included at every SCF cycle

  Geometry-dependent empirical factor                         0.00000

  C-Matrix calculated in cspmtx

  In cspmtx, C-Matrix calculated using fitted potential

-------------------------------------------



 -------------------------------------------
  COSMO surface
  Area             =          601.795
  Volume           =         1040.902
  Number of Points =         1375
 -------------------------------------------



 ======================
 RI Hartree-Fock Scheme
 ======================
  
 Fit Set Quality     : GOOD
 Integration Quality : GOOD
 Threshold Quality   : GOOD
 Response Quality    : DEFAULT
 Is Range Separated  :  F
 
 RIHartreeFock Dependency: number of modified vectors:          12
 cosmo_calcen: 0.5 (esolb+esolc) (Hartrees) =   -0.006880

 Solvation energy (screening term,uncorrected) =     -4.317460 kcal/mol

 Solvation energy (dispersion and cavitation terms) =      0.902381 kcal/mol
 Solvation Energy Contributions (Hartrees)
          esola   esolb+esolc
     0.00688031   -0.01376062
 esol last cycle   -0.00688031
  
 Hartree-Fock exchange energy:   -103.657145525985     
 cosmo_calcen: 0.5 (esolb+esolc) (Hartrees) =   -0.006880

 Solvation energy (screening term,uncorrected) =     -4.317461 kcal/mol

 Solvation energy (dispersion and cavitation terms) =      0.902381 kcal/mol
 Solvation Energy Contributions (Hartrees)
          esola   esolb+esolc
     0.00688031   -0.01376062
 esol last cycle   -0.00688031
  pauli hf:                              1.092592266630618         29.7309           685.61          2868.60
  elstat hf:                            -1.035073960033873        -28.1658          -649.52         -2717.59

 Energy gradients wrt nuclear displacements
 ==========================================

     Atom      Cartesian (a.u./angstrom)
                 X         Y         Z
 ----------------------------------------
     1 S     0.000000  0.000000  0.002794
     2 C    -0.004860  0.000000 -0.002948
     3 H     0.000409 -0.000303  0.000724
     4 H     0.000409  0.000303  0.000724
     5 C     0.005695  0.000000  0.003357
     6 H    -0.000614 -0.000412 -0.000814
     7 H    -0.000614  0.000412 -0.000814
     8 C     0.004860 -0.000000 -0.002948
     9 H    -0.000409  0.000303  0.000724
    10 H    -0.000409 -0.000303  0.000724
    11 C    -0.005695  0.000000  0.003357
    12 H     0.000614 -0.000412 -0.000814
    13 H     0.000614  0.000412 -0.000814
    14 Cl   -0.001793  0.000000 -0.001627
    15 Cl    0.001793 -0.000000 -0.001627
 ----------------------------------------
 Mulliken charges used for AMS results%charges...

 dE(predicted):    -0.21373E-03, dE(actual):    -0.25220E-03, Trust radius:    0.200000, all in a.u.
 
----------------------------------------------------------------------
Geometry Convergence after Step   3       (Hartree/Angstrom,Angstrom)
----------------------------------------------------------------------
current energy                               -3.10068752 Hartree
energy change                      -0.00025220     0.00015000    F
constrained gradient max            0.00569458     0.00100000    F
constrained gradient rms            0.00199729     0.00066667    F
gradient max                        0.00569458
gradient rms                        0.00199729
cart. step max                      0.00319887     0.00100000    F
cart. step rms                      0.00166333     0.00066667    F
 
 
--------
Geometry
--------
Atoms
  Index Symbol   x (angstrom)   y (angstrom)   z (angstrom)
      1      S     0.00000000    -0.00000000    -0.97623826       adf.R=1.792
      2      C     1.39245253    -0.00000000     0.21620115       adf.R=1.700
      3      H     1.32375307     0.88698789     0.84422851       adf.R=1.350
      4      H     1.32375307    -0.88698789     0.84422851       adf.R=1.350
      5      C     2.69573683    -0.00000000    -0.56190373       adf.R=1.700
      6      H     2.80312536     0.88765390    -1.17747092       adf.R=1.350
      7      H     2.80312536    -0.88765390    -1.17747092       adf.R=1.350
      8      C    -1.39245253     0.00000000     0.21620115       adf.R=1.700
      9      H    -1.32375307    -0.88698789     0.84422851       adf.R=1.350
     10      H    -1.32375307     0.88698789     0.84422851       adf.R=1.350
     11      C    -2.69573683     0.00000000    -0.56190373       adf.R=1.700
     12      H    -2.80312536     0.88765390    -1.17747092       adf.R=1.350
     13      H    -2.80312536    -0.88765390    -1.17747092       adf.R=1.350
     14     Cl     4.10998942    -0.00000000     0.57835610       adf.R=1.725
     15     Cl    -4.10998942     0.00000000     0.57835610       adf.R=1.725
 
Total System Charge             0.00000
Bonding info available!
 
 *** GOStep4 ***

 SOLVATION
-------------------------------------------

  The Delley construction of COSMO surface surface is calculated

       Division Level for Surface Triangles (NDIV)                  3
       Final Division Level for Triangles (NFDIV)                   1
       Radius of the Solvent (RSOL)                           3.17000 angstr
  Dielectric Constant (EPSL)                                  4.80000

       COSMO equation is solved iteratively-               conjugate-gradient

       Maximun of Iterations for Charges (NCIX)                  1000
       Criterion for Charge convergence (CCNV)                1.0E-08

  COSMO charges included variationally in SCF

       COSMO included at every SCF cycle

  Geometry-dependent empirical factor                         0.00000

  C-Matrix calculated in cspmtx

  In cspmtx, C-Matrix calculated using fitted potential

-------------------------------------------



 -------------------------------------------
  COSMO surface
  Area             =          602.210
  Volume           =         1041.764
  Number of Points =         1375
 -------------------------------------------



 ======================
 RI Hartree-Fock Scheme
 ======================
  
 Fit Set Quality     : GOOD
 Integration Quality : GOOD
 Threshold Quality   : GOOD
 Response Quality    : DEFAULT
 Is Range Separated  :  F
 
 RIHartreeFock Dependency: number of modified vectors:          12
 cosmo_calcen: 0.5 (esolb+esolc) (Hartrees) =   -0.006970

 Solvation energy (screening term,uncorrected) =     -4.373513 kcal/mol

 Solvation energy (dispersion and cavitation terms) =      0.903005 kcal/mol
 Solvation Energy Contributions (Hartrees)
          esola   esolb+esolc
     0.00696964   -0.01393927
 esol last cycle   -0.00696964
  
 Hartree-Fock exchange energy:   -103.652767964482     
 cosmo_calcen: 0.5 (esolb+esolc) (Hartrees) =   -0.006970

 Solvation energy (screening term,uncorrected) =     -4.373514 kcal/mol

 Solvation energy (dispersion and cavitation terms) =      0.903005 kcal/mol
 Solvation Energy Contributions (Hartrees)
          esola   esolb+esolc
     0.00696964   -0.01393928
 esol last cycle   -0.00696964
  pauli hf:                              1.080310715152727         29.3968           677.91          2836.36
  elstat hf:                            -1.032332862712344        -28.0912          -647.80         -2710.39

 Energy gradients wrt nuclear displacements
 ==========================================

     Atom      Cartesian (a.u./angstrom)
                 X         Y         Z
 ----------------------------------------
     1 S     0.000000  0.000000  0.000310
     2 C    -0.002814  0.000000  0.000039
     3 H     0.000211 -0.000148  0.000413
     4 H     0.000211  0.000148  0.000413
     5 C     0.003240 -0.000000 -0.000062
     6 H    -0.000246 -0.000187 -0.000367
     7 H    -0.000246  0.000187 -0.000367
     8 C     0.002814  0.000000  0.000039
     9 H    -0.000211  0.000148  0.000413
    10 H    -0.000211 -0.000148  0.000413
    11 C    -0.003240  0.000000 -0.000062
    12 H     0.000246 -0.000187 -0.000367
    13 H     0.000246  0.000187 -0.000367
    14 Cl   -0.000492 -0.000000 -0.000224
    15 Cl    0.000492  0.000000 -0.000224
 ----------------------------------------
 Mulliken charges used for AMS results%charges...

 dE(predicted):    -0.41337E-04, dE(actual):    -0.50128E-04, Trust radius:    0.200000, all in a.u.
 
----------------------------------------------------------------------
Geometry Convergence after Step   4       (Hartree/Angstrom,Angstrom)
----------------------------------------------------------------------
current energy                               -3.10073764 Hartree
energy change                      -0.00005013     0.00015000    T
constrained gradient max            0.00323995     0.00100000    F
constrained gradient rms            0.00093554     0.00066667    F
gradient max                        0.00323995
gradient rms                        0.00093554
cart. step max                      0.00170392     0.00100000    F
cart. step rms                      0.00076882     0.00066667    F
 
 
--------
Geometry
--------
Atoms
  Index Symbol   x (angstrom)   y (angstrom)   z (angstrom)
      1      S    -0.00000000    -0.00000000    -0.97710521       adf.R=1.792
      2      C     1.39307697    -0.00000000     0.21658227       adf.R=1.700
      3      H     1.32316161     0.88776839     0.84308608       adf.R=1.350
      4      H     1.32316161    -0.88776839     0.84308608       adf.R=1.350
      5      C     2.69403291    -0.00000000    -0.56222936       adf.R=1.700
      6      H     2.80295470     0.88845509    -1.17616658       adf.R=1.350
      7      H     2.80295470    -0.88845509    -1.17616658       adf.R=1.350
      8      C    -1.39307697     0.00000000     0.21658227       adf.R=1.700
      9      H    -1.32316161    -0.88776839     0.84308608       adf.R=1.350
     10      H    -1.32316161     0.88776839     0.84308608       adf.R=1.350
     11      C    -2.69403291     0.00000000    -0.56222936       adf.R=1.700
     12      H    -2.80295470     0.88845509    -1.17616658       adf.R=1.350
     13      H    -2.80295470    -0.88845509    -1.17616658       adf.R=1.350
     14     Cl     4.11031069    -0.00000000     0.57841026       adf.R=1.725
     15     Cl    -4.11031069     0.00000000     0.57841026       adf.R=1.725
 
Total System Charge             0.00000
Bonding info available!
 
 *** GOStep5 ***

 SOLVATION
-------------------------------------------

  The Delley construction of COSMO surface surface is calculated

       Division Level for Surface Triangles (NDIV)                  3
       Final Division Level for Triangles (NFDIV)                   1
       Radius of the Solvent (RSOL)                           3.17000 angstr
  Dielectric Constant (EPSL)                                  4.80000

       COSMO equation is solved iteratively-               conjugate-gradient

       Maximun of Iterations for Charges (NCIX)                  1000
       Criterion for Charge convergence (CCNV)                1.0E-08

  COSMO charges included variationally in SCF

       COSMO included at every SCF cycle

  Geometry-dependent empirical factor                         0.00000

  C-Matrix calculated in cspmtx

  In cspmtx, C-Matrix calculated using fitted potential

-------------------------------------------



 -------------------------------------------
  COSMO surface
  Area             =          602.223
  Volume           =         1041.810
  Number of Points =         1375
 -------------------------------------------



 ======================
 RI Hartree-Fock Scheme
 ======================
  
 Fit Set Quality     : GOOD
 Integration Quality : GOOD
 Threshold Quality   : GOOD
 Response Quality    : DEFAULT
 Is Range Separated  :  F
 
 RIHartreeFock Dependency: number of modified vectors:          12
 cosmo_calcen: 0.5 (esolb+esolc) (Hartrees) =   -0.007011

 Solvation energy (screening term,uncorrected) =     -4.399659 kcal/mol

 Solvation energy (dispersion and cavitation terms) =      0.903023 kcal/mol
 Solvation Energy Contributions (Hartrees)
          esola   esolb+esolc
     0.00701130   -0.01402260
 esol last cycle   -0.00701130
  
 Hartree-Fock exchange energy:   -103.652686183677     
 cosmo_calcen: 0.5 (esolb+esolc) (Hartrees) =   -0.007011

 Solvation energy (screening term,uncorrected) =     -4.399660 kcal/mol

 Solvation energy (dispersion and cavitation terms) =      0.903023 kcal/mol
 Solvation Energy Contributions (Hartrees)
          esola   esolb+esolc
     0.00701130   -0.01402261
 esol last cycle   -0.00701130
  pauli hf:                              1.076615149391465         29.2962           675.59          2826.65
  elstat hf:                            -1.032179117546118        -28.0870          -647.70         -2709.99

 Energy gradients wrt nuclear displacements
 ==========================================

     Atom      Cartesian (a.u./angstrom)
                 X         Y         Z
 ----------------------------------------
     1 S     0.000000  0.000000 -0.000322
     2 C    -0.001087 -0.000000  0.000698
     3 H     0.000102  0.000006  0.000050
     4 H     0.000102 -0.000006  0.000050
     5 C     0.001104  0.000000 -0.000684
     6 H    -0.000055  0.000007  0.000003
     7 H    -0.000055 -0.000007  0.000003
     8 C     0.001087  0.000000  0.000698
     9 H    -0.000102 -0.000006  0.000050
    10 H    -0.000102  0.000006  0.000050
    11 C    -0.001104  0.000000 -0.000684
    12 H     0.000055  0.000007  0.000003
    13 H     0.000055 -0.000007  0.000003
    14 Cl   -0.000060 -0.000000  0.000040
    15 Cl    0.000060  0.000000  0.000040
 ----------------------------------------
 Mulliken charges used for AMS results%charges...

 dE(predicted):    -0.10141E-04, dE(actual):    -0.11702E-04, Trust radius:    0.200000, all in a.u.
 
----------------------------------------------------------------------
Geometry Convergence after Step   5       (Hartree/Angstrom,Angstrom)
----------------------------------------------------------------------
current energy                               -3.10074934 Hartree
energy change                      -0.00001170     0.00015000    T
constrained gradient max            0.00110393     0.00100000    F
constrained gradient rms            0.00039121     0.00066667    T
gradient max                        0.00110393
gradient rms                        0.00039121
cart. step max                      0.00094819     0.00100000    T
cart. step rms                      0.00052708     0.00066667    T
 
 
--------
Geometry
--------
Atoms
  Index Symbol   x (angstrom)   y (angstrom)   z (angstrom)
      1      S     0.00000000     0.00000000    -0.97784519       adf.R=1.792
      2      C     1.39297639    -0.00000000     0.21605517       adf.R=1.700
      3      H     1.32221342     0.88787100     0.84225457       adf.R=1.350
      4      H     1.32221342    -0.88787100     0.84225457       adf.R=1.350
      5      C     2.69339134    -0.00000000    -0.56179273       adf.R=1.700
      6      H     2.80299458     0.88852300    -1.17549013       adf.R=1.350
      7      H     2.80299458    -0.88852300    -1.17549013       adf.R=1.350
      8      C    -1.39297639     0.00000000     0.21605517       adf.R=1.700
      9      H    -1.32221342    -0.88787100     0.84225457       adf.R=1.350
     10      H    -1.32221342     0.88787100     0.84225457       adf.R=1.350
     11      C    -2.69339134     0.00000000    -0.56179273       adf.R=1.700
     12      H    -2.80299458     0.88852300    -1.17549013       adf.R=1.350
     13      H    -2.80299458    -0.88852300    -1.17549013       adf.R=1.350
     14     Cl     4.10970777    -0.00000000     0.57918084       adf.R=1.725
     15     Cl    -4.10970777     0.00000000     0.57918084       adf.R=1.725
 
Total System Charge             0.00000
Bonding info available!
 
 *** GOStep6 ***

 SOLVATION
-------------------------------------------

  The Delley construction of COSMO surface surface is calculated

       Division Level for Surface Triangles (NDIV)                  3
       Final Division Level for Triangles (NFDIV)                   1
       Radius of the Solvent (RSOL)                           3.17000 angstr
  Dielectric Constant (EPSL)                                  4.80000

       COSMO equation is solved iteratively-               conjugate-gradient

       Maximun of Iterations for Charges (NCIX)                  1000
       Criterion for Charge convergence (CCNV)                1.0E-08

  COSMO charges included variationally in SCF

       COSMO included at every SCF cycle

  Geometry-dependent empirical factor                         0.00000

  C-Matrix calculated in cspmtx

  In cspmtx, C-Matrix calculated using fitted potential

-------------------------------------------



 -------------------------------------------
  COSMO surface
  Area             =          602.162
  Volume           =         1041.676
  Number of Points =         1375
 -------------------------------------------



 ======================
 RI Hartree-Fock Scheme
 ======================
  
 Fit Set Quality     : GOOD
 Integration Quality : GOOD
 Threshold Quality   : GOOD
 Response Quality    : DEFAULT
 Is Range Separated  :  F
 
 RIHartreeFock Dependency: number of modified vectors:          12
 cosmo_calcen: 0.5 (esolb+esolc) (Hartrees) =   -0.007019

 Solvation energy (screening term,uncorrected) =     -4.404540 kcal/mol

 Solvation energy (dispersion and cavitation terms) =      0.902932 kcal/mol
 Solvation Energy Contributions (Hartrees)
          esola   esolb+esolc
     0.00701908   -0.01403816
 esol last cycle   -0.00701908
  
 Hartree-Fock exchange energy:   -103.653403085550     
 cosmo_calcen: 0.5 (esolb+esolc) (Hartrees) =   -0.007019

 Solvation energy (screening term,uncorrected) =     -4.404541 kcal/mol

 Solvation energy (dispersion and cavitation terms) =      0.902932 kcal/mol
 Solvation Energy Contributions (Hartrees)
          esola   esolb+esolc
     0.00701908   -0.01403816
 esol last cycle   -0.00701908
  pauli hf:                              1.076066491766024         29.2813           675.24          2825.21
  elstat hf:                            -1.032575771686744        -28.0978          -647.95         -2711.03

 Energy gradients wrt nuclear displacements
 ==========================================

     Atom      Cartesian (a.u./angstrom)
                 X         Y         Z
 ----------------------------------------
     1 S     0.000000  0.000000 -0.000097
     2 C    -0.000280 -0.000000  0.000356
     3 H     0.000033  0.000023 -0.000056
     4 H     0.000033 -0.000023 -0.000056
     5 C     0.000276  0.000000 -0.000339
     6 H    -0.000013  0.000034  0.000069
     7 H    -0.000013 -0.000034  0.000069
     8 C     0.000280  0.000000  0.000356
     9 H    -0.000033 -0.000023 -0.000056
    10 H    -0.000033  0.000023 -0.000056
    11 C    -0.000276  0.000000 -0.000339
    12 H     0.000013  0.000034  0.000069
    13 H     0.000013 -0.000034  0.000069
    14 Cl   -0.000019  0.000000  0.000004
    15 Cl    0.000019  0.000000  0.000004
 ----------------------------------------
 Mulliken charges used for AMS results%charges...

 dE(predicted):    -0.13542E-05, dE(actual):    -0.22651E-05, Trust radius:    0.200000, all in a.u.
 
---------------------------------------------------------
Geometry Convergence after Step   6       ** CONVERGED **
---------------------------------------------------------
current energy                               -3.10075161 Hartree
energy change                      -0.00000227     0.00015000    T
constrained gradient max            0.00035604     0.00100000    T
constrained gradient rms            0.00013714     0.00066667    T
gradient max                        0.00035604
gradient rms                        0.00013714
cart. step max                      0.00074647     0.00100000    T
cart. step rms                      0.00034196     0.00066667    T
 
Geometry optimization converged

Optimized geometry:
 
--------
Geometry
--------
Atoms
  Index Symbol   x (angstrom)   y (angstrom)   z (angstrom)
      1      S     0.00000000     0.00000000    -0.97784519       adf.R=1.792
      2      C     1.39297639    -0.00000000     0.21605517       adf.R=1.700
      3      H     1.32221342     0.88787100     0.84225457       adf.R=1.350
      4      H     1.32221342    -0.88787100     0.84225457       adf.R=1.350
      5      C     2.69339134    -0.00000000    -0.56179273       adf.R=1.700
      6      H     2.80299458     0.88852300    -1.17549013       adf.R=1.350
      7      H     2.80299458    -0.88852300    -1.17549013       adf.R=1.350
      8      C    -1.39297639     0.00000000     0.21605517       adf.R=1.700
      9      H    -1.32221342    -0.88787100     0.84225457       adf.R=1.350
     10      H    -1.32221342     0.88787100     0.84225457       adf.R=1.350
     11      C    -2.69339134     0.00000000    -0.56179273       adf.R=1.700
     12      H    -2.80299458     0.88852300    -1.17549013       adf.R=1.350
     13      H    -2.80299458    -0.88852300    -1.17549013       adf.R=1.350
     14     Cl     4.10970777    -0.00000000     0.57918084       adf.R=1.725
     15     Cl    -4.10970777     0.00000000     0.57918084       adf.R=1.725
 
Total System Charge             0.00000
Bonding info available!
 
Performing a single point calculation on the final geometry ...

 *** adf ***



 ===========================
 A T T A C H E D   F I L E S
 ===========================
  
 Restart/tmp/amstmp_ams_kid0.924145954/GOStep6.rkf*** GOStep6 ***



 ===============================
 M O D E L   P A R A M E T E R S
 ===============================
  
 DENSITY FUNCTIONAL POTENTIAL (scf)
    Hybrid:                            B3LYP                                   == Not Default ==

 SPIN  (restricted / unrestr.)
    Molecule:                          Restricted                               
    Fragments:                         Restricted                               

 OTHER ASPECTS
    Relativistic Corrections:          ---                                     == Not Default ==

    Nuclear Charge Density Model:      Point Charge Nuclei                      
    Core Treatment:                    Frozen Orbital(s)                        

    Hyperfine or Zeeman Interaction:   ---                                      

 SOLVATION
-------------------------------------------

  The Delley construction of COSMO surface surface is calculated

       Division Level for Surface Triangles (NDIV)                  3
       Final Division Level for Triangles (NFDIV)                   1
       Radius of the Solvent (RSOL)                           3.17000 angstr
  Dielectric Constant (EPSL)                                  4.80000

       COSMO equation is solved iteratively-               conjugate-gradient

       Maximun of Iterations for Charges (NCIX)                  1000
       Criterion for Charge convergence (CCNV)                1.0E-08

  COSMO charges included variationally in SCF

       COSMO included at every SCF cycle

  Geometry-dependent empirical factor                         0.00000

  C-Matrix calculated in cspmtx

  In cspmtx, C-Matrix calculated using fitted potential

-------------------------------------------




 ===============
 G E O M E T R Y  ***  3D  Molecule  ***
 ===============
  

 ATOMS
 =====                            X Y Z                    CHARGE                     RADIUS
                                (Angstrom)             Nucl     +Core       At.Mass (Angstrom)
                       --------------------------    ----------------       ------- ----------
    1  S               0.0000    0.0000   -0.9778     16.00     16.00       31.9721    1.7920
    2  C               1.3930   -0.0000    0.2161      6.00      6.00       12.0000    1.7000
    3  H               1.3222    0.8879    0.8423      1.00      1.00        1.0078    1.3500
    4  H               1.3222   -0.8879    0.8423      1.00      1.00        1.0078    1.3500
    5  C               2.6934   -0.0000   -0.5618      6.00      6.00       12.0000    1.7000
    6  H               2.8030    0.8885   -1.1755      1.00      1.00        1.0078    1.3500
    7  H               2.8030   -0.8885   -1.1755      1.00      1.00        1.0078    1.3500
    8  C              -1.3930    0.0000    0.2161      6.00      6.00       12.0000    1.7000
    9  H              -1.3222   -0.8879    0.8423      1.00      1.00        1.0078    1.3500
   10  H              -1.3222    0.8879    0.8423      1.00      1.00        1.0078    1.3500
   11  C              -2.6934    0.0000   -0.5618      6.00      6.00       12.0000    1.7000
   12  H              -2.8030    0.8885   -1.1755      1.00      1.00        1.0078    1.3500
   13  H              -2.8030   -0.8885   -1.1755      1.00      1.00        1.0078    1.3500
   14  Cl              4.1097   -0.0000    0.5792     17.00     17.00       34.9689    1.7250
   15  Cl             -4.1097    0.0000    0.5792     17.00     17.00       34.9689    1.7250


 FRAGMENTS
 =========                                     Atoms in this Fragment     Cart. coord.s (Angstrom)
                                               -------------------------------------------------------
    1  S                                                 1  S            0.0000    0.0000   -0.9778
    2  C                                                 2  C            1.3930   -0.0000    0.2161
    3  C                                                 5  C            2.6934   -0.0000   -0.5618
    4  C                                                 8  C           -1.3930    0.0000    0.2161
    5  C                                                11  C           -2.6934    0.0000   -0.5618
    6  H                                                 3  H            1.3222    0.8879    0.8423
    7  H                                                 4  H            1.3222   -0.8879    0.8423
    8  H                                                 6  H            2.8030    0.8885   -1.1755
    9  H                                                 7  H            2.8030   -0.8885   -1.1755
   10  H                                                 9  H           -1.3222   -0.8879    0.8423
   11  H                                                10  H           -1.3222    0.8879    0.8423
   12  H                                                12  H           -2.8030    0.8885   -1.1755
   13  H                                                13  H           -2.8030   -0.8885   -1.1755
   14  Cl                                               14  Cl           4.1097   -0.0000    0.5792
   15  Cl                                               15  Cl          -4.1097    0.0000    0.5792


 Interatomic Distance Matrix (Angstrom)
 --------------------------------------

   1)     0.000
   2)     1.835   0.000
   3)     2.419   1.089   0.000
   4)     2.419   1.089   1.776   0.000
   5)     2.725   1.515   2.154   2.154   0.000
   6)     2.947   2.171   2.503   3.069   1.085   0.000
   7)     2.947   2.171   3.069   2.503   1.085   1.777   0.000
   8)     1.835   2.786   2.924   2.924   4.160   4.509   4.509   0.000
   9)     2.419   2.924   3.185   2.644   4.346   4.924   4.592   1.089   0.000
  10)     2.419   2.924   2.644   3.185   4.346   4.592   4.924   1.089   1.776   0.000
  11)     2.725   4.160   4.346   4.346   5.387   5.601   5.601   1.515   2.154   2.154
          0.000
  12)     2.947   4.509   4.592   4.924   5.601   5.606   5.881   2.171   3.069   2.503
          1.085   0.000
  13)     2.947   4.509   4.924   4.592   5.601   5.881   5.606   2.171   2.503   3.069
          1.085   1.777   0.000
  14)     4.395   2.741   2.937   2.937   1.819   2.361   2.361   5.515   5.510   5.510
          6.898   7.187   7.187   0.000
  15)     4.395   5.515   5.510   5.510   6.898   7.187   7.187   2.741   2.937   2.937
          1.819   2.361   2.361   8.219   0.000

 Min. Distance =    1.0854
 Max. Distance =    8.2194



 =====================================
 S Y M M E T R Y ,   E L E C T R O N S
 =====================================
  
 Symmetry: C(2V)

 Irreducible Representations, including subspecies
 -------------------------------------------------
 A1
 A2
 B1
 B2

 Symmetry is NOT used when fitting density


 Configuration of Valence Electrons
 ==================================
 ( determined in the SCF procedure )

 Total:   82

 Net Charge: 0 (Nuclei minus Electrons)

 Aufbau principle for MO occupations will be applied through SCF cycle no.     150
 Thereafter, the program will assign electrons to MOs that are spatially
 similar to the occupied MOs in a "reference" cycle ("KeepOrbitals").
 The reference cycle is always the PREVIOUS cycle: it will evolve with
 the SCF procedure.
1
 ***************************************************************************************************



                                      ****************************************
                                      *  B U I L D : (Fragments, Functions)  *
                                      ****************************************
  



 =======
 S F O s  ***  (Symmetrized Fragment Orbitals)  ***
 =======
  
 SFOs are linear combinations of (valence) Fragment Orbitals (FOs), such that the SFOs transform as the
 irreducible representations of the (molecular) symmetry group. Each SFO is therefore characterized by
 an irrep of the molecule and by a few (or only one) generating FOs.
 The SFOs constitute a symmetry-adapted basis for the Fock matrix. The MO eigenvector coefficients in
 this basis provide a direct interpretation of the MOs in terms of Frontier Orbital Theory.

 The SFOs are combined with auxiliary Core Functions (CFs) to ensure orthogonalization on the (frozen)
 Core Orbitals (COs). The Core-orthogonalized SFOs (CSFOs) constitute the true Fock basis.

 The FOs, and hence also the (C)SFOs are combinations of the elementary basis functions (BAS). The basis
 functions that participate in the description of the SFOs depend on the irrep. The indices of the
 involved functions are printed below for each irrep.
 (The complete list of primitive basis functions is printed in another section)

 Total nr. of (C)SFOs (summation over all irreps) :   294

 NOTE: a (C)SFO that is defined as a combination of more than one FO is usually NOT normalized.



                                       === A1 ===
 Nr. of SFOs :   98
 Cartesian basis functions that participate in this irrep (total number =   252) :
      1     2     3     4    11    12    13     7    10    16
     19    22    28    23    26    38    31    36    39    99
     40   100    41   101    42   102    43   103    46   106
     49   109    52   112    44   104    47   107    50   110
     58   118    55   115    53    56   113   116    68   128
     64   124    61    66   121   126    59    62   119   122
     69   129    70   130    71   131    72   132    73   133
     76   136    79   139    82   142    74   134    77   137
     80   140    88   148    85   145    83    86   143   146
     98   158    94   154    91    96   151   156    89    92
    149   152   159   171   207   219   160   172   208   220
    161   173   209   221   164   176   212   224   162   163
    174   175   210   211   222   223   170   182   218   230
    167   169   179   181   215   217   227   229   165   166
    168   177   178   180   213   214   216   225   226   228
    183   195   231   243   184   196   232   244   185   197
    233   245   188   200   236   248   186   187   198   199
    234   235   246   247   194   206   242   254   191   193
    203   205   239   241   251   253   189   190   192   201
    202   204   237   238   240   249   250   252   255   293
    256   294   257   295   258   296   265   303   266   304
    267   305   261   299   264   302   270   308   273   311
    276   314   259   297   262   300   268   306   271   309
    274   312   282   320   279   317   277   280   315   318
    292   330   288   326   285   290   323   328   283   286
    321   324

    SFO  (index         Fragment          Generating    Expansion in Fragment Orbitals
  indx  incl.CFs)   Occup   Orb.Energy   FragmentType  Coeff.   Orbital     on Fragment
 --------------------------------------------------------------------------------------
     1       1      2.000     -88.923 au  S             1.00      1 S               1
                        (   -2419.725 eV)
     2       2      2.000      -7.997 au  S             1.00      2 S               1
                        (    -217.618 eV)
     3       3      2.000      -0.691 au  S             1.00      3 S               1
                        (     -18.798 eV)
     4       4       --         0.219 au  S             1.00      4 S               1
                        (       5.958 eV)
     5       5       --         2.101 au  S             1.00      5 S               1
                        (      57.181 eV)
     6       6       --        12.826 au  S             1.00      6 S               1
                        (     349.000 eV)
     7       7       --       200.465 au  S             1.00      7 S               1
                        (    5454.923 eV)
     8       8      2.000      -5.953 au  S             1.00      1 P:z             1
                        (    -162.002 eV)
     9       9      1.333      -0.272 au  S             1.00      2 P:z             1
                        (      -7.400 eV)
    10      10       --         0.147 au  S             1.00      3 P:z             1
                        (       3.990 eV)
    11      11       --         1.258 au  S             1.00      4 P:z             1
                        (      34.238 eV)
    12      12       --        13.236 au  S             1.00      5 P:z             1
                        (     360.181 eV)
    13      13       --         0.479 au  S             1.00      1 D:z2            1
                        (      13.042 eV)
    14      14       --         0.479 au  S             1.00      1 D:x2-y2         1
                        (      13.042 eV)
    15      15       --         1.328 au  S             1.00      1 F:z3            1
                        (      36.128 eV)
    16      16       --         1.328 au  S             1.00      1 F:z             1
                        (      36.128 eV)
    17      17      2.000     -10.347 au  C             0.71      1 S               2
                        (    -281.545 eV)               0.71      1 S               4
    18      18      2.000      -0.564 au  C             0.71      2 S               2
                        (     -15.345 eV)               0.71      2 S               4
    19      19       --         0.402 au  C             0.71      3 S               2
                        (      10.943 eV)               0.71      3 S               4
    20      20       --         5.509 au  C             0.71      4 S               2
                        (     149.900 eV)               0.71      4 S               4
    21      21       --        50.546 au  C             0.71      5 S               2
                        (    1375.418 eV)               0.71      5 S               4
    22      22      0.667      -0.188 au  C             0.71      1 P:x             2
                        (      -5.110 eV)              -0.71      1 P:x             4
    23      23       --         0.191 au  C             0.71      2 P:x             2
                        (       5.204 eV)              -0.71      2 P:x             4
    24      24       --         2.089 au  C             0.71      3 P:x             2
                        (      56.851 eV)              -0.71      3 P:x             4
    25      25      0.667      -0.188 au  C             0.71      1 P:z             2
                        (      -5.110 eV)               0.71      1 P:z             4
    26      26       --         0.191 au  C             0.71      2 P:z             2
                        (       5.204 eV)               0.71      2 P:z             4
    27      27       --         2.089 au  C             0.71      3 P:z             2
                        (      56.851 eV)               0.71      3 P:z             4
    28      28       --         1.292 au  C             0.71      1 D:z2            2
                        (      35.150 eV)               0.71      1 D:z2            4
    29      29       --         1.292 au  C             0.71      1 D:x2-y2         2
                        (      35.150 eV)               0.71      1 D:x2-y2         4
    30      30       --         1.292 au  C             0.71      1 D:xz            2
                        (      35.150 eV)              -0.71      1 D:xz            4
    31      31       --         4.084 au  C             0.71      1 F:z3            2
                        (     111.144 eV)               0.71      1 F:z3            4
    32      32       --         4.084 au  C             0.71      1 F:z             2
                        (     111.144 eV)               0.71      1 F:z             4
    33      33       --         4.084 au  C             0.71      1 F:z2x           2
                        (     111.144 eV)              -0.71      1 F:z2x           4
    34      34       --         4.084 au  C             0.71      1 F:x             2
                        (     111.144 eV)              -0.71      1 F:x             4
    35      35      2.000     -10.347 au  C             0.71      1 S               3
                        (    -281.545 eV)               0.71      1 S               5
    36      36      2.000      -0.564 au  C             0.71      2 S               3
                        (     -15.345 eV)               0.71      2 S               5
    37      37       --         0.402 au  C             0.71      3 S               3
                        (      10.943 eV)               0.71      3 S               5
    38      38       --         5.509 au  C             0.71      4 S               3
                        (     149.900 eV)               0.71      4 S               5
    39      39       --        50.546 au  C             0.71      5 S               3
                        (    1375.418 eV)               0.71      5 S               5
    40      40      0.667      -0.188 au  C             0.71      1 P:x             3
                        (      -5.110 eV)              -0.71      1 P:x             5
    41      41       --         0.191 au  C             0.71      2 P:x             3
                        (       5.204 eV)              -0.71      2 P:x             5
    42      42       --         2.089 au  C             0.71      3 P:x             3
                        (      56.851 eV)              -0.71      3 P:x             5
    43      43      0.667      -0.188 au  C             0.71      1 P:z             3
                        (      -5.110 eV)               0.71      1 P:z             5
    44      44       --         0.191 au  C             0.71      2 P:z             3
                        (       5.204 eV)               0.71      2 P:z             5
    45      45       --         2.089 au  C             0.71      3 P:z             3
                        (      56.851 eV)               0.71      3 P:z             5
    46      46       --         1.292 au  C             0.71      1 D:z2            3
                        (      35.150 eV)               0.71      1 D:z2            5
    47      47       --         1.292 au  C             0.71      1 D:x2-y2         3
                        (      35.150 eV)               0.71      1 D:x2-y2         5
    48      48       --         1.292 au  C             0.71      1 D:xz            3
                        (      35.150 eV)              -0.71      1 D:xz            5
    49      49       --         4.084 au  C             0.71      1 F:z3            3
                        (     111.144 eV)               0.71      1 F:z3            5
    50      50       --         4.084 au  C             0.71      1 F:z             3
                        (     111.144 eV)               0.71      1 F:z             5
    51      51       --         4.084 au  C             0.71      1 F:z2x           3
                        (     111.144 eV)              -0.71      1 F:z2x           5
    52      52       --         4.084 au  C             0.71      1 F:x             3
                        (     111.144 eV)              -0.71      1 F:x             5
    53      53      1.000      -0.244 au  H             0.50      1 S               6
                        (      -6.641 eV)               0.50      1 S               7
                                                        0.50      1 S              10
                                                        0.50      1 S              11
    54      54       --         0.104 au  H             0.50      2 S               6
                        (       2.836 eV)               0.50      2 S               7
                                                        0.50      2 S              10
                                                        0.50      2 S              11
    55      55       --         1.564 au  H             0.50      3 S               6
                        (      42.568 eV)               0.50      3 S               7
                                                        0.50      3 S              10
                                                        0.50      3 S              11
    56      56       --         0.436 au  H             0.50      1 P:x             6
                        (      11.864 eV)               0.50      1 P:x             7
                                                       -0.50      1 P:x            10
                                                       -0.50      1 P:x            11
    57      57       --         0.436 au  H             0.50      1 P:y             6
                        (      11.864 eV)              -0.50      1 P:y             7
                                                       -0.50      1 P:y            10
                                                        0.50      1 P:y            11
    58      58       --         0.436 au  H             0.50      1 P:z             6
                        (      11.864 eV)               0.50      1 P:z             7
                                                        0.50      1 P:z            10
                                                        0.50      1 P:z            11
    59      59       --         2.618 au  H             0.50      1 D:z2            6
                        (      71.229 eV)               0.50      1 D:z2            7
                                                        0.50      1 D:z2           10
                                                        0.50      1 D:z2           11
    60      60       --         2.618 au  H             0.50      1 D:x2-y2         6
                        (      71.229 eV)               0.50      1 D:x2-y2         7
                                                        0.50      1 D:x2-y2        10
                                                        0.50      1 D:x2-y2        11
    61      61       --         2.618 au  H             0.50      1 D:xy            6
                        (      71.229 eV)              -0.50      1 D:xy            7
                                                        0.50      1 D:xy           10
                                                       -0.50      1 D:xy           11
    62      62       --         2.618 au  H             0.50      1 D:xz            6
                        (      71.229 eV)               0.50      1 D:xz            7
                                                       -0.50      1 D:xz           10
                                                       -0.50      1 D:xz           11
    63      63       --         2.618 au  H             0.50      1 D:yz            6
                        (      71.229 eV)              -0.50      1 D:yz            7
                                                       -0.50      1 D:yz           10
                                                        0.50      1 D:yz           11
    64      64      1.000      -0.244 au  H             0.50      1 S               8
                        (      -6.641 eV)               0.50      1 S               9
                                                        0.50      1 S              12
                                                        0.50      1 S              13
    65      65       --         0.104 au  H             0.50      2 S               8
                        (       2.836 eV)               0.50      2 S               9
                                                        0.50      2 S              12
                                                        0.50      2 S              13
    66      66       --         1.564 au  H             0.50      3 S               8
                        (      42.568 eV)               0.50      3 S               9
                                                        0.50      3 S              12
                                                        0.50      3 S              13
    67      67       --         0.436 au  H             0.50      1 P:x             8
                        (      11.864 eV)               0.50      1 P:x             9
                                                       -0.50      1 P:x            12
                                                       -0.50      1 P:x            13
    68      68       --         0.436 au  H             0.50      1 P:y             8
                        (      11.864 eV)              -0.50      1 P:y             9
                                                        0.50      1 P:y            12
                                                       -0.50      1 P:y            13
    69      69       --         0.436 au  H             0.50      1 P:z             8
                        (      11.864 eV)               0.50      1 P:z             9
                                                        0.50      1 P:z            12
                                                        0.50      1 P:z            13
    70      70       --         2.618 au  H             0.50      1 D:z2            8
                        (      71.229 eV)               0.50      1 D:z2            9
                                                        0.50      1 D:z2           12
                                                        0.50      1 D:z2           13
    71      71       --         2.618 au  H             0.50      1 D:x2-y2         8
                        (      71.229 eV)               0.50      1 D:x2-y2         9
                                                        0.50      1 D:x2-y2        12
                                                        0.50      1 D:x2-y2        13
    72      72       --         2.618 au  H             0.50      1 D:xy            8
                        (      71.229 eV)              -0.50      1 D:xy            9
                                                       -0.50      1 D:xy           12
                                                        0.50      1 D:xy           13
    73      73       --         2.618 au  H             0.50      1 D:xz            8
                        (      71.229 eV)               0.50      1 D:xz            9
                                                       -0.50      1 D:xz           12
                                                       -0.50      1 D:xz           13
    74      74       --         2.618 au  H             0.50      1 D:yz            8
                        (      71.229 eV)              -0.50      1 D:yz            9
                                                        0.50      1 D:yz           12
                                                       -0.50      1 D:yz           13
    75      75      2.000    -101.573 au  Cl            0.71      1 S              14
                        (   -2763.950 eV)               0.71      1 S              15
    76      76      2.000      -9.507 au  Cl            0.71      2 S              14
                        (    -258.705 eV)               0.71      2 S              15
    77      77      2.000      -0.826 au  Cl            0.71      3 S              14
                        (     -22.469 eV)               0.71      3 S              15
    78      78       --         0.224 au  Cl            0.71      4 S              14
                        (       6.084 eV)               0.71      4 S              15
    79      79       --         2.073 au  Cl            0.71      5 S              14
                        (      56.416 eV)               0.71      5 S              15
    80      80       --        12.919 au  Cl            0.71      6 S              14
                        (     351.531 eV)               0.71      6 S              15
    81      81       --       215.576 au  Cl            0.71      7 S              14
                        (    5866.129 eV)               0.71      7 S              15
    82      82      2.000      -7.261 au  Cl            0.71      1 P:x            14
                        (    -197.594 eV)              -0.71      1 P:x            15
    83      83      1.667      -0.345 au  Cl            0.71      2 P:x            14
                        (      -9.401 eV)              -0.71      2 P:x            15
    84      84       --         0.251 au  Cl            0.71      3 P:x            14
                        (       6.842 eV)              -0.71      3 P:x            15
    85      85       --         2.178 au  Cl            0.71      4 P:x            14
                        (      59.266 eV)              -0.71      4 P:x            15
    86      86       --        19.086 au  Cl            0.71      5 P:x            14
                        (     519.368 eV)              -0.71      5 P:x            15
    87      87      2.000      -7.261 au  Cl            0.71      1 P:z            14
                        (    -197.594 eV)               0.71      1 P:z            15
    88      88      1.667      -0.345 au  Cl            0.71      2 P:z            14
                        (      -9.401 eV)               0.71      2 P:z            15
    89      89       --         0.251 au  Cl            0.71      3 P:z            14
                        (       6.842 eV)               0.71      3 P:z            15
    90      90       --         2.178 au  Cl            0.71      4 P:z            14
                        (      59.266 eV)               0.71      4 P:z            15
    91      91       --        19.086 au  Cl            0.71      5 P:z            14
                        (     519.368 eV)               0.71      5 P:z            15
    92      92       --         0.433 au  Cl            0.71      1 D:z2           14
                        (      11.776 eV)               0.71      1 D:z2           15
    93      93       --         0.433 au  Cl            0.71      1 D:x2-y2        14
                        (      11.776 eV)               0.71      1 D:x2-y2        15
    94      94       --         0.433 au  Cl            0.71      1 D:xz           14
                        (      11.776 eV)              -0.71      1 D:xz           15
    95      95       --         1.240 au  Cl            0.71      1 F:z3           14
                        (      33.755 eV)               0.71      1 F:z3           15
    96      96       --         1.240 au  Cl            0.71      1 F:z            14
                        (      33.755 eV)               0.71      1 F:z            15
    97      97       --         1.240 au  Cl            0.71      1 F:z2x          14
                        (      33.755 eV)              -0.71      1 F:z2x          15
    98      98       --         1.240 au  Cl            0.71      1 F:x            14
                        (      33.755 eV)              -0.71      1 F:x            15



                                       === A2 ===
 Nr. of SFOs :   50
 Cartesian basis functions that participate in this irrep (total number =   156) :
     24    33    45   105    48   108    51   111    57   117
     54   114    67   127    63   123    60    65   120   125
     75   135    78   138    81   141    87   147    84   144
     97   157    93   153    90    95   150   155   159   171
    207   219   160   172   208   220   161   173   209   221
    164   176   212   224   162   163   174   175   210   211
    222   223   170   182   218   230   167   169   179   181
    215   217   227   229   165   166   168   177   178   180
    213   214   216   225   226   228   183   195   231   243
    184   196   232   244   185   197   233   245   188   200
    236   248   186   187   198   199   234   235   246   247
    194   206   242   254   191   193   203   205   239   241
    251   253   189   190   192   201   202   204   237   238
    240   249   250   252   260   298   263   301   269   307
    272   310   275   313   281   319   278   316   291   329
    287   325   284   289   322   327

    SFO  (index         Fragment          Generating    Expansion in Fragment Orbitals
  indx  incl.CFs)   Occup   Orb.Energy   FragmentType  Coeff.   Orbital     on Fragment
 --------------------------------------------------------------------------------------
     1       1       --         0.479 au  S             1.00      1 D:xy            1
                        (      13.042 eV)
     2       2       --         1.328 au  S             1.00      1 F:xyz           1
                        (      36.128 eV)
     3       3      0.667      -0.188 au  C             0.71      1 P:y             2
                        (      -5.110 eV)              -0.71      1 P:y             4
     4       4       --         0.191 au  C             0.71      2 P:y             2
                        (       5.204 eV)              -0.71      2 P:y             4
     5       5       --         2.089 au  C             0.71      3 P:y             2
                        (      56.851 eV)              -0.71      3 P:y             4
     6       6       --         1.292 au  C             0.71      1 D:xy            2
                        (      35.150 eV)               0.71      1 D:xy            4
     7       7       --         1.292 au  C             0.71      1 D:yz            2
                        (      35.150 eV)              -0.71      1 D:yz            4
     8       8       --         4.084 au  C             0.71      1 F:xyz           2
                        (     111.144 eV)               0.71      1 F:xyz           4
     9       9       --         4.084 au  C             0.71      1 F:z2y           2
                        (     111.144 eV)              -0.71      1 F:z2y           4
    10      10       --         4.084 au  C             0.71      1 F:y             2
                        (     111.144 eV)              -0.71      1 F:y             4
    11      11      0.667      -0.188 au  C             0.71      1 P:y             3
                        (      -5.110 eV)              -0.71      1 P:y             5
    12      12       --         0.191 au  C             0.71      2 P:y             3
                        (       5.204 eV)              -0.71      2 P:y             5
    13      13       --         2.089 au  C             0.71      3 P:y             3
                        (      56.851 eV)              -0.71      3 P:y             5
    14      14       --         1.292 au  C             0.71      1 D:xy            3
                        (      35.150 eV)               0.71      1 D:xy            5
    15      15       --         1.292 au  C             0.71      1 D:yz            3
                        (      35.150 eV)              -0.71      1 D:yz            5
    16      16       --         4.084 au  C             0.71      1 F:xyz           3
                        (     111.144 eV)               0.71      1 F:xyz           5
    17      17       --         4.084 au  C             0.71      1 F:z2y           3
                        (     111.144 eV)              -0.71      1 F:z2y           5
    18      18       --         4.084 au  C             0.71      1 F:y             3
                        (     111.144 eV)              -0.71      1 F:y             5
    19      19      1.000      -0.244 au  H             0.50      1 S               6
                        (      -6.641 eV)              -0.50      1 S               7
                                                        0.50      1 S              10
                                                       -0.50      1 S              11
    20      20       --         0.104 au  H             0.50      2 S               6
                        (       2.836 eV)              -0.50      2 S               7
                                                        0.50      2 S              10
                                                       -0.50      2 S              11
    21      21       --         1.564 au  H             0.50      3 S               6
                        (      42.568 eV)              -0.50      3 S               7
                                                        0.50      3 S              10
                                                       -0.50      3 S              11
    22      22       --         0.436 au  H             0.50      1 P:x             6
                        (      11.864 eV)              -0.50      1 P:x             7
                                                       -0.50      1 P:x            10
                                                        0.50      1 P:x            11
    23      23       --         0.436 au  H             0.50      1 P:y             6
                        (      11.864 eV)               0.50      1 P:y             7
                                                       -0.50      1 P:y            10
                                                       -0.50      1 P:y            11
    24      24       --         0.436 au  H             0.50      1 P:z             6
                        (      11.864 eV)              -0.50      1 P:z             7
                                                        0.50      1 P:z            10
                                                       -0.50      1 P:z            11
    25      25       --         2.618 au  H             0.50      1 D:z2            6
                        (      71.229 eV)              -0.50      1 D:z2            7
                                                        0.50      1 D:z2           10
                                                       -0.50      1 D:z2           11
    26      26       --         2.618 au  H             0.50      1 D:x2-y2         6
                        (      71.229 eV)              -0.50      1 D:x2-y2         7
                                                        0.50      1 D:x2-y2        10
                                                       -0.50      1 D:x2-y2        11
    27      27       --         2.618 au  H             0.50      1 D:xy            6
                        (      71.229 eV)               0.50      1 D:xy            7
                                                        0.50      1 D:xy           10
                                                        0.50      1 D:xy           11
    28      28       --         2.618 au  H             0.50      1 D:xz            6
                        (      71.229 eV)              -0.50      1 D:xz            7
                                                       -0.50      1 D:xz           10
                                                        0.50      1 D:xz           11
    29      29       --         2.618 au  H             0.50      1 D:yz            6
                        (      71.229 eV)               0.50      1 D:yz            7
                                                       -0.50      1 D:yz           10
                                                       -0.50      1 D:yz           11
    30      30      1.000      -0.244 au  H             0.50      1 S               8
                        (      -6.641 eV)              -0.50      1 S               9
                                                       -0.50      1 S              12
[...]
                               0.667    -0.175    -0.724
                               0.716    -0.116     0.688
                        -----------------------------------
 
================================================================================
 
 
===  TOTAL NMR SHIELDING TENSOR (ppm)
 
                        ***********************************
                        CARTESIAN AXIS REPRESENTATION

                        ==== total shielding tensor
                        -----------------------------------
                              29.790    -0.895    -1.770
                              -0.895    25.794    -5.061
                              -1.770    -5.061    28.532
                        -----------------------------------
                                  isotropic =     28.039

                        ***********************************
                        -----------------------------------
                        PRINCIPAL AXIS REPRESENTATION

                        ==== Principal components:

                              21.531    29.895    32.691
 
                        ==== Principal Axis System:

                              -0.213     0.925    -0.314
                              -0.765    -0.358    -0.535
                              -0.607     0.126     0.784
                        -----------------------------------
################################################################################
********************************************************************************
****  N U C L E U S : H(13)
 
 ADF-GUI atom: H(13)
 Internal NMR numbering of atoms: H(13)
 
 
================================================================================
 
 
===  PARAMAGNETIC NMR SHIELDING TENSORS (ppm)
 
    ===     paramagnetic b^(1) tensor       ===     paramagnetic u^(1) tensor
    -----------------------------------     -----------------------------------
           0.000     0.000     0.000               4.491   -14.211   -10.380
           0.000     0.000     0.000             -14.211     3.032   -10.186
           0.000     0.000     0.000             -10.380   -10.186     1.438
    -----------------------------------     -----------------------------------
              isotropic =      0.000                  isotropic =      2.987

    ===     paramagnetic s^(1) tensor       ===     paramagnetic gauge tensor
    -----------------------------------     -----------------------------------
          -3.138    14.961     9.907              -0.336    -0.435    -0.235
          14.961    -4.854     9.588              -0.435    -2.050    -0.247
           9.907     9.588    -1.920              -0.235    -0.247     0.062
    -----------------------------------     -----------------------------------
              isotropic =     -3.304                  isotropic =     -0.775

                        ***********************************
                        CARTESIAN AXIS REPRESENTATION

                        ==== total paramagnetic tensor
                        -----------------------------------
                               1.017     0.315    -0.708
                               0.315    -3.871    -0.845
                              -0.708    -0.845    -0.420
                        -----------------------------------
                                  isotropic =     -1.091

                        ***********************************
                        -----------------------------------
                        PRINCIPAL AXIS REPRESENTATION

                        ==== Principal components:

                              -4.071    -0.584     1.381
 
                        ==== Principal Axis System:

                               0.030     0.428    -0.904
                              -0.975    -0.186    -0.120
                              -0.220     0.885     0.411
                        -----------------------------------
 
================================================================================
 
 
===  DIAMAGNETIC NMR SHIELDING TENSORS (ppm)
 
    ===       diamagnetic core tensor       ===    diamagnetic valence tensor
    -----------------------------------     -----------------------------------
           0.000     0.000     0.000              28.773     0.580    -1.062
           0.000     0.000     0.000               0.580    29.666     5.904
           0.000     0.000     0.000              -1.062     5.904    28.952
    -----------------------------------     -----------------------------------
              isotropic =      0.000                  isotropic =     29.130

                        ***********************************
                        CARTESIAN AXIS REPRESENTATION

                        ==== total diamagnetic tensor
                        -----------------------------------
                              28.773     0.580    -1.062
                               0.580    29.666     5.904
                              -1.062     5.904    28.952
                        -----------------------------------
                                  isotropic =     29.130

                        ***********************************
                        -----------------------------------
                        PRINCIPAL AXIS REPRESENTATION

                        ==== Principal components:

                              23.150    29.002    35.239
 
                        ==== Principal Axis System:

                               0.204     0.978     0.048
                              -0.667     0.175    -0.724
                               0.716    -0.116    -0.688
                        -----------------------------------
 
================================================================================
 
 
===  TOTAL NMR SHIELDING TENSOR (ppm)
 
                        ***********************************
                        CARTESIAN AXIS REPRESENTATION

                        ==== total shielding tensor
                        -----------------------------------
                              29.790     0.895    -1.770
                               0.895    25.795     5.060
                              -1.770     5.060    28.532
                        -----------------------------------
                                  isotropic =     28.039

                        ***********************************
                        -----------------------------------
                        PRINCIPAL AXIS REPRESENTATION

                        ==== Principal components:

                              21.532    29.895    32.690
 
                        ==== Principal Axis System:

                               0.213     0.925    -0.314
                              -0.765     0.358     0.535
                               0.607     0.126     0.784
                        -----------------------------------
################################################################################
********************************************************************************
****  N U C L E U S : Cl(14)
 
 ADF-GUI atom: Cl(14)
 Internal NMR numbering of atoms: Cl(14)
 
 
================================================================================
 
 
===  PARAMAGNETIC NMR SHIELDING TENSORS (ppm)
 
    ===     paramagnetic b^(1) tensor       ===     paramagnetic u^(1) tensor
    -----------------------------------     -----------------------------------
           0.000     0.000     0.000            -217.092    -0.218   287.109
           0.000     0.000     0.000              -0.218  -584.170     0.225
           0.000     0.000     0.000             287.109     0.225  -307.508
    -----------------------------------     -----------------------------------
              isotropic =      0.000                  isotropic =   -369.590

    ===     paramagnetic s^(1) tensor       ===     paramagnetic gauge tensor
    -----------------------------------     -----------------------------------
          55.563    -0.000  -127.151              -0.656     0.000     1.136
          -0.000    60.618     0.000               0.000    -2.768    -0.000
        -127.151     0.000     1.318               1.136    -0.000    -3.041
    -----------------------------------     -----------------------------------
              isotropic =     39.166                  isotropic =     -2.155

                        ***********************************
                        CARTESIAN AXIS REPRESENTATION

                        ==== total paramagnetic tensor
                        -----------------------------------
                            -162.185    -0.218   161.094
                              -0.218  -526.320     0.225
                             161.094     0.225  -309.231
                        -----------------------------------
                                  isotropic =   -332.579

                        ***********************************
                        -----------------------------------
                        PRINCIPAL AXIS REPRESENTATION

                        ==== Principal components:

                            -526.321  -412.786   -58.629
 
                        ==== Principal Axis System:

                              -0.002    -0.541    -0.841
                              -1.000     0.003     0.000
                               0.002     0.841    -0.541
                        -----------------------------------
 
================================================================================
 
 
===  DIAMAGNETIC NMR SHIELDING TENSORS (ppm)
 
    ===       diamagnetic core tensor       ===    diamagnetic valence tensor
    -----------------------------------     -----------------------------------
           0.000     0.000     0.000            1149.873     0.000     4.637
           0.000     0.000     0.000               0.000  1142.433    -0.000
           0.000     0.000     0.000               4.637    -0.000  1146.113
    -----------------------------------     -----------------------------------
              isotropic =      0.000                  isotropic =   1146.140

                        ***********************************
                        CARTESIAN AXIS REPRESENTATION

                        ==== total diamagnetic tensor
                        -----------------------------------
                            1149.873     0.000     4.637
                               0.000  1142.433    -0.000
                               4.637    -0.000  1146.113
                        -----------------------------------
                                  isotropic =   1146.140

                        ***********************************
                        -----------------------------------
                        PRINCIPAL AXIS REPRESENTATION

                        ==== Principal components:

                            1142.433  1142.989  1152.997
 
                        ==== Principal Axis System:

                              -0.000    -0.559     0.829
                               1.000    -0.000    -0.000
                               0.000     0.829     0.559
                        -----------------------------------
 
================================================================================
 
 
===  TOTAL NMR SHIELDING TENSOR (ppm)
 
                        ***********************************
                        CARTESIAN AXIS REPRESENTATION

                        ==== total shielding tensor
                        -----------------------------------
                             987.688    -0.218   165.732
                              -0.218   616.113     0.225
                             165.732     0.225   836.882
                        -----------------------------------
                                  isotropic =    813.561

                        ***********************************
                        -----------------------------------
                        PRINCIPAL AXIS REPRESENTATION

                        ==== Principal components:

                             616.112   730.207  1094.364
 
                        ==== Principal Axis System:

                              -0.002    -0.541    -0.841
                              -1.000     0.003     0.000
                               0.002     0.841    -0.541
                        -----------------------------------
################################################################################
********************************************************************************
****  N U C L E U S : Cl(15)
 
 ADF-GUI atom: Cl(15)
 Internal NMR numbering of atoms: Cl(15)
 
 
================================================================================
 
 
===  PARAMAGNETIC NMR SHIELDING TENSORS (ppm)
 
    ===     paramagnetic b^(1) tensor       ===     paramagnetic u^(1) tensor
    -----------------------------------     -----------------------------------
           0.000     0.000     0.000            -216.945     0.000  -287.348
           0.000     0.000     0.000               0.000  -584.583    -0.000
           0.000     0.000     0.000            -287.348    -0.000  -307.953
    -----------------------------------     -----------------------------------
              isotropic =      0.000                  isotropic =   -369.827

    ===     paramagnetic s^(1) tensor       ===     paramagnetic gauge tensor
    -----------------------------------     -----------------------------------
          55.563    -0.000   127.151              -0.656     0.000    -1.136
          -0.000    60.618    -0.000               0.000    -2.768     0.000
         127.151    -0.000     1.318              -1.136     0.000    -3.041
    -----------------------------------     -----------------------------------
              isotropic =     39.166                  isotropic =     -2.155

                        ***********************************
                        CARTESIAN AXIS REPRESENTATION

                        ==== total paramagnetic tensor
                        -----------------------------------
                            -162.038     0.000  -161.334
                               0.000  -526.733    -0.000
                            -161.334    -0.000  -309.676
                        -----------------------------------
                                  isotropic =   -332.816

                        ***********************************
                        -----------------------------------
                        PRINCIPAL AXIS REPRESENTATION

                        ==== Principal components:

                            -526.733  -413.277   -58.438
 
                        ==== Principal Axis System:

                               0.000     0.540    -0.841
                              -1.000    -0.000    -0.000
                              -0.000     0.841     0.540
                        -----------------------------------
 
================================================================================
 
 
===  DIAMAGNETIC NMR SHIELDING TENSORS (ppm)
 
    ===       diamagnetic core tensor       ===    diamagnetic valence tensor
    -----------------------------------     -----------------------------------
           0.000     0.000     0.000            1149.873    -0.000    -4.637
           0.000     0.000     0.000              -0.000  1142.433     0.000
           0.000     0.000     0.000              -4.637     0.000  1146.113
    -----------------------------------     -----------------------------------
              isotropic =      0.000                  isotropic =   1146.140

                        ***********************************
                        CARTESIAN AXIS REPRESENTATION

                        ==== total diamagnetic tensor
                        -----------------------------------
                            1149.873    -0.000    -4.637
                              -0.000  1142.433     0.000
                              -4.637     0.000  1146.113
                        -----------------------------------
                                  isotropic =   1146.140

                        ***********************************
                        -----------------------------------
                        PRINCIPAL AXIS REPRESENTATION

                        ==== Principal components:

                            1142.433  1142.989  1152.997
 
                        ==== Principal Axis System:

                              -0.000     0.559     0.829
                               1.000     0.000    -0.000
                              -0.000     0.829    -0.559
                        -----------------------------------
 
================================================================================
 
 
===  TOTAL NMR SHIELDING TENSOR (ppm)
 
                        ***********************************
                        CARTESIAN AXIS REPRESENTATION

                        ==== total shielding tensor
                        -----------------------------------
                             987.835     0.000  -165.971
                               0.000   615.701    -0.000
                            -165.971    -0.000   836.437
                        -----------------------------------
                                  isotropic =    813.324

                        ***********************************
                        -----------------------------------
                        PRINCIPAL AXIS REPRESENTATION

                        ==== Principal components:

                             615.701   729.717  1094.555
 
                        ==== Principal Axis System:

                               0.000     0.541    -0.841
                              -1.000    -0.000    -0.000
                              -0.000     0.841     0.541
                        -----------------------------------
 *******************************************************************************

                             N M R   E X I T
 NORMAL TERMINATION



 =================
 Timing Statistics
 =================
  
 Total Used :                     CPU=      171.30      System=        3.75     Elapsed=      182.82

 Calls  Section                     ( Mean, Percentage )
 ---------------------------------------------------------------------------------------------------
     3  ><      ................      0.00    0.00             0.00    0.04             0.00    0.00
     1  INIT    ................      0.58    0.34             0.04    1.10             0.62    0.34
     1  RDEIGX  ................     44.74   26.12             0.62   16.58            47.58   26.03
     1  AOF1K   ................      2.48    1.45             0.02    0.43             2.73    1.49
    15  AOPKK   ................      4.58   40.10             0.19   75.14             4.99   40.92
    15  XSIGP   ................      0.03    0.24             0.00    0.69             0.03    0.24
    15  AODKKK  ................      3.62   31.67             0.01    5.49             3.76   30.89
    15  XDV     ................      0.01    0.07             0.00    0.27             0.01    0.08
    15  XSIGD   ................      0.00    0.00             0.00    0.00             0.00    0.00
     1  EXIT PROCEDURE .........      0.00    0.00             0.01    0.27             0.02    0.01


 Currently Open Files (EXIT00)
 ====================

 Unit    Access Format  Status   Type       Ident (file)
 -------------------------------------------------------
   3      SEQ    FORM   TRANSP  NORMAL      LOGFILE
                                          ( /home/milias/Work/projects/open-collection/theoretical_chemistry/projects/nmr_diplomovky/HD/ams/b3lyp_tz2p_good/cosmo-chcl3/HD.geopt_freq_nmr_shield_b3lyp_tz2p_good_cosmo-chcl3.logfile )
