
     Program PWSCF v.7.4.1 starts on 16Apr2025 at 12: 7:36 
        Git branch: develop
        Last git commit: c129e404a1b34e2d280280c5087d1dc05a879a3f-dirty
        Last git commit date: Sun Apr 13 10:22:52 2025 +0000
        Last git commit subject: Merge branch 'matdyn-remove-interaction-blocks' in

     This program is part of the open-source Quantum ESPRESSO suite
     for quantum simulation of materials; please cite
         "P. Giannozzi et al., J. Phys.:Condens. Matter 21 395502 (2009);
         "P. Giannozzi et al., J. Phys.:Condens. Matter 29 465901 (2017);
         "P. Giannozzi et al., J. Chem. Phys. 152 154105 (2020);
          URL http://www.quantum-espresso.org", 
     in publications or presentations arising from this work. More details at
     http://www.quantum-espresso.org/quote

     Parallel version (MPI), running on     8 processors

     MPI processes distributed on     1 nodes
     14872 MiB available memory on the printing compute node when the environment starts

     Waiting for input...
     Reading input from standard input

     Current dimensions of program PWSCF are:
     Max number of different atomic species (ntypx) = 10
     Max number of k-points (npk) =  40000
     Max angular momentum in pseudopotentials (lmaxx) =  4
     Message from routine iosys:
     xdm is obsolete, use "vdw_corr='xdm'" instead

 %%%%%%%%%%%%%%%%%%%%%%%%%%%%%%%%%%%%%%%%%%%%%%%%%%%%%%%%%%%%%%%%%%%%%%%%%%%%%%
     Error in routine setup (1):
     spin orbit requires a non collinear calculation
 %%%%%%%%%%%%%%%%%%%%%%%%%%%%%%%%%%%%%%%%%%%%%%%%%%%%%%%%%%%%%%%%%%%%%%%%%%%%%%

     stopping ...
--------------------------------------------------------------------------
MPI_ABORT was invoked on rank 1 in communicator MPI_COMM_WORLD
with errorcode 1.

NOTE: invoking MPI_ABORT causes Open MPI to kill all MPI processes.
You may or may not see output from other processes, depending on
exactly when Open MPI kills them.
--------------------------------------------------------------------------
[DESKTOP-7OTLCGO:05315] 7 more processes have sent help message help-mpi-api.txt / mpi-abort
[DESKTOP-7OTLCGO:05315] Set MCA parameter "orte_base_help_aggregate" to 0 to see all help / error messages
