

 Parallel Execution: Process Information
 ==============================================================================
 Rank   Node Name                              NodeID   MyNodeRank  NodeMaster
    0   adf1                                      0          0          0
    1   adf1                                      0          1         -1
    2   adf1                                      0          2         -1
    3   adf1                                      0          3         -1
    4   adf1                                      0          4         -1
    5   adf1                                      0          5         -1
    6   adf1                                      1          0          1
    7   adf1                                      1          1         -1
    8   adf1                                      1          2         -1
    9   adf1                                      1          3         -1
   10   adf1                                      1          4         -1
   11   adf1                                      1          5         -1
 ==============================================================================


May use up to 11697MB of RAM as shared memory on node 0
May use up to 11718MB of RAM as shared memory on node 1

 *******************************************************************************
 *                                                                             *
 *  --------------------------------                                           *
 *   Amsterdam Modeling Suite (AMS)              2021.105                      *
 *  --------------------------------                                           *
 *                                               r97261 2021-09-16             *
 *                                                                             *
 *                                                                             *
 *                              =================                              *
 *                              |               |                              *
 *                              |     A M S     |                              *
 *                              |               |                              *
 *                              =================                              *
 *                                                                             *
 *                                                                             *
 *   Online information and documentation:  https://www.scm.com/support/       *
 *   E-mail:  support@scm.com   info@scm.com                                   *
 *                                                                             *
 *   Scientific publications using AMS results must be properly referenced     *
 *   See the User Manuals (or the web site) for recommended citations          *
 *   The terms and conditions of the End User License Agreement apply to       *
 *   the use of AMS, https://www.scm.com/license-terms/                        *
 *                                                                             *
 **********************  x86_64_linux_intel / intelmpi  ************************
 
 Licensed to: Dr. Miroslav Ilias / Matej Bel University, Department Chemistry, Fac. Natural Sciences / Banska Bystrica / SLOVAKIA 2022-03-28 10:04:56
 SCM User ID: u17848
  
 AMS 2021.105  RunTime: Jun02-2022 13:49:45  ShM Nodes: 2  Procs: 12

 AMS jobname: ams
 AMS jobid  : 179851803

 Start   directory: /home/milias/Work/projects/open-collection/theoretical_chemistry/software_runs/ams/runs/adsoptions/Hg_on_small_Quartz-slab/slab/
 Results directory: /home/milias/Work/projects/open-collection/theoretical_chemistry/software_runs/ams/runs/adsoptions/Hg_on_small_Quartz-slab/slab/ams.results/
 Scratch directory: /tmp/amstmp_ams_kid0.179851803/


 Communication costs MPI_COMM_WORLD:      2.770 usec per message,   0.0268 usec per 8-byte item
 Communication costs for intra-node:      1.572 usec per message,   0.0130 usec per 8-byte item

 RNG seed: 1938337056 761800098 467926692 -702371225 -2106915877 -73464377 -137637362 2111563888
       ***************************
       *  GEOMETRY OPTIMIZATION  *
       ***************************

Optimization Method                    Quasi Newton
Optimization Coordinates               Cartesian Coordinates
Optimize lattice                       F
 
 ------------------------------------------------------
 Convergence criteria (Hartree,Angstrom)
 ------------------------------------------------------
 Maximum gradient               0.001000000000
 Maximum rms gradient           0.000666666667
 Maximum step allowed           0.010000000000
 Maximum rms step allowed       0.006666666667
 Maximum energy change allowe   0.000200000000
 Maximum stress energy allowe   0.000500000000
 
Initial model Hessian                  Automatic Hessian
 
------------------------------------
Quasi-Newton Optimizer Parameters
------------------------------------
Hessian Update Method                  BFGS
Maximum number of steps                  250
First GDIIS cycle                          0
Maximum GDIIS vectors                      0
Trust radius (bohr)                        0.200000
Trust radius varies                        T
Constraints converged at all steps         T
Use projector                              T
 
 Rigid motions settings for: old optimizer
 Atomic rotations (x,y,z):     F F F
 Atomic translations (x,y,z):  T T T
 Tolerance:                   1.000000000000000E-006
 
--------
Geometry
--------
Formula: H2O12Si6
Atoms
  Index Symbol   x (angstrom)   y (angstrom)   z (angstrom)
      1      O    -0.56598639    -2.36432854    -2.51245649
      2      O     0.96230696    -0.58010039    -1.18298254
      3      O    -0.94780923     1.22017476    -0.54007638
      4      O     1.49751712    -1.22237874    -3.69772994
      5      O     1.88189510     2.35957226    -1.72717541
      6      O    -1.48372281     0.57373076    -3.05324487
      7     Si     0.94620614    -1.79983645    -2.27474353
      8     Si     0.00000000     0.00000000     0.00000000
      9     Si    -1.50008721     1.79547335    -1.96377073
     10      O     1.88227481    -2.36869287    -6.74993398
     11      O    -1.48381864    -0.58446472    -5.42046003
     12      O     1.50045197     1.21581043    -4.77755386
     13      O    -0.94860849    -1.22674307    -7.93520742
     14      O    -0.56423051     2.35520793    -5.96465290
     15      O     0.96453839     0.56936644    -7.29072236
     16     Si    -1.49991947    -1.80420078    -6.51222101
     17     Si    -2.44612561    -0.00436433    -4.23747749
     18     Si     0.94817399     1.79110902    -6.20124821
     19      H    -0.84048531    -1.95216333    -8.55462233
     20      H     0.96773724    -0.27184228    -6.82816678
 
Lattice vectors (angstrom)
      1     4.89438681     0.00000000     0.00000000
      2     0.00062301     5.38571281     0.00000000
 
Unit cell area (angstrom^2)        26.35976
 
Total System Charge             0.00000
Bonding info available!
 



                     **************************************************************************
                     *  BAND 2021.105  RunTime: Jun02-2022 13:49:46  ShM Nodes: 2  Procs: 12  *
                     **************************************************************************
  

-----------------
Band Engine Input
-----------------

Basis
Type TZP
Core Small
End
XC
GGA revPBE
DISPERSION GRIMME3 BJDAMP
End

 Using automatic Hessian for Cartesian coordinates.
 Using the following basis set files:
 
 O              : /home/milias/Work/software/ams/intel_mpi/ams2021.105/atomicdata/Band/TZP/O.1s
 Si             : /home/milias/Work/software/ams/intel_mpi/ams2021.105/atomicdata/Band/TZP/Si.1s
 H              : /home/milias/Work/software/ams/intel_mpi/ams2021.105/atomicdata/Band/TZP/H

 Settings for Grimme D3 dispersion correction

      damping                        BJ
      s6                          1.000
      s8                          2.355
      a1                          0.524
      a2                          3.502

 Other (technical) parameters

      alpha                      14.000
      version                         4
 



 =====================
 C O N F I N E M E N T
 =====================
  
 Basis functions confinement radius        10.000
 Width                                      1.000
 use shared memory for sandwiching:  F



 ===============================
 M O D E L   P A R A M E T E R S
 ===============================
  
 DENSITY FUNCTIONAL POTENTIAL (scf)
    LDA:                               PW92                                    == Not Default ==
    Gradient Corrections:              PBEc revPBEx                            == Not Default ==
 DENSITY FUNCTIONAL ENERGY (post-scf)
    Gradient Corrections:              Becke88 Perdew86 PW91x PW91c EV93x PW...== Not Default ==

 SPIN  (restricted / unrestr.)
    Molecule:                          Restricted                               

 OTHER ASPECTS
    Relativistic Corrections:          scalar (ZORA,APA)                        

    Nuclear Charge Density Model:      Point Charge Nuclei                      



 ========================
 S. C. F.   O P T I O N S
 ========================
  

 * DIIS settings info for DIRAC   *
    Cond              0.1E+07
    CLarge          20.00
    CHuge           50.00
    DiMix            1.00
    IopPly              1
    NCyDmp              5
    IPrint              0
    Adaptable           F
    Method         diis                
    Dimix Decay fac  1.00

 * DIIS settings info for SCF     *
    Cond              0.1E+07
    CLarge          20.00
    CHuge           20.00
    DiMix            0.20
    IopPly              1
    NCyDmp              1
    IPrint              0
    Adaptable           T
    Method         DIIS                
    Dimix Decay fac  1.00
 growth factor   1.10000000000000     
 shrink factor  0.909090909100000     

    Mix            0.0750
    Degenerate          F
    Edegen          1.0E-04
    SCFRTX           9.90
    Convrg          4.5E-06
    Ncyclx            300
 getinp: use Shared Memory T




                             **  R A D I A L   F U N C T I O N S  **

 TOTAL NR. OF TYPES OF ATOMS                              3




                             ---------------------
                                   T Y P E   1
                             ---------------------

 RADIAL POINTS                                         3000




 ............................ D I R A C ................................

 NUCLEAR CHARGE                                 8.0000               **>  O  <**
 (POINT NUCLEUS)
 VALENCE CHARGE                                 6.0000
 NET CHARGE                                     0.0000

 VALENCE ORBITALS INCLUDED IN THE CRYSTAL BASIS
 NR. OF (RADIAL) CORE FUNCTIONS                 1
 Radial grid       nr of points               3000
                   range                      0.10E-05     0.10E+03
  
  ** SCF-FUNCTIONAL INFO **
    ZORA
    SCALAR
  
 Self consistent error   0.93E-08


  Orbital    Q         E(a.u.)     E(eV)           <R>
 -------------------------------------------------------------------
  1S         2.00    -18.938184       -515.3342   0.199
  2S         2.00     -0.881931        -23.9986   1.138
  2P         4.00     -0.329629         -8.9697   1.266


 targetR   1.26610352404032      expectR   1.26610352404032      sigma
   1.12205503341515      diffuseFactor   1.00000000000000     

 NR. OF RADIAL VALENCE ORBITALS                           7
 NR. OF RADIAL CORE ORBITALS                              1
 NR. OF RADIAL FIT FUNCTIONS                              0




                             ---------------------
                                   T Y P E   2
                             ---------------------

 RADIAL POINTS                                         3000




 ............................ D I R A C ................................

 NUCLEAR CHARGE                                14.0000               **>  Si  <**
 (POINT NUCLEUS)
 VALENCE CHARGE                                12.0000
 NET CHARGE                                     0.0000

 VALENCE ORBITALS INCLUDED IN THE CRYSTAL BASIS
 NR. OF (RADIAL) CORE FUNCTIONS                 1
 Radial grid       nr of points               3000
                   range                      0.10E-05     0.10E+03
  
  ** SCF-FUNCTIONAL INFO **
    ZORA
    SCALAR
  
 Self consistent error   0.94E-08


  Orbital    Q         E(a.u.)     E(eV)           <R>
 -------------------------------------------------------------------
  1S         2.00    -65.794718      -1790.3654   0.111
  2S         2.00     -5.131614       -139.6383   0.567
  2P         6.00     -3.510847        -95.5350   0.537
  3S         2.00     -0.396224        -10.7818   2.167
  3P         2.00     -0.149219         -4.0604   2.794


 targetR   2.79440073131047      expectR   2.79440073131047      sigma
   2.47647316859222      diffuseFactor   1.00000000000000     

 NR. OF RADIAL VALENCE ORBITALS                          11
 NR. OF RADIAL CORE ORBITALS                              1
 NR. OF RADIAL FIT FUNCTIONS                              0




                             ---------------------
                                   T Y P E   3
                             ---------------------

 RADIAL POINTS                                         3000




 ............................ D I R A C ................................

 NUCLEAR CHARGE                                 1.0000               **>  H  <**
 (POINT NUCLEUS)
 VALENCE CHARGE                                 1.0000
 NET CHARGE                                     0.0000

 VALENCE ORBITALS INCLUDED IN THE CRYSTAL BASIS
 Radial grid       nr of points               3000
                   range                      0.10E-05     0.10E+03
  
  ** SCF-FUNCTIONAL INFO **
    ZORA
    SCALAR
  
 Self consistent error   0.31E-08


  Orbital    Q         E(a.u.)     E(eV)           <R>
 -------------------------------------------------------------------
  1S         1.00     -0.240477         -6.5437   1.626


 targetR   1.62599774114983      expectR   1.62599774114983      sigma
   1.44100297893234      diffuseFactor   1.00000000000000     

 NR. OF RADIAL VALENCE ORBITALS                           4
 NR. OF RADIAL CORE ORBITALS                              0
 NR. OF RADIAL FIT FUNCTIONS                              0



 ======================================================
 R A N G E S    F O R    A T O M I C    O R B I T A L S
 ======================================================
  
   --------------------------------------------------------------------------------
                            valence            core valence kinetic    core kinetic
   --------------------------------------------------------------------------------

             Cutoff       1.000E-06       1.000E-06       1.000E-06       1.000E-06
   --------------------------------------------------------------------------------
 
   --------------------------------------------------------------------------------
               Type         valence            core valence kinetic    core kinetic
   --------------------------------------------------------------------------------
                  O           13.84            2.73           14.09            2.77
                 Si           16.95            1.49           17.37            1.50
                  H           15.74            0.00           16.13            0.00
   --------------------------------------------------------------------------------
 



 ====================
 R U N    C O N F I G
 ====================
  
 
 Use Symmetry  .  .  .  .  .  .  .  .  .  .  .  .  .  .  .  .  T
 Calculate gradient of basis  .  .  .  .  .  .  .  .  .  .  .  T
 Calculate sec. der. of basis .  .  .  .  .  .  .  .  .  .  .  F
 Calculate operator T working on basis .  .  .  .  .  .  .  .  T
 Calculate dk-basis  .  .  .  .  .  .  .  .  .  .  .  .  .  .  F
 Calculate gradient of fit .  .  .  .  .  .  .  .  .  .  .  .  T
 Calculate sec. der. of fit.  .  .  .  .  .  .  .  .  .  .  .  T
 Calculate gradient of fit pot.  .  .  .  .  .  .  .  .  .  .  F
 Kin. energy via grad.  .  .  .  .  .  .  .  .  .  .  .  .  .  F
 Turnover rule for xc.  .  .  .  .  .  .  .  .  .  .  .  .  .  F
 Calculate gradient of energy .  .  .  .  .  .  .  .  .  .  .  T
 Calculate analytical strain derivatives  .  .  .  .  .  .  .  F
 Calculate kin. energy density.  .  .  .  .  .  .  .  .  .  .  F
 Calculate nuc. grad of kin. energy density  .  .  .  .  .  .  F
 Calculate der. of density .  .  .  .  .  .  .  .  .  .  .  .  T
 Calculate second der. of density.  .  .  .  .  .  .  .  .  .  T
 Calculate nuc. grad. of density .  .  .  .  .  .  .  .  .  .  T
 Calculate nuc. grad. of grad. density .  .  .  .  .  .  .  .  F
 Exact rho during SCF.  .  .  .  .  .  .  .  .  .  .  .  .  .  T
 Exact grad. rho during SCF.  .  .  .  .  .  .  .  .  .  .  .  F
 Exact grad. rho post SCF  .  .  .  .  .  .  .  .  .  .  .  .  T
 Store history of dens. matrix.  .  .  .  .  .  .  .  .  .  .  T
 Store original Bloch functions  .  .  .  .  .  .  .  .  .  .  F
 Direct fit .  .  .  .  .  .  .  .  .  .  .  .  .  .  .  .  .  F
 Direct basis  .  .  .  .  .  .  .  .  .  .  .  .  .  .  .  .  T
 STO based fitting.  .  .  .  .  .  .  .  .  .  .  .  .  .  .  F
 Zlm fitting.  .  .  .  .  .  .  .  .  .  .  .  .  .  .  .  .  T
 Calculate fragment energy in mol. grid.  .  .  .  .  .  .  .  T
 Map atoms to unit cell .  .  .  .  .  .  .  .  .  .  .  .  .  T
 Print output for radial.  .  .  .  .  .  .  .  .  .  .  .  .  T
 Calculate DOS .  .  .  .  .  .  .  .  .  .  .  .  .  .  .  .  T
 Calculate population analysis.  .  .  .  .  .  .  .  .  .  .  T
 Calculate band structure  .  .  .  .  .  .  .  .  .  .  .  .  F
 Calculate EFG .  .  .  .  .  .  .  .  .  .  .  .  .  .  .  .  F
 Calculate properties.  .  .  .  .  .  .  .  .  .  .  .  .  .  T
 Calculate kinetic energy  .  .  .  .  .  .  .  .  .  .  .  .  T
 Save file tape10 .  .  .  .  .  .  .  .  .  .  .  .  .  .  .  F
 Save file Points .  .  .  .  .  .  .  .  .  .  .  .  .  .  .  F



 ==================================================
 G E O M E T R Y    I N    X - Y - Z    F O R M A T
 ==================================================
  
 O      -0.529501795    -2.249395017     1.858765820
 O       0.998791561    -0.465166861     3.188239770
 O      -0.911324634     1.335108288     3.831145934
 O       1.534001716    -1.107445210     0.673492377
 O       1.918379696     2.474505785     2.644046901
 O      -1.447238210     0.688664290     1.317977443
 O       1.918759406    -2.253759345    -2.378711667
 O      -1.447334046    -0.469531189    -1.049237717
 O       1.536936567     1.330743960    -0.406331552
 O      -0.912123891    -1.111809538    -3.563985110
 O      -0.527745911     2.470141457    -1.593430585
 O       1.001022991     0.684299962    -2.919500044
 Si      0.982690736    -1.684902926     2.096478787
 Si      0.036484596     0.114933527     4.371222313
 Si     -1.463602612     1.910406877     2.407451585
 Si     -1.463434870    -1.689267254    -2.140998699
 Si     -2.409641010     0.110569199     0.133744826
 Si      0.984658589     1.906042549    -1.830025901
 H      -0.804000710    -1.837229798    -4.183400014
 H       1.004221832    -0.156908755    -2.456944467
 VEC1     4.894386807     0.000000000     0.000000000
 VEC2     0.000623008     5.385712814     0.000000000

   Total nr. of atoms:         20





                       2 - D I M E N S I O N A L   C R Y S T A L




   REAL SPACE LATTICE VECTORS                         LENGTH
   --------------------------                         ------
   1)   9.2490506133   0.0000000000                    9.249
   2)   0.0011773145  10.1775222035                   10.178

   ----------------------------------------
   Angles between lattice vectors
   ----------------------------------------

     pair          angle

     2 1            89.993372
 


   K-SPACE LATTICE VECTORS                            LENGTH
   -----------------------                            ------
   1)   0.6793330007  -0.0000785838                    0.679
   2)   0.0000000000   0.6173590371                    0.617


 SMALLEST INTERATOMIC DISTANCE =      1.814137079641
 BeckeGrid: periodic partition function using cells up to order            7



 ===============================
 K - S P A C E   S A M P L I N G
 ===============================
  
 Automatic Regular k-space grid for quality: NORMAL
 
    lattice-vec. size(real space)    size(k-space)   #points   delta-k
               1             9.25             0.68         5     0.170
               2            10.18             0.62         3     0.309
 
             Total nr. of unique k-points     8




 =========
 C E L L S
 =========
  

   Nr. of cells for valence functions:         61



 ===========================
 L I N E A R   S C A L I N G
 ===========================
  
 Neglecting functions
              Valence  1.00E-06
                 Core  1.00E-06
                  Fit  0.00E+00
            Multipole  1.00E-08
   Screening function  3.16E-05



 =========================================
 N U M E R I C A L   I N T E G R A T I O N
 =========================================
  
 Becke grid quality: NORMAL         
  
 Lebedev angular grid order:             min:  11 max:  31
 Nr. of radial points:                   min:  48 max:  73

 Total nr. of points                                 155136
 Block length                                           128
 Nr. of unique blocks                                  1212
 Total nr. of blocks                                   1212

 Percentage dummy points                               0.00%
 Nr. of k-points processed together in baspnt            30
 Nr. of symmetry operators (real space)                   1
 Symmetry operators in k-space                            2



 Total charge,    analytically                          182.000000000000
                  numerically                           181.999657300898
                  relative error                     -0.19E-05

 Valence density, analytically                          146.000000000000
                  numerically                           145.999661355806
                  relative error                     -0.23E-05



 INTEGRATED CHARGE PER ATOM:

  SET      TOTAL CHARGE      REL. ERROR      Valence CHARGE    REL. ERROR
 ------------------------------------------------------------------------
   1       7.9999955836      -0.552E-06      5.9999939853      -0.100E-05
   2       8.0000048326       0.604E-06      6.0000068892       0.115E-05
   3       7.9999798792      -0.252E-05      5.9999795399      -0.341E-05
   4       8.0000121531       0.152E-05      6.0000125968       0.210E-05
   5       7.9999837839      -0.203E-05      5.9999828533      -0.286E-05
   6       8.0000032132       0.402E-06      6.0000034726       0.579E-06
   7       8.0000002031       0.254E-07      5.9999992807      -0.120E-06
   8       7.9999975648      -0.304E-06      5.9999978583      -0.357E-06
   9       8.0000249232       0.312E-05      6.0000254107       0.424E-05
  10       7.9999749884      -0.313E-05      5.9999776847      -0.372E-05
  11       7.9999867501      -0.166E-05      5.9999851629      -0.247E-05
  12       7.9999971801      -0.352E-06      6.0000024261       0.404E-06
  13      13.9999101551      -0.642E-05     11.9999098614      -0.751E-05
  14      14.0000078227       0.559E-06     12.0000074122       0.618E-06
  15      13.9999074324      -0.661E-05     11.9999071432      -0.774E-05
  16      13.9998810418      -0.850E-05     11.9998807473      -0.994E-05
  17      14.0001076676       0.769E-05     12.0001071943       0.893E-05
  18      13.9998759136      -0.886E-05     11.9998756246      -0.104E-04
  19       0.9999840382      -0.160E-04      0.9999840382      -0.160E-04
  20       1.0000221739       0.222E-04      1.0000221739       0.222E-04

 Norms of functions from routine baspnt
 Maximum error in norms     1.800E-04 for function      298
 Minimum accuracy required  1.000E-03

 Norms of functions from routine corpnt
 Maximum error in norms     2.487E-06 for function       12
 Minimum accuracy required  1.000E-03

 Sparseness info - valence
   nr. of functions             366
   max. nr. of functions        357
   min. nr. of functions         54
   avr. nr. of functions        278
   percentage stored           76.0
 

 Sparseness info - core
   nr. of functions              18
   max. nr. of functions         10
   min. nr. of functions          0
   avr. nr. of functions          2
   percentage stored           11.1
 

 Frozen core overlap error  2.49E-06
 PrepareHam: needLdotB F



 ========================
 Density Fitting (zlmFit)
 ========================
  
 ZlmFit Fit Quality: NORMAL         
  
 Max L-expansion:                        min:   5 max:   7
 Nr. of radial interpolation points:     min:  36 max:  63
 BeckeGrid: periodic partition function using cells up to order            6
 BeckeGrid: periodic partition function using cells up to order            6



                                          *******************************
                                          *  S C F   P R O C E D U R E  *
                                          *******************************
  

 Nr. of basis functions                  366
 Nr. of core functions                    18
 Nr. of fit functions                      0
 Nr. of symmetry unique K-points           8
 Valence charge                          146.00

 CONVERGENCE REACHED



                                             *************************
                                             *  P R O P E R T I E S  *
                                             *************************
  



 ===================================
 B A N D   E N E R G Y   R A N G E S
 ===================================
  
 The energies below are in Hartree.
 =================================================
       band          min          max   occupation
 =================================================
         25     -1.00777     -0.99115      2.00000
         26     -0.99749     -0.98101      2.00000
         27     -0.98914     -0.96746      2.00000
         28     -0.97631     -0.95836      2.00000
         29     -0.95989     -0.95576      2.00000
         30     -0.94983     -0.94302      2.00000
         31     -0.94623     -0.93765      2.00000
         32     -0.93962     -0.93723      2.00000
         33     -0.93721     -0.93643      2.00000
         34     -0.93692     -0.93411      2.00000
         35     -0.93430     -0.93244      2.00000
         36     -0.93217     -0.93060      2.00000
         37     -0.62327     -0.59605      2.00000
         38     -0.59896     -0.57733      2.00000
         39     -0.58604     -0.54658      2.00000
         40     -0.56213     -0.52998      2.00000
         41     -0.53180     -0.51223      2.00000
         42     -0.52417     -0.50208      2.00000
         43     -0.50704     -0.49554      2.00000
         44     -0.49534     -0.48811      2.00000
         45     -0.49253     -0.48347      2.00000
         46     -0.48537     -0.47900      2.00000
         47     -0.47803     -0.47159      2.00000
         48     -0.46744     -0.45899      2.00000
         49     -0.42442     -0.41296      2.00000
         50     -0.42032     -0.40655      2.00000
         51     -0.41081     -0.40370      2.00000
         52     -0.40325     -0.39755      2.00000
         53     -0.39714     -0.38974      2.00000
         54     -0.39084     -0.38224      2.00000
         55     -0.38767     -0.37900      2.00000
         56     -0.37876     -0.37344      2.00000
         57     -0.37328     -0.36628      2.00000
         58     -0.36954     -0.36207      2.00000
         59     -0.36426     -0.35617      2.00000
         60     -0.35933     -0.35307      2.00000
         61     -0.35573     -0.34681      2.00000
         62     -0.34780     -0.34218      2.00000
         63     -0.34471     -0.33927      2.00000
         64     -0.33888     -0.33548      2.00000
         65     -0.33367     -0.32760      2.00000
         66     -0.33106     -0.32407      2.00000
         67     -0.32723     -0.31746      2.00000
         68     -0.32574     -0.31443      2.00000
         69     -0.31724     -0.30868      2.00000
         70     -0.31184     -0.30224      2.00000
         71     -0.30657     -0.30045      2.00000
         72     -0.28979     -0.28239      2.00000
         73     -0.23226     -0.22361      2.00000
         74     -0.09946     -0.09499      0.00000
         75     -0.07430     -0.00728      0.00000
         76     -0.04042      0.00220      0.00000
         77     -0.00351      0.02666      0.00000
         78      0.01285      0.02898      0.00000
         79      0.02538      0.03428      0.00000
         80      0.03700      0.04660      0.00000
         81      0.03918      0.05212      0.00000
         82      0.05316      0.06140      0.00000
         83      0.05935      0.06550      0.00000
         84      0.06705      0.07323      0.00000
         85      0.07478      0.08555      0.00000
         86      0.07560      0.08712      0.00000
         87      0.08523      0.09567      0.00000
         88      0.09122      0.10401      0.00000
         89      0.09651      0.11064      0.00000
         90      0.10402      0.11571      0.00000
         91      0.10982      0.12556      0.00000
         92      0.11586      0.13896      0.00000
         93      0.12284      0.14414      0.00000
         94      0.12786      0.15189      0.00000
         95      0.13224      0.15313      0.00000
         96      0.13916      0.16023      0.00000
         97      0.14580      0.17058      0.00000
         98      0.15121      0.17681      0.00000
         99      0.15545      0.18093      0.00000
        100      0.16396      0.19185      0.00000
        101      0.17370      0.20086      0.00000
        102      0.18163      0.21481      0.00000
        103      0.21014      0.22736      0.00000
        104      0.21657      0.23216      0.00000
        105      0.22531      0.24534      0.00000
        106      0.23465      0.26615      0.00000
        107      0.24780      0.27294      0.00000
        108      0.25596      0.28889      0.00000
        109      0.26637      0.29294      0.00000
        110      0.27713      0.30589      0.00000
        111      0.28719      0.31024      0.00000
        112      0.29316      0.32467      0.00000
        113      0.31392      0.32807      0.00000
        114      0.32148      0.33923      0.00000
        115      0.33235      0.34878      0.00000
        116      0.33645      0.36146      0.00000
        117      0.34894      0.36931      0.00000
        118      0.35442      0.38368      0.00000
        119      0.36039      0.38637      0.00000
        120      0.36844      0.39604      0.00000
        121      0.38578      0.42051      0.00000
        122      0.39942      0.42375      0.00000
        123      0.40838      0.43454      0.00000
        124      0.42452      0.44603      0.00000
        125      0.43411      0.45260      0.00000
        126      0.45057      0.45873      0.00000
        127      0.45828      0.46996      0.00000
        128      0.46806      0.48760      0.00000
        129      0.48646      0.50862      0.00000
        130      0.50077      0.52198      0.00000
        131      0.51010      0.53751      0.00000
        132      0.52734      0.54670      0.00000
        133      0.53876      0.55991      0.00000
        134      0.56199      0.57735      0.00000
        135      0.57767      0.58966      0.00000
        136      0.59280      0.60812      0.00000
        137      0.60270      0.61764      0.00000
        138      0.61238      0.63243      0.00000
        139      0.62059      0.65318      0.00000
        140      0.63312      0.68214      0.00000
        141      0.64726      0.69173      0.00000
        142      0.65610      0.69969      0.00000
        143      0.67405      0.70576      0.00000
        144      0.68702      0.70794      0.00000
        145      0.69404      0.71875      0.00000
        146      0.70141      0.72848      0.00000
        147      0.71656      0.73791      0.00000
        148      0.72426      0.74987      0.00000
        149      0.73207      0.76015      0.00000
        150      0.74701      0.76312      0.00000
        151      0.75797      0.77082      0.00000
        152      0.76213      0.77545      0.00000
        153      0.77368      0.78705      0.00000
        154      0.77579      0.79151      0.00000
        155      0.78538      0.80872      0.00000
        156      0.79414      0.81428      0.00000
        157      0.80164      0.81511      0.00000
        158      0.81518      0.82699      0.00000
        159      0.81824      0.83427      0.00000
        160      0.82542      0.84040      0.00000
 =================================================
 Dispersion                                                   -0.16233266      -4.4173     -101.87
 Final bond energy (SCF)                                      -5.18753346    -141.1600    -3255.23


 Constraint values: difference between the actual and the fixed coord values, a.u.
 =================================================================================

 Index  Constr. value     Atom indices
 ------------- NON-BLOCK constraints -------------------
     1    0.00000E+00     8
     2    0.00000E+00     8
     3    0.00000E+00     8
 -------------------------------------------------------
 
----------------------------------------------------------------------
Geometry Convergence after Step   1       (Hartree/Angstrom,Angstrom)
----------------------------------------------------------------------
current energy                               -5.18753346 Hartree
energy change                      -5.18753346     0.00020000    F
constrained gradient max            0.04062698     0.00100000    F
constrained gradient rms            0.01111769     0.00066667    F
gradient max                        0.08923513
gradient rms                        0.01640605
cart. step max                      0.05758955     0.01000000    F
cart. step rms                      0.01366324     0.00666667    F
 
 
--------
Geometry
--------
Formula: H2O12Si6
Atoms
  Index Symbol   x (angstrom)   y (angstrom)   z (angstrom)
      1      O    -0.56760403    -2.35792892    -2.52983499
      2      O     0.95666172    -0.57471969    -1.21572154
      3      O    -0.94752154     1.23405689    -0.55510167
      4      O     1.50407048    -1.22692431    -3.71900883
      5      O     1.87957346     2.36278484    -1.73952474
      6      O    -1.47723698     0.57218585    -3.05756306
      7     Si     0.94704182    -1.80048351    -2.29909853
      8     Si     0.00000000     0.00000000     0.00000000
      9     Si    -1.50190362     1.80270641    -1.98160000
     10      O     1.86538308    -2.35967336    -6.73046734
     11      O    -1.48088892    -0.58338795    -5.43043517
     12      O     1.49965795     1.21294324    -4.75802483
     13      O    -0.95460088    -1.23210404    -7.94036498
     14      O    -0.56908640     2.35180188    -5.95230480
     15      O     0.98413219     0.59650894    -7.30782866
     16     Si    -1.50394398    -1.81120447    -6.51151782
     17     Si    -2.43772165    -0.00432823    -4.24005060
     18     Si     0.94510731     1.78669306    -6.18459551
     19      H    -0.83865850    -1.95476291    -8.57889023
     20      H     0.95344860    -0.28092575    -6.88575633
 
Lattice vectors (angstrom)
      1     4.89438681     0.00000000     0.00000000
      2     0.00062301     5.38571281     0.00000000
 
Unit cell area (angstrom^2)        26.35976
 
Total System Charge             0.00000
Bonding info available!
 

 Settings for Grimme D3 dispersion correction

      damping                        BJ
      s6                          1.000
      s8                          2.355
      a1                          0.524
      a2                          3.502

 Other (technical) parameters

      alpha                      14.000
      version                         4
 
 K-points configuration loaded from previous results: GOStep1.rkf



                                          *******************************
                                          *  S C F   P R O C E D U R E  *
                                          *******************************
  

 Nr. of basis functions                  366
 Nr. of core functions                    18
 Nr. of fit functions                      0
 Nr. of symmetry unique K-points           8
 Valence charge                          146.00

 CONVERGENCE REACHED



                                             *************************
                                             *  P R O P E R T I E S  *
                                             *************************
  



 ===================================
 B A N D   E N E R G Y   R A N G E S
 ===================================
  
 The energies below are in Hartree.
 =================================================
       band          min          max   occupation
 =================================================
         25     -1.00466     -0.98829      2.00000
         26     -0.99354     -0.97705      2.00000
         27     -0.98630     -0.96404      2.00000
         28     -0.97232     -0.95409      2.00000
         29     -0.95640     -0.95135      2.00000
         30     -0.94434     -0.93868      2.00000
         31     -0.94166     -0.93464      2.00000
         32     -0.93536     -0.93376      2.00000
         33     -0.93448     -0.93300      2.00000
         34     -0.93395     -0.93034      2.00000
         35     -0.92981     -0.92818      2.00000
         36     -0.92810     -0.92740      2.00000
         37     -0.61940     -0.59248      2.00000
         38     -0.59530     -0.57326      2.00000
         39     -0.58277     -0.54290      2.00000
         40     -0.55875     -0.52686      2.00000
         41     -0.52802     -0.50922      2.00000
         42     -0.51989     -0.49944      2.00000
         43     -0.50375     -0.49237      2.00000
         44     -0.49252     -0.48505      2.00000
         45     -0.48910     -0.48055      2.00000
         46     -0.48085     -0.47516      2.00000
         47     -0.47415     -0.46661      2.00000
         48     -0.46492     -0.45610      2.00000
         49     -0.42019     -0.40992      2.00000
         50     -0.41696     -0.40278      2.00000
         51     -0.40735     -0.40040      2.00000
         52     -0.39924     -0.39266      2.00000
         53     -0.39296     -0.38686      2.00000
         54     -0.38746     -0.37757      2.00000
         55     -0.38404     -0.37575      2.00000
         56     -0.37542     -0.37047      2.00000
         57     -0.36995     -0.36300      2.00000
         58     -0.36472     -0.35776      2.00000
         59     -0.36037     -0.35264      2.00000
         60     -0.35545     -0.34902      2.00000
         61     -0.35213     -0.34359      2.00000
         62     -0.34434     -0.33878      2.00000
         63     -0.34090     -0.33560      2.00000
         64     -0.33556     -0.33183      2.00000
         65     -0.33041     -0.32480      2.00000
         66     -0.32830     -0.32165      2.00000
         67     -0.32381     -0.31454      2.00000
         68     -0.32175     -0.31162      2.00000
         69     -0.31584     -0.30527      2.00000
         70     -0.30977     -0.29940      2.00000
         71     -0.30389     -0.29828      2.00000
         72     -0.28741     -0.28025      2.00000
         73     -0.23434     -0.22608      2.00000
         74     -0.10067     -0.09591      0.00000
         75     -0.07217     -0.00815      0.00000
         76     -0.03827      0.00173      0.00000
         77     -0.00147      0.02889      0.00000
         78      0.01253      0.03192      0.00000
         79      0.02681      0.03648      0.00000
         80      0.03799      0.04917      0.00000
         81      0.04139      0.05491      0.00000
         82      0.05471      0.06470      0.00000
         83      0.06274      0.06779      0.00000
         84      0.07025      0.07619      0.00000
         85      0.07728      0.08705      0.00000
         86      0.07941      0.09014      0.00000
         87      0.08751      0.09793      0.00000
         88      0.09425      0.10725      0.00000
         89      0.09849      0.11404      0.00000
         90      0.10646      0.11831      0.00000
         91      0.11369      0.12836      0.00000
         92      0.11876      0.13935      0.00000
         93      0.12308      0.14652      0.00000
         94      0.12996      0.15368      0.00000
         95      0.13296      0.15539      0.00000
         96      0.14101      0.16238      0.00000
         97      0.14725      0.17197      0.00000
         98      0.15206      0.17957      0.00000
         99      0.15778      0.18184      0.00000
        100      0.16659      0.19265      0.00000
        101      0.17583      0.20073      0.00000
        102      0.18192      0.21648      0.00000
        103      0.21132      0.22602      0.00000
        104      0.21887      0.23103      0.00000
        105      0.22152      0.24608      0.00000
        106      0.23609      0.26787      0.00000
        107      0.25026      0.27558      0.00000
        108      0.25812      0.29096      0.00000
        109      0.26958      0.29458      0.00000
        110      0.27979      0.30762      0.00000
        111      0.28969      0.31395      0.00000
        112      0.29527      0.32696      0.00000
        113      0.31568      0.32971      0.00000
        114      0.32515      0.34166      0.00000
        115      0.33285      0.35096      0.00000
        116      0.33868      0.36503      0.00000
        117      0.35044      0.37243      0.00000
        118      0.35790      0.38529      0.00000
        119      0.36089      0.38971      0.00000
        120      0.37150      0.39700      0.00000
        121      0.38803      0.42262      0.00000
        122      0.40094      0.42576      0.00000
        123      0.41211      0.43619      0.00000
        124      0.42644      0.44886      0.00000
        125      0.43507      0.45501      0.00000
        126      0.45108      0.46041      0.00000
        127      0.45982      0.47225      0.00000
        128      0.46795      0.48961      0.00000
        129      0.48828      0.50950      0.00000
        130      0.50237      0.52217      0.00000
        131      0.51429      0.53842      0.00000
        132      0.52963      0.54553      0.00000
        133      0.54112      0.56106      0.00000
        134      0.56318      0.57955      0.00000
        135      0.57934      0.59032      0.00000
        136      0.59554      0.61164      0.00000
        137      0.60392      0.61913      0.00000
        138      0.61495      0.62991      0.00000
        139      0.62295      0.65503      0.00000
        140      0.63410      0.68495      0.00000
        141      0.64911      0.69448      0.00000
        142      0.65984      0.69970      0.00000
        143      0.67646      0.70656      0.00000
        144      0.68705      0.71156      0.00000
        145      0.69579      0.72167      0.00000
        146      0.70406      0.73198      0.00000
        147      0.71744      0.73735      0.00000
        148      0.72679      0.75015      0.00000
        149      0.73602      0.76234      0.00000
        150      0.74989      0.76703      0.00000
        151      0.75997      0.77164      0.00000
        152      0.76219      0.77935      0.00000
        153      0.77441      0.78779      0.00000
        154      0.77884      0.79349      0.00000
        155      0.78785      0.80854      0.00000
        156      0.79654      0.81532      0.00000
        157      0.80340      0.81811      0.00000
        158      0.81657      0.82651      0.00000
        159      0.82099      0.83427      0.00000
        160      0.82894      0.84077      0.00000
        161      0.83476      0.85300      0.00000
        162      0.84376      0.86103      0.00000
 =================================================
 Dispersion                                                   -0.16269608      -4.4272     -102.09
 Final bond energy (SCF)                                      -5.19249734    -141.2950    -3258.34

 dE(predicted):    -0.43229E-02, dE(actual):    -0.49639E-02, Trust radius:    0.400000, all in a.u.


 Constraint values: difference between the actual and the fixed coord values, a.u.
 =================================================================================

 Index  Constr. value     Atom indices
 ------------- NON-BLOCK constraints -------------------
     1    0.00000E+00     8
     2    0.00000E+00     8
     3    0.00000E+00     8
 -------------------------------------------------------
 
----------------------------------------------------------------------
Geometry Convergence after Step   2       (Hartree/Angstrom,Angstrom)
----------------------------------------------------------------------
current energy                               -5.19249734 Hartree
energy change                      -0.00496388     0.00020000    F
constrained gradient max            0.02262440     0.00100000    F
constrained gradient rms            0.00580540     0.00066667    F
gradient max                        0.06217832
gradient rms                        0.01014476
cart. step max                      0.13722735     0.01000000    F
cart. step rms                      0.02732654     0.00666667    F
 
 
--------
Geometry
--------
Formula: H2O12Si6
Atoms
  Index Symbol   x (angstrom)   y (angstrom)   z (angstrom)
      1      O    -0.56921062    -2.35113453    -2.56436137
      2      O     0.93824331    -0.55849222    -1.27137382
      3      O    -0.94141660     1.25493723    -0.57806390
      4      O     1.51798014    -1.24211760    -3.75907445
      5      O     1.88016378     2.36991515    -1.76208133
      6      O    -1.46864118     0.56615562    -3.07201014
      7     Si     0.94824088    -1.79863668    -2.33935949
      8     Si     0.00000000     0.00000000     0.00000000
      9     Si    -1.50086823     1.80978221    -2.01246678
     10      O     1.83613598    -2.33454746    -6.69511275
     11      O    -1.47117154    -0.57597940    -5.45180008
     12      O     1.49077632     1.20724579    -4.73952768
     13      O    -0.95816361    -1.24980887    -7.94397889
     14      O    -0.58176586     2.34045239    -5.93153415
     15      O     1.01967368     0.64936242    -7.35336647
     16     Si    -1.51004237    -1.82469453    -6.50695571
     17     Si    -2.42714886    -0.00620664    -4.25415583
     18     Si     0.93704486     1.78114889    -6.16870339
     19      H    -0.83273778    -1.95868553    -8.60310297
     20      H     0.90910540    -0.27964027    -7.02298369
 
Lattice vectors (angstrom)
      1     4.89438681     0.00000000     0.00000000
      2     0.00062301     5.38571281     0.00000000
 
Unit cell area (angstrom^2)        26.35976
 
Total System Charge             0.00000
Bonding info available!
 

 Settings for Grimme D3 dispersion correction

      damping                        BJ
      s6                          1.000
      s8                          2.355
      a1                          0.524
      a2                          3.502

 Other (technical) parameters

      alpha                      14.000
      version                         4
 
 K-points configuration loaded from previous results: GOStep2.rkf



                                          *******************************
                                          *  S C F   P R O C E D U R E  *
                                          *******************************
  

 Nr. of basis functions                  366
 Nr. of core functions                    18
 Nr. of fit functions                      0
 Nr. of symmetry unique K-points           8
 Valence charge                          146.00

 CONVERGENCE REACHED



                                             *************************
                                             *  P R O P E R T I E S  *
                                             *************************
  



 ===================================
 B A N D   E N E R G Y   R A N G E S
 ===================================
  
 The energies below are in Hartree.
 =================================================
       band          min          max   occupation
 =================================================
         25     -0.99926     -0.98327      2.00000
         26     -0.98736     -0.97049      2.00000
         27     -0.98120     -0.95879      2.00000
         28     -0.96588     -0.94886      2.00000
         29     -0.95135     -0.94454      2.00000
         30     -0.93673     -0.93267      2.00000
         31     -0.93568     -0.92969      2.00000
         32     -0.93020     -0.92789      2.00000
         33     -0.92900     -0.92710      2.00000
         34     -0.92843     -0.92438      2.00000
         35     -0.92383     -0.92181      2.00000
         36     -0.92063     -0.91817      2.00000
         37     -0.61286     -0.58646      2.00000
         38     -0.58938     -0.56659      2.00000
         39     -0.57705     -0.53687      2.00000
         40     -0.55341     -0.52298      2.00000
         41     -0.52163     -0.50597      2.00000
         42     -0.51287     -0.49542      2.00000
         43     -0.49889     -0.48825      2.00000
         44     -0.48717     -0.47971      2.00000
         45     -0.48296     -0.47495      2.00000
         46     -0.47432     -0.46946      2.00000
         47     -0.46815     -0.46080      2.00000
         48     -0.45897     -0.45147      2.00000
         49     -0.41335     -0.40428      2.00000
         50     -0.41092     -0.39673      2.00000
         51     -0.40165     -0.39468      2.00000
         52     -0.39240     -0.38538      2.00000
         53     -0.38791     -0.38181      2.00000
         54     -0.38260     -0.37043      2.00000
         55     -0.37780     -0.37007      2.00000
         56     -0.37052     -0.36433      2.00000
         57     -0.36482     -0.35823      2.00000
         58     -0.35840     -0.35087      2.00000
         59     -0.35481     -0.34747      2.00000
         60     -0.34926     -0.34458      2.00000
         61     -0.34600     -0.33804      2.00000
         62     -0.33881     -0.33361      2.00000
         63     -0.33437     -0.33007      2.00000
         64     -0.32980     -0.32635      2.00000
         65     -0.32509     -0.32115      2.00000
         66     -0.32314     -0.31789      2.00000
         67     -0.31825     -0.30992      2.00000
         68     -0.31452     -0.30620      2.00000
         69     -0.31242     -0.30015      2.00000
         70     -0.30465     -0.29579      2.00000
         71     -0.29968     -0.29318      2.00000
         72     -0.28429     -0.27770      2.00000
         73     -0.23721     -0.22951      2.00000
         74     -0.10206     -0.09662      0.00000
         75     -0.06877     -0.01043      0.00000
         76     -0.03467      0.00322      0.00000
         77      0.00180      0.03146      0.00000
         78      0.01211      0.03594      0.00000
         79      0.02907      0.04042      0.00000
         80      0.04002      0.05364      0.00000
         81      0.04571      0.05899      0.00000
         82      0.05730      0.06850      0.00000
         83      0.06768      0.07220      0.00000
         84      0.07480      0.08049      0.00000
         85      0.08027      0.08871      0.00000
         86      0.08517      0.09478      0.00000
         87      0.09182      0.10090      0.00000
         88      0.09819      0.11137      0.00000
         89      0.10343      0.11881      0.00000
         90      0.11064      0.12338      0.00000
         91      0.11763      0.13245      0.00000
         92      0.12267      0.13931      0.00000
         93      0.12390      0.14960      0.00000
         94      0.13409      0.15633      0.00000
         95      0.13537      0.15886      0.00000
         96      0.14179      0.16529      0.00000
         97      0.15094      0.17635      0.00000
         98      0.15482      0.18357      0.00000
         99      0.16221      0.18632      0.00000
        100      0.16960      0.19734      0.00000
        101      0.17996      0.20262      0.00000
        102      0.18280      0.21866      0.00000
        103      0.21024      0.22539      0.00000
        104      0.21530      0.23303      0.00000
        105      0.22417      0.24792      0.00000
        106      0.24030      0.27141      0.00000
        107      0.25493      0.28036      0.00000
        108      0.26186      0.29290      0.00000
        109      0.27474      0.29701      0.00000
        110      0.28355      0.31094      0.00000
        111      0.29495      0.32037      0.00000
        112      0.29939      0.32992      0.00000
        113      0.31944      0.33351      0.00000
        114      0.33275      0.34481      0.00000
        115      0.33548      0.35591      0.00000
        116      0.34212      0.36951      0.00000
        117      0.35317      0.37617      0.00000
        118      0.36245      0.38828      0.00000
        119      0.36525      0.39603      0.00000
        120      0.37797      0.39962      0.00000
        121      0.39089      0.42510      0.00000
        122      0.40491      0.43020      0.00000
        123      0.41780      0.43781      0.00000
        124      0.42721      0.45188      0.00000
        125      0.43945      0.45802      0.00000
        126      0.45246      0.46490      0.00000
        127      0.46300      0.47619      0.00000
        128      0.47024      0.49251      0.00000
        129      0.49033      0.50955      0.00000
        130      0.50492      0.52193      0.00000
        131      0.51963      0.53820      0.00000
        132      0.53248      0.54367      0.00000
        133      0.54398      0.56441      0.00000
        134      0.56408      0.58301      0.00000
        135      0.57922      0.59200      0.00000
        136      0.59796      0.61653      0.00000
        137      0.60518      0.62310      0.00000
        138      0.61844      0.63064      0.00000
        139      0.62942      0.65696      0.00000
        140      0.63504      0.68750      0.00000
        141      0.65359      0.69612      0.00000
        142      0.66303      0.69856      0.00000
        143      0.67944      0.70537      0.00000
        144      0.68406      0.71576      0.00000
        145      0.69728      0.72128      0.00000
        146      0.70664      0.73569      0.00000
        147      0.71859      0.74467      0.00000
        148      0.73118      0.74642      0.00000
        149      0.74172      0.76180      0.00000
        150      0.75330      0.77044      0.00000
        151      0.75891      0.77290      0.00000
        152      0.76693      0.78608      0.00000
        153      0.77260      0.78978      0.00000
        154      0.78364      0.79607      0.00000
        155      0.79172      0.80665      0.00000
        156      0.79869      0.81881      0.00000
        157      0.80614      0.82099      0.00000
        158      0.81939      0.82670      0.00000
        159      0.82506      0.83769      0.00000
        160      0.83353      0.84745      0.00000
        161      0.83940      0.85643      0.00000
 =================================================
 Dispersion                                                   -0.16316618      -4.4400     -102.39
 Final bond energy (SCF)                                      -5.19769219    -141.4364    -3261.60

 dE(predicted):    -0.52454E-02, dE(actual):    -0.51949E-02, Trust radius:    0.800000, all in a.u.


 Constraint values: difference between the actual and the fixed coord values, a.u.
 =================================================================================

 Index  Constr. value     Atom indices
 ------------- NON-BLOCK constraints -------------------
     1    0.00000E+00     8
     2    0.00000E+00     8
     3    0.00000E+00     8
 -------------------------------------------------------
 
----------------------------------------------------------------------
Geometry Convergence after Step   3       (Hartree/Angstrom,Angstrom)
----------------------------------------------------------------------
current energy                               -5.19769219 Hartree
energy change                      -0.00519486     0.00020000    F
constrained gradient max            0.02727817     0.00100000    F
constrained gradient rms            0.00644903     0.00066667    F
gradient max                        0.02727817
gradient rms                        0.00742944
cart. step max                      0.21167088     0.01000000    F
cart. step rms                      0.04080489     0.00666667    F
 
 
--------
Geometry
--------
Formula: H2O12Si6
Atoms
  Index Symbol   x (angstrom)   y (angstrom)   z (angstrom)
      1      O    -0.56491797    -2.35081652    -2.60598757
      2      O     0.91772860    -0.54712220    -1.30880710
      3      O    -0.93433141     1.26083125    -0.60620581
      4      O     1.52766324    -1.25143534    -3.80224216
      5      O     1.88757990     2.37918147    -1.79458399
      6      O    -1.47268432     0.56761637    -3.11293875
      7     Si     0.95108227    -1.79169584    -2.37673010
      8     Si     0.00000000     0.00000000     0.00000000
      9     Si    -1.49506445     1.80997663    -2.04952275
     10      O     1.79537025    -2.29879765    -6.69676635
     11      O    -1.47090211    -0.56040792    -5.49624779
     12      O     1.46326323     1.19749252    -4.78222192
     13      O    -0.96519760    -1.27063400    -7.96795997
     14      O    -0.61626185     2.33074011    -5.94744670
     15      O     1.00757495     0.73111378    -7.47068698
     16     Si    -1.53321737    -1.82882239    -6.52693832
     17     Si    -2.43215754    -0.00243503    -4.29772571
     18     Si     0.90788195     1.78756788    -6.20726052
     19      H    -0.83254870    -1.97408824    -8.63113383
     20      H     0.85541261    -0.22940993    -7.23465457
 
Lattice vectors (angstrom)
      1     4.89438681     0.00000000     0.00000000
      2     0.00062301     5.38571281     0.00000000
 
Unit cell area (angstrom^2)        26.35976
 
Total System Charge             0.00000
Bonding info available!
 

 Settings for Grimme D3 dispersion correction

      damping                        BJ
      s6                          1.000
      s8                          2.355
      a1                          0.524
      a2                          3.502

 Other (technical) parameters

      alpha                      14.000
      version                         4
 
 K-points configuration loaded from previous results: GOStep3.rkf



                                          *******************************
                                          *  S C F   P R O C E D U R E  *
                                          *******************************
  

 Nr. of basis functions                  366
 Nr. of core functions                    18
 Nr. of fit functions                      0
 Nr. of symmetry unique K-points           8
 Valence charge                          146.00

 CONVERGENCE REACHED



                                             *************************
                                             *  P R O P E R T I E S  *
                                             *************************
  



 ===================================
 B A N D   E N E R G Y   R A N G E S
 ===================================
  
 The energies below are in Hartree.
 =================================================
       band          min          max   occupation
 =================================================
         25     -0.99504     -0.97940      2.00000
         26     -0.98305     -0.96637      2.00000
         27     -0.97696     -0.95518      2.00000
         28     -0.96091     -0.94556      2.00000
         29     -0.94794     -0.94103      2.00000
         30     -0.93408     -0.92880      2.00000
         31     -0.93072     -0.92554      2.00000
         32     -0.92614     -0.92379      2.00000
         33     -0.92500     -0.92287      2.00000
         34     -0.92367     -0.92003      2.00000
         35     -0.91909     -0.91642      2.00000
         36     -0.91548     -0.91256      2.00000
         37     -0.60883     -0.58262      2.00000
         38     -0.58543     -0.56269      2.00000
         39     -0.57339     -0.53283      2.00000
         40     -0.54966     -0.52063      2.00000
         41     -0.51735     -0.50344      2.00000
         42     -0.50892     -0.49160      2.00000
         43     -0.49577     -0.48437      2.00000
         44     -0.48299     -0.47597      2.00000
         45     -0.47837     -0.47054      2.00000
         46     -0.47026     -0.46480      2.00000
         47     -0.46395     -0.45616      2.00000
         48     -0.45496     -0.44796      2.00000
         49     -0.40854     -0.40005      2.00000
         50     -0.40619     -0.39279      2.00000
         51     -0.39780     -0.39027      2.00000
         52     -0.38855     -0.38128      2.00000
         53     -0.38535     -0.37816      2.00000
         54     -0.37938     -0.36718      2.00000
         55     -0.37363     -0.36581      2.00000
         56     -0.36779     -0.36012      2.00000
         57     -0.36151     -0.35427      2.00000
         58     -0.35491     -0.34683      2.00000
         59     -0.35127     -0.34338      2.00000
         60     -0.34540     -0.34075      2.00000
         61     -0.34204     -0.33428      2.00000
         62     -0.33547     -0.32982      2.00000
         63     -0.33012     -0.32626      2.00000
         64     -0.32584     -0.32196      2.00000
         65     -0.32233     -0.31836      2.00000
         66     -0.31940     -0.31406      2.00000
         67     -0.31407     -0.30683      2.00000
         68     -0.30982     -0.30270      2.00000
         69     -0.30888     -0.29612      2.00000
         70     -0.30091     -0.29298      2.00000
         71     -0.29631     -0.28923      2.00000
         72     -0.28234     -0.27575      2.00000
         73     -0.24031     -0.23299      2.00000
         74     -0.10354     -0.09758      0.00000
         75     -0.06665     -0.01087      0.00000
         76     -0.03275      0.00577      0.00000
         77      0.00404      0.03207      0.00000
         78      0.01345      0.03528      0.00000
         79      0.03069      0.04346      0.00000
         80      0.04207      0.05617      0.00000
         81      0.04790      0.06255      0.00000
         82      0.05833      0.07053      0.00000
         83      0.07022      0.07442      0.00000
         84      0.07558      0.08157      0.00000
         85      0.08205      0.08934      0.00000
         86      0.08766      0.09523      0.00000
         87      0.09361      0.10223      0.00000
         88      0.09991      0.11094      0.00000
         89      0.10669      0.12170      0.00000
         90      0.11225      0.12654      0.00000
         91      0.12056      0.13492      0.00000
         92      0.12229      0.14027      0.00000
         93      0.12478      0.14990      0.00000
         94      0.13462      0.15731      0.00000
         95      0.13933      0.16086      0.00000
         96      0.14363      0.16633      0.00000
         97      0.14992      0.17903      0.00000
         98      0.15777      0.18550      0.00000
         99      0.16324      0.19003      0.00000
        100      0.17176      0.19788      0.00000
        101      0.18073      0.20420      0.00000
        102      0.18593      0.21995      0.00000
        103      0.20244      0.22625      0.00000
        104      0.21219      0.23490      0.00000
        105      0.22820      0.24810      0.00000
        106      0.24296      0.27364      0.00000
        107      0.25713      0.28351      0.00000
        108      0.26317      0.29282      0.00000
        109      0.27654      0.29758      0.00000
        110      0.28449      0.31370      0.00000
        111      0.29860      0.32429      0.00000
        112      0.30177      0.32913      0.00000
        113      0.32131      0.33629      0.00000
        114      0.33682      0.34520      0.00000
        115      0.33853      0.35852      0.00000
        116      0.34449      0.36994      0.00000
        117      0.35463      0.37559      0.00000
        118      0.36413      0.38902      0.00000
        119      0.36933      0.39642      0.00000
        120      0.38428      0.40561      0.00000
        121      0.39040      0.42511      0.00000
        122      0.40588      0.43268      0.00000
        123      0.41880      0.43689      0.00000
        124      0.42718      0.45091      0.00000
        125      0.44153      0.45909      0.00000
        126      0.45292      0.46687      0.00000
        127      0.46414      0.47898      0.00000
        128      0.47272      0.49129      0.00000
        129      0.49001      0.50700      0.00000
        130      0.50522      0.52342      0.00000
        131      0.51917      0.53507      0.00000
        132      0.53355      0.54630      0.00000
        133      0.54457      0.56689      0.00000
        134      0.56306      0.58369      0.00000
        135      0.57957      0.59380      0.00000
        136      0.59704      0.61459      0.00000
        137      0.60485      0.62860      0.00000
        138      0.61859      0.63889      0.00000
        139      0.63305      0.65820      0.00000
        140      0.63652      0.67839      0.00000
        141      0.65472      0.69288      0.00000
        142      0.66908      0.70036      0.00000
        143      0.67920      0.70674      0.00000
        144      0.68502      0.71422      0.00000
        145      0.69450      0.72186      0.00000
        146      0.70422      0.73392      0.00000
        147      0.72068      0.73861      0.00000
        148      0.73112      0.75154      0.00000
        149      0.74425      0.76086      0.00000
        150      0.75255      0.77047      0.00000
        151      0.75520      0.77139      0.00000
        152      0.76906      0.78201      0.00000
        153      0.77162      0.78965      0.00000
        154      0.78277      0.79446      0.00000
        155      0.79319      0.80770      0.00000
        156      0.79751      0.81812      0.00000
        157      0.80749      0.82195      0.00000
        158      0.81877      0.83000      0.00000
        159      0.82385      0.83977      0.00000
        160      0.83451      0.85311      0.00000
        161      0.84141      0.85560      0.00000
 =================================================
 Dispersion                                                   -0.16253067      -4.4227     -101.99
 Final bond energy (SCF)                                      -5.20109306    -141.5289    -3263.74

 dE(predicted):    -0.36448E-02, dE(actual):    -0.34009E-02, Trust radius:    0.800000, all in a.u.


 Constraint values: difference between the actual and the fixed coord values, a.u.
 =================================================================================

 Index  Constr. value     Atom indices
 ------------- NON-BLOCK constraints -------------------
     1    0.00000E+00     8
     2    0.00000E+00     8
     3    0.00000E+00     8
 -------------------------------------------------------
 
----------------------------------------------------------------------
Geometry Convergence after Step   4       (Hartree/Angstrom,Angstrom)
----------------------------------------------------------------------
current energy                               -5.20109306 Hartree
energy change                      -0.00340087     0.00020000    F
constrained gradient max            0.03983871     0.00100000    F
constrained gradient rms            0.00838761     0.00066667    F
gradient max                        0.03983871
gradient rms                        0.00862759
cart. step max                      0.20071397     0.01000000    F
cart. step rms                      0.05465319     0.00666667    F
 
 
--------
Geometry
--------
Formula: H2O12Si6
Atoms
  Index Symbol   x (angstrom)   y (angstrom)   z (angstrom)
      1      O    -0.56345574    -2.36141944    -2.66227226
      2      O     0.88769503    -0.54992393    -1.33881619
      3      O    -0.93496068     1.24784591    -0.65132433
      4      O     1.52658570    -1.26096898    -3.85337162
      5      O     1.89221167     2.38357232    -1.84313132
      6      O    -1.49578483     0.57147614    -3.18731618
      7     Si     0.94752301    -1.78811878    -2.41996340
      8     Si     0.00000000     0.00000000     0.00000000
      9     Si    -1.49419363     1.79930596    -2.10348490
     10      O     1.73454350    -2.26774442    -6.73633597
     11      O    -1.49276798    -0.54400774    -5.57897237
     12      O     1.41212529     1.17714836    -4.87490701
     13      O    -0.99168613    -1.30581185    -8.03116584
     14      O    -0.67854636     2.31814366    -5.99466510
     15      O     0.93606463     0.80021473    -7.60538020
     16     Si    -1.58149303    -1.83501111    -6.58313354
     17     Si    -2.45756877    -0.00142632    -4.37472132
     18     Si     0.85095944     1.79422366    -6.28872295
     19      H    -0.85356504    -2.01065596    -8.68938252
     20      H     0.72558675    -0.15320281    -7.43536854
 
Lattice vectors (angstrom)
      1     4.89438681     0.00000000     0.00000000
      2     0.00062301     5.38571281     0.00000000
 
Unit cell area (angstrom^2)        26.35976
 
Total System Charge             0.00000
Bonding info available!
 

 Settings for Grimme D3 dispersion correction

      damping                        BJ
      s6                          1.000
      s8                          2.355
      a1                          0.524
      a2                          3.502

 Other (technical) parameters

      alpha                      14.000
      version                         4
 
 K-points configuration loaded from previous results: GOStep4.rkf



                                          *******************************
                                          *  S C F   P R O C E D U R E  *
                                          *******************************
  

 Nr. of basis functions                  366
 Nr. of core functions                    18
 Nr. of fit functions                      0
 Nr. of symmetry unique K-points           8
 Valence charge                          146.00
 preparing original eigsys for changed geometry (deltaPerAtom/=0)

 CONVERGENCE REACHED



                                             *************************
                                             *  P R O P E R T I E S  *
                                             *************************
  



 ===================================
 B A N D   E N E R G Y   R A N G E S
 ===================================
  
 The energies below are in Hartree.
 =================================================
       band          min          max   occupation
 =================================================
         25     -0.99044     -0.97499      2.00000
         26     -0.97893     -0.96271      2.00000
         27     -0.97222     -0.95130      2.00000
         28     -0.95694     -0.94275      2.00000
         29     -0.94426     -0.93616      2.00000
         30     -0.93129     -0.92549      2.00000
         31     -0.92625     -0.92062      2.00000
         32     -0.92208     -0.91961      2.00000
         33     -0.92067     -0.91823      2.00000
         34     -0.91919     -0.91787      2.00000
         35     -0.91825     -0.91527      2.00000
         36     -0.91059     -0.90740      2.00000
         37     -0.60530     -0.57921      2.00000
         38     -0.58179     -0.55934      2.00000
         39     -0.56986     -0.52955      2.00000
         40     -0.54588     -0.51864      2.00000
         41     -0.51360     -0.50109      2.00000
         42     -0.50569     -0.48947      2.00000
         43     -0.49246     -0.48071      2.00000
         44     -0.47826     -0.47262      2.00000
         45     -0.47378     -0.46588      2.00000
         46     -0.46706     -0.46137      2.00000
         47     -0.46141     -0.45262      2.00000
         48     -0.45083     -0.44459      2.00000
         49     -0.40334     -0.39514      2.00000
         50     -0.40154     -0.38944      2.00000
         51     -0.39368     -0.38550      2.00000
         52     -0.38520     -0.37861      2.00000
         53     -0.38265     -0.37428      2.00000
         54     -0.37516     -0.36439      2.00000
         55     -0.36935     -0.36203      2.00000
         56     -0.36550     -0.35688      2.00000
         57     -0.35849     -0.35057      2.00000
         58     -0.35228     -0.34296      2.00000
         59     -0.34773     -0.34007      2.00000
         60     -0.34205     -0.33701      2.00000
         61     -0.33794     -0.33090      2.00000
         62     -0.33261     -0.32607      2.00000
         63     -0.32620     -0.32265      2.00000
         64     -0.32219     -0.31737      2.00000
         65     -0.32005     -0.31443      2.00000
         66     -0.31554     -0.31061      2.00000
         67     -0.30954     -0.30336      2.00000
         68     -0.30643     -0.29940      2.00000
         69     -0.30413     -0.29151      2.00000
         70     -0.29786     -0.28971      2.00000
         71     -0.29295     -0.28492      2.00000
         72     -0.28201     -0.27504      2.00000
         73     -0.24347     -0.23654      2.00000
         74     -0.10441     -0.09768      0.00000
         75     -0.06456     -0.01096      0.00000
         76     -0.03117      0.00827      0.00000
         77      0.00219      0.03258      0.00000
         78      0.01427      0.03492      0.00000
         79      0.02595      0.04624      0.00000
         80      0.04484      0.05674      0.00000
         81      0.04968      0.06569      0.00000
         82      0.05987      0.07225      0.00000
         83      0.07170      0.07773      0.00000
         84      0.07546      0.08377      0.00000
         85      0.08340      0.09052      0.00000
         86      0.08919      0.09484      0.00000
         87      0.09536      0.10443      0.00000
         88      0.10192      0.11115      0.00000
         89      0.10955      0.12409      0.00000
         90      0.11335      0.12989      0.00000
         91      0.12112      0.13687      0.00000
         92      0.12309      0.14205      0.00000
         93      0.12596      0.15078      0.00000
         94      0.13437      0.15914      0.00000
         95      0.14229      0.16120      0.00000
         96      0.14711      0.16888      0.00000
         97      0.15033      0.18069      0.00000
         98      0.16132      0.18764      0.00000
         99      0.16416      0.19182      0.00000
        100      0.17475      0.19774      0.00000
        101      0.18360      0.20600      0.00000
        102      0.18888      0.22034      0.00000
        103      0.19737      0.22683      0.00000
        104      0.20950      0.23644      0.00000
        105      0.23093      0.24856      0.00000
        106      0.24442      0.27383      0.00000
        107      0.25780      0.28473      0.00000
        108      0.26478      0.29399      0.00000
        109      0.27675      0.29876      0.00000
        110      0.28482      0.31696      0.00000
        111      0.30083      0.32636      0.00000
        112      0.30462      0.32915      0.00000
        113      0.32147      0.33799      0.00000
        114      0.33783      0.34840      0.00000
        115      0.34343      0.35970      0.00000
        116      0.34842      0.36912      0.00000
        117      0.35672      0.37679      0.00000
        118      0.36470      0.38962      0.00000
        119      0.37344      0.39470      0.00000
        120      0.38680      0.41151      0.00000
        121      0.39383      0.42451      0.00000
        122      0.40618      0.43573      0.00000
        123      0.41737      0.43707      0.00000
        124      0.42808      0.45072      0.00000
        125      0.44364      0.45998      0.00000
        126      0.45185      0.46768      0.00000
        127      0.46535      0.48170      0.00000
        128      0.47401      0.48919      0.00000
        129      0.49107      0.50418      0.00000
        130      0.50303      0.52452      0.00000
        131      0.51773      0.53309      0.00000
        132      0.53439      0.54723      0.00000
        133      0.55272      0.57104      0.00000
        134      0.56357      0.58384      0.00000
        135      0.58144      0.59458      0.00000
        136      0.59508      0.61251      0.00000
        137      0.60838      0.63163      0.00000
        138      0.61641      0.65370      0.00000
        139      0.63480      0.66080      0.00000
        140      0.63872      0.66716      0.00000
        141      0.65370      0.69038      0.00000
        142      0.66905      0.70417      0.00000
        143      0.67871      0.70874      0.00000
        144      0.68919      0.71314      0.00000
        145      0.69555      0.72222      0.00000
        146      0.70024      0.72980      0.00000
        147      0.72359      0.74099      0.00000
        148      0.72971      0.74835      0.00000
        149      0.74542      0.76169      0.00000
        150      0.74974      0.76847      0.00000
        151      0.75597      0.77103      0.00000
        152      0.77034      0.78041      0.00000
        153      0.77397      0.78835      0.00000
        154      0.78248      0.79419      0.00000
        155      0.79380      0.81214      0.00000
        156      0.79566      0.81875      0.00000
        157      0.80877      0.81943      0.00000
        158      0.81608      0.82978      0.00000
        159      0.82451      0.84341      0.00000
        160      0.83404      0.85356      0.00000
        161      0.84103      0.85725      0.00000
        162      0.84867      0.86029      0.00000
 =================================================
 Dispersion                                                   -0.16118312      -4.3860     -101.14
 Final bond energy (SCF)                                      -5.20365835    -141.5987    -3265.35

 dE(predicted):    -0.20491E-02, dE(actual):    -0.25653E-02, Trust radius:    1.000000, all in a.u.


 Constraint values: difference between the actual and the fixed coord values, a.u.
 =================================================================================

 Index  Constr. value     Atom indices
 ------------- NON-BLOCK constraints -------------------
     1    0.00000E+00     8
     2    0.00000E+00     8
     3    0.00000E+00     8
 -------------------------------------------------------
 
----------------------------------------------------------------------
[...]
                    -------------
 Charge on atom              6.881
 
 10/O/NO/2s                  1.915
 10/O/NO/2p_y                1.589
 10/O/NO/2p_z                1.615
 10/O/NO/2p_x                1.573
 10/O/STO2.88/2s            -0.116
 10/O/STO7.58/2s             0.002
 10/O/STO1.12/2p_y           0.089
 10/O/STO1.12/2p_z           0.169
 10/O/STO1.12/2p_x           0.017
 10/O/STO4.08/2p_y           0.004
 10/O/STO4.08/2p_z           0.016
 10/O/STO4.08/2p_x          -0.008
 10/O/STO2/3d_xy             0.007
 10/O/STO2/3d_yz             0.004
 10/O/STO2/3d_z2             0.004
 10/O/STO2/3d_xz             0.004
 10/O/STO2/3d_x2-y2          0.006
                    -------------
 Charge on atom              6.889
 
 11/O/NO/2s                  1.921
 11/O/NO/2p_y                1.591
 11/O/NO/2p_z                1.592
 11/O/NO/2p_x                1.582
 11/O/STO2.88/2s            -0.119
 11/O/STO7.58/2s             0.002
 11/O/STO1.12/2p_y           0.088
 11/O/STO1.12/2p_z           0.047
 11/O/STO1.12/2p_x           0.153
 11/O/STO4.08/2p_y           0.003
 11/O/STO4.08/2p_z          -0.004
 11/O/STO4.08/2p_x           0.014
 11/O/STO2/3d_xy             0.006
 11/O/STO2/3d_yz             0.005
 11/O/STO2/3d_z2             0.003
 11/O/STO2/3d_xz             0.006
 11/O/STO2/3d_x2-y2          0.005
                    -------------
 Charge on atom              6.898
 
 12/O/NO/2s                  1.913
 12/O/NO/2p_y                1.600
 12/O/NO/2p_z                1.581
 12/O/NO/2p_x                1.607
 12/O/STO2.88/2s            -0.117
 12/O/STO7.58/2s             0.002
 12/O/STO1.12/2p_y           0.088
 12/O/STO1.12/2p_z           0.067
 12/O/STO1.12/2p_x           0.111
 12/O/STO4.08/2p_y           0.003
 12/O/STO4.08/2p_z          -0.000
 12/O/STO4.08/2p_x           0.007
 12/O/STO2/3d_xy             0.004
 12/O/STO2/3d_yz             0.006
 12/O/STO2/3d_z2             0.006
 12/O/STO2/3d_xz             0.005
 12/O/STO2/3d_x2-y2          0.003
                    -------------
 Charge on atom              6.886
 
 13/O/NO/2s                  1.815
 13/O/NO/2p_y                1.582
 13/O/NO/2p_z                1.631
 13/O/NO/2p_x                1.673
 13/O/STO2.88/2s            -0.034
 13/O/STO7.58/2s             0.000
 13/O/STO1.12/2p_y           0.054
 13/O/STO1.12/2p_z          -0.105
 13/O/STO1.12/2p_x           0.071
 13/O/STO4.08/2p_y           0.003
 13/O/STO4.08/2p_z          -0.020
 13/O/STO4.08/2p_x           0.002
 13/O/STO2/3d_xy             0.008
 13/O/STO2/3d_yz             0.011
 13/O/STO2/3d_z2             0.004
 13/O/STO2/3d_xz             0.004
 13/O/STO2/3d_x2-y2          0.005
                    -------------
 Charge on atom              6.705
 
 14/O/NO/2s                  1.918
 14/O/NO/2p_y                1.588
 14/O/NO/2p_z                1.599
 14/O/NO/2p_x                1.576
 14/O/STO2.88/2s            -0.117
 14/O/STO7.58/2s             0.002
 14/O/STO1.12/2p_y           0.088
 14/O/STO1.12/2p_z           0.176
 14/O/STO1.12/2p_x           0.019
 14/O/STO4.08/2p_y           0.004
 14/O/STO4.08/2p_z           0.017
 14/O/STO4.08/2p_x          -0.008
 14/O/STO2/3d_xy             0.006
 14/O/STO2/3d_yz             0.005
 14/O/STO2/3d_z2             0.005
 14/O/STO2/3d_xz             0.004
 14/O/STO2/3d_x2-y2          0.006
                    -------------
 Charge on atom              6.889
 
 15/O/NO/2s                  1.776
 15/O/NO/2p_y                1.604
 15/O/NO/2p_z                1.640
 15/O/NO/2p_x                1.596
 15/O/STO2.88/2s            -0.010
 15/O/STO7.58/2s            -0.001
 15/O/STO1.12/2p_y          -0.044
 15/O/STO1.12/2p_z           0.024
 15/O/STO1.12/2p_x           0.075
 15/O/STO4.08/2p_y          -0.007
 15/O/STO4.08/2p_z          -0.003
 15/O/STO4.08/2p_x           0.010
 15/O/STO2/3d_xy             0.010
 15/O/STO2/3d_yz             0.005
 15/O/STO2/3d_z2             0.009
 15/O/STO2/3d_xz             0.005
 15/O/STO2/3d_x2-y2          0.001
                    -------------
 Charge on atom              6.691
 
 7/Si/NO/2s                  1.999
 7/Si/NO/2p_y                1.994
 7/Si/NO/2p_z                1.996
 7/Si/NO/2p_x                1.994
 7/Si/NO/3s                  0.875
 7/Si/NO/3p_y                0.326
 7/Si/NO/3p_z                0.302
 7/Si/NO/3p_x                0.326
 7/Si/STO3.6/2s             -0.029
 7/Si/STO6.85/2p_y          -0.002
 7/Si/STO6.85/2p_z          -0.002
 7/Si/STO6.85/2p_x          -0.002
 7/Si/STO2.95/3s             0.052
 7/Si/STO1.2/3s             -0.470
 7/Si/STO2/3p_y              0.202
 7/Si/STO2/3p_z              0.211
 7/Si/STO2/3p_x              0.212
 7/Si/STO0.75/3p_y          -0.133
 7/Si/STO0.75/3p_z          -0.136
 7/Si/STO0.75/3p_x          -0.160
 7/Si/STO1.75/3d_xy          0.130
 7/Si/STO1.75/3d_yz          0.138
 7/Si/STO1.75/3d_z2          0.129
 7/Si/STO1.75/3d_xz          0.123
 7/Si/STO1.75/3d_x2-y2       0.124
                    -------------
 Charge on atom             10.201
 
 8/Si/NO/2s                  2.000
 8/Si/NO/2p_y                2.002
 8/Si/NO/2p_z                2.002
 8/Si/NO/2p_x                2.002
 8/Si/NO/3s                  1.747
 8/Si/NO/3p_y                0.235
 8/Si/NO/3p_z                0.494
 8/Si/NO/3p_x                0.263
 8/Si/STO3.6/2s             -0.005
 8/Si/STO6.85/2p_y          -0.001
 8/Si/STO6.85/2p_z          -0.001
 8/Si/STO6.85/2p_x          -0.001
 8/Si/STO2.95/3s             0.013
 8/Si/STO1.2/3s              0.008
 8/Si/STO2/3p_y              0.105
 8/Si/STO2/3p_z              0.160
 8/Si/STO2/3p_x              0.109
 8/Si/STO0.75/3p_y          -0.047
 8/Si/STO0.75/3p_z          -0.046
 8/Si/STO0.75/3p_x          -0.052
 8/Si/STO1.75/3d_xy          0.065
 8/Si/STO1.75/3d_yz          0.057
 8/Si/STO1.75/3d_z2          0.050
 8/Si/STO1.75/3d_xz          0.052
 8/Si/STO1.75/3d_x2-y2       0.051
                    -------------
 Charge on atom             11.261
 
 9/Si/NO/2s                  1.999
 9/Si/NO/2p_y                1.995
 9/Si/NO/2p_z                1.995
 9/Si/NO/2p_x                1.994
 9/Si/NO/3s                  0.885
 9/Si/NO/3p_y                0.301
 9/Si/NO/3p_z                0.293
 9/Si/NO/3p_x                0.305
 9/Si/STO3.6/2s             -0.029
 9/Si/STO6.85/2p_y          -0.002
 9/Si/STO6.85/2p_z          -0.002
 9/Si/STO6.85/2p_x          -0.002
 9/Si/STO2.95/3s             0.051
 9/Si/STO1.2/3s             -0.479
 9/Si/STO2/3p_y              0.211
 9/Si/STO2/3p_z              0.216
 9/Si/STO2/3p_x              0.218
 9/Si/STO0.75/3p_y          -0.104
 9/Si/STO0.75/3p_z          -0.106
 9/Si/STO0.75/3p_x          -0.139
 9/Si/STO1.75/3d_xy          0.128
 9/Si/STO1.75/3d_yz          0.139
 9/Si/STO1.75/3d_z2          0.128
 9/Si/STO1.75/3d_xz          0.119
 9/Si/STO1.75/3d_x2-y2       0.125
                    -------------
 Charge on atom             10.240
 
 16/Si/NO/2s                 1.999
 16/Si/NO/2p_y               1.994
 16/Si/NO/2p_z               1.996
 16/Si/NO/2p_x               1.993
 16/Si/NO/3s                 0.901
 16/Si/NO/3p_y               0.274
 16/Si/NO/3p_z               0.282
 16/Si/NO/3p_x               0.319
 16/Si/STO3.6/2s            -0.027
 16/Si/STO6.85/2p_y         -0.002
 16/Si/STO6.85/2p_z         -0.002
 16/Si/STO6.85/2p_x         -0.002
 16/Si/STO2.95/3s            0.046
 16/Si/STO1.2/3s            -0.503
 16/Si/STO2/3p_y             0.217
 16/Si/STO2/3p_z             0.219
 16/Si/STO2/3p_x             0.216
 16/Si/STO0.75/3p_y         -0.075
 16/Si/STO0.75/3p_z         -0.135
 16/Si/STO0.75/3p_x         -0.138
 16/Si/STO1.75/3d_xy         0.132
 16/Si/STO1.75/3d_yz         0.129
 16/Si/STO1.75/3d_z2         0.121
 16/Si/STO1.75/3d_xz         0.118
 16/Si/STO1.75/3d_x2-y2      0.133
                    -------------
 Charge on atom             10.205
 
 17/Si/NO/2s                 1.999
 17/Si/NO/2p_y               1.993
 17/Si/NO/2p_z               1.993
 17/Si/NO/2p_x               1.994
 17/Si/NO/3s                 0.868
 17/Si/NO/3p_y               0.327
 17/Si/NO/3p_z               0.318
 17/Si/NO/3p_x               0.360
 17/Si/STO3.6/2s            -0.030
 17/Si/STO6.85/2p_y         -0.002
 17/Si/STO6.85/2p_z         -0.002
 17/Si/STO6.85/2p_x         -0.002
 17/Si/STO2.95/3s            0.053
 17/Si/STO1.2/3s            -0.470
 17/Si/STO2/3p_y             0.204
 17/Si/STO2/3p_z             0.219
 17/Si/STO2/3p_x             0.191
 17/Si/STO0.75/3p_y         -0.149
 17/Si/STO0.75/3p_z         -0.142
 17/Si/STO0.75/3p_x         -0.175
 17/Si/STO1.75/3d_xy         0.145
 17/Si/STO1.75/3d_yz         0.126
 17/Si/STO1.75/3d_z2         0.120
 17/Si/STO1.75/3d_xz         0.140
 17/Si/STO1.75/3d_x2-y2      0.116
                    -------------
 Charge on atom             10.196
 
 18/Si/NO/2s                 1.999
 18/Si/NO/2p_y               1.994
 18/Si/NO/2p_z               1.995
 18/Si/NO/2p_x               1.995
 18/Si/NO/3s                 0.899
 18/Si/NO/3p_y               0.337
 18/Si/NO/3p_z               0.273
 18/Si/NO/3p_x               0.328
 18/Si/STO3.6/2s            -0.028
 18/Si/STO6.85/2p_y         -0.002
 18/Si/STO6.85/2p_z         -0.002
 18/Si/STO6.85/2p_x         -0.002
 18/Si/STO2.95/3s            0.047
 18/Si/STO1.2/3s            -0.491
 18/Si/STO2/3p_y             0.197
 18/Si/STO2/3p_z             0.227
 18/Si/STO2/3p_x             0.201
 18/Si/STO0.75/3p_y         -0.140
 18/Si/STO0.75/3p_z         -0.094
 18/Si/STO0.75/3p_x         -0.137
 18/Si/STO1.75/3d_xy         0.122
 18/Si/STO1.75/3d_yz         0.139
 18/Si/STO1.75/3d_z2         0.139
 18/Si/STO1.75/3d_xz         0.120
 18/Si/STO1.75/3d_x2-y2      0.116
                    -------------
 Charge on atom             10.234
 
 19/H/NO/1s                  0.212
 19/H/STO0.69/1s             0.071
 19/H/STO1.58/1s             0.381
 19/H/STO1.25/2p_y           0.044
 19/H/STO1.25/2p_z           0.036
 19/H/STO1.25/2p_x           0.042
                    -------------
 Charge on atom              0.786
 
 20/H/NO/1s                  0.755
 20/H/STO0.69/1s            -0.449
 20/H/STO1.58/1s             0.252
 20/H/STO1.25/2p_y           0.064
 20/H/STO1.25/2p_z           0.043
 20/H/STO1.25/2p_x           0.066
                    -------------
 Charge on atom              0.731
 
 Total charge              146.000


 ATOM/ATOM OVERLAP MATRIX
 (OFF-DIAGONAL ELEMENTS HALF OF OVERLAP POPULATION)
 (order of atoms as on input)
 ATOM         CORE    1       2       3       4       5       6       7       8       9
           -------------------------------------------------------------------------------
   0)
      1 :  0.0339
   1)
      1 : -0.0015  6.3709
   2)
      1 : -0.0026 -0.0261  6.3905
   3)
      1 : -0.0029 -0.0284 -0.0243  6.4222
   4)
      1 : -0.0015 -0.0263 -0.0235 -0.0008  6.3866
   5)
      1 : -0.0015 -0.0519 -0.0346 -0.0330 -0.0274  6.4180
   6)
      1 : -0.0015 -0.0314 -0.0037 -0.0258 -0.0267 -0.0264  6.3646
   7)
      1 : -0.0012  0.3203  0.2902  0.0387  0.3079  0.2972  0.0510  9.0281
   8)
      1 : -0.0020  0.0065  0.1895  0.1670  0.0022  0.0177  0.0044 -0.0165 10.8856
   9)
      1 : -0.0014  0.3397  0.0309  0.2875  0.0525  0.3127  0.3066 -0.0830  0.0022  9.0203
  10)
      1 : -0.0016 -0.0000 -0.0000 -0.0000 -0.0047 -0.0000 -0.0004  0.0021  0.0000  0.0008
     11 :  6.3827
  11)
      1 : -0.0016 -0.0004 -0.0003 -0.0002 -0.0262 -0.0004 -0.0223  0.0176  0.0000  0.0095
     11 : -0.0268  6.3971
  12)
      1 : -0.0015 -0.0007 -0.0003 -0.0002 -0.0311 -0.0016 -0.0248  0.0103 -0.0001  0.0125
     11 : -0.0261 -0.0276  6.3770
  13)
      1 : -0.0026  0.0000 -0.0000 -0.0000 -0.0002 -0.0000 -0.0001  0.0003 -0.0000  0.0001
     11 : -0.0268 -0.0302 -0.0011  6.0620
  14)
      1 : -0.0016 -0.0010 -0.0000  0.0000 -0.0005 -0.0001 -0.0005  0.0004 -0.0000 -0.0012
     11 : -0.0547 -0.0305 -0.0300 -0.0299  6.3898
  15)
      1 : -0.0024 -0.0000  0.0000 -0.0000 -0.0004 -0.0000 -0.0002  0.0001 -0.0000  0.0003
     11 : -0.0362 -0.0025 -0.0236 -0.0135 -0.0273  6.0311
  16)
      1 : -0.0010 -0.0017 -0.0000  0.0003  0.0137  0.0016  0.0089 -0.0014 -0.0001 -0.0042
     11 :  0.3301  0.2997  0.0467  0.2587  0.3411  0.0256  9.0412
  17)
      1 : -0.0009  0.0157  0.0233  0.0159  0.2903  0.0340  0.2916 -0.0539  0.0050 -0.0430
     11 :  0.0312  0.2775  0.3030  0.0104  0.0176  0.0210 -0.0362  9.0444
  18)
      1 : -0.0009 -0.0007 -0.0003  0.0004  0.0090  0.0029  0.0178 -0.0075  0.0000 -0.0025
     11 :  0.3113  0.0530  0.2942  0.0339  0.2944  0.3207 -0.0793 -0.0538  9.0542
  19)
      1 : -0.0022 -0.0001 -0.0000  0.0000 -0.0001  0.0000  0.0001  0.0000 -0.0000 -0.0001
     11 :  0.0079  0.0040 -0.0006  0.4186  0.0053  0.0063 -0.0452 -0.0011  0.0214  0.3779
  20)
      1 : -0.0016 -0.0002 -0.0000 -0.0000 -0.0010  0.0000 -0.0001  0.0001  0.0000 -0.0002
     11 :  0.0005  0.0084  0.0117  0.0256  0.0176  0.3916  0.0063  0.0044 -0.0340 -0.0063
     21 :  0.3081



 ======================
 Atomic Charge Analysis
 ======================
  
 Deformation charges with respect to neutral atoms.
 
   ----------------------------------------------------------
     Atom      Hirshfeld     Voronoi         CM5    Mulliken
   ----------------------------------------------------------
      1  O        -0.273      -0.243      -0.277      -0.883
      2  O        -0.288      -0.252      -0.292      -0.809
      3  O        -0.293      -0.262      -0.296      -0.816
      4  O        -0.273      -0.246      -0.276      -0.892
      5  O        -0.277      -0.241      -0.281      -0.907
      6  O        -0.273      -0.245      -0.276      -0.881
      7  Si        0.538       0.481       0.545       1.799
      8  Si        0.335       0.287       0.338       0.739
      9  Si        0.534       0.477       0.541       1.760
     10  O        -0.281      -0.274      -0.288      -0.889
     11  O        -0.271      -0.254      -0.276      -0.898
     12  O        -0.274      -0.243      -0.279      -0.886
     13  O        -0.230      -0.268      -0.415      -0.705
     14  O        -0.275      -0.254      -0.282      -0.889
     15  O        -0.291      -0.300      -0.450      -0.691
     16  Si        0.542       0.461       0.534       1.795
     17  Si        0.543       0.485       0.550       1.804
     18  Si        0.526       0.461       0.520       1.766
     19  H         0.175       0.242       0.356       0.214
     20  H         0.107       0.187       0.305       0.269
   ----------------------------------------------------------
      Total:      -0.000      -0.000      -0.000      -0.000
   ----------------------------------------------------------
 
 WARNING: matrix written, but never read. Matrix name: S(VOC/VOC)


    =====================
     CALCULATION RESULTS
    =====================

Energy (hartree)            -5.21105638

Gradients (hartree/bohr)
  Index   Atom            d/dx            d/dy            d/dz
      1      O    0.0000248275    0.0000359122   -0.0000544979
      2      O    0.0004299585   -0.0000546928   -0.0002067424
      3      O    0.0001129241   -0.0001025169    0.0000230770
      4      O   -0.0000749443    0.0000213664   -0.0000344069
      5      O    0.0000924354   -0.0000474511   -0.0000091801
      6      O    0.0001603386   -0.0000394439    0.0000905808
      7     Si   -0.0001580882   -0.0000335326   -0.0000071142
      8     Si   -0.0003324395    0.0001671003    0.0002610282
      9     Si   -0.0001818732    0.0000541369    0.0000146976
     10      O   -0.0001053547   -0.0000359076    0.0000772322
     11      O    0.0000392728   -0.0000545266   -0.0000712178
     12      O    0.0000448479   -0.0001320698    0.0001077020
     13      O    0.0001452147    0.0000371777   -0.0002034141
     14      O   -0.0000082105    0.0001461862   -0.0001580887
     15      O   -0.0001775270   -0.0004641696    0.0001615518
     16     Si   -0.0000264675   -0.0002095257    0.0002480027
     17     Si   -0.0001546448    0.0001209458   -0.0000997887
     18     Si    0.0000884674    0.0000533557   -0.0001432175
     19      H   -0.0000968394    0.0000392473    0.0001302076
     20      H    0.0001781023    0.0004984082   -0.0001264114


--------------
Atomic charges
--------------
  Index   Atom    Charge
      1      O   -0.2735
      2      O   -0.2884
      3      O   -0.2929
      4      O   -0.2728
      5      O   -0.2772
      6      O   -0.2727
      7     Si    0.5375
      8     Si    0.3350
      9     Si    0.5344
     10      O   -0.2813
     11      O   -0.2710
     12      O   -0.2744
     13      O   -0.2297
     14      O   -0.2754
     15      O   -0.2909
     16     Si    0.5425
     17     Si    0.5432
     18     Si    0.5255
     19      H    0.1752
     20      H    0.1068




 =================
 Timing Statistics
 =================
  
 Total Used :                     CPU=     5904.09      System=       89.68     Elapsed=     6195.21

 Calls  Section                     ( Mean, Percentage )
 ---------------------------------------------------------------------------------------------------
    25  ><      ................      0.00    0.00             0.00    0.00             0.00    0.00
    23  GETINP  ................      0.18    0.07             0.04    1.11             0.25    0.09
    69  DIRAC   ................      0.39    0.46             0.00    0.11             0.40    0.45
    69  SLTORB  ................      0.00    0.01             0.00    0.00             0.00    0.01
    69  FITRAD  ................      0.00    0.00             0.00    0.00             0.00    0.00
    23  RADIAL  ................      0.08    0.03             0.01    0.32             0.09    0.03
    23  POINTS  ................      1.73    0.67             0.14    3.64             1.93    0.72
    23  CELLS   ................      0.03    0.01             0.00    0.08             0.04    0.02
    23  ELSTAT  ................      0.17    0.07             0.00    0.13             0.18    0.07
    23  ATMFNC  ................      0.91    0.35             0.04    0.97             0.98    0.36
    23  NUMGRD  ................     14.60    5.69             0.24    6.24            15.29    5.68
     2  RHOPSD  ................      3.80    0.13             0.05    0.12             4.01    0.13
   258  RHOFIT  ................      5.38   23.51             0.07   19.01             5.64   23.47
   258  PMATPROPS ..............      0.00    0.00             0.00    0.00             0.00    0.00
   258  RHOPOT  ................      0.12    0.54             0.01    3.76             0.14    0.59
   258  SCFEXTRA1 ..............      0.00    0.00             0.00    0.02             0.00    0.00
   516  EIGSYS  ................      2.72   23.80             0.05   27.10             2.86   23.85
   258  FERMI   ................      0.01    0.03             0.00    0.32             0.01    0.03
   235  PMATRX  ................      0.07    0.26             0.02    5.39             0.09    0.34
   256  RHOPMD  ................      4.01   17.38             0.05   15.25             4.20   17.38
   235  GUESSRHO ...............      0.10    0.39             0.01    3.43             0.12    0.45
    23  ENERGY  ................     14.01    5.46             0.16    4.07            14.62    5.43
    23  GRADIENTS ..............     54.27   21.14             0.35    8.86            56.28   20.90
     1  CHARGE  ................      0.24    0.00             0.01    0.01             0.25    0.00
     1  CM5CHARGES .............      0.17    0.00             0.00    0.00             0.18    0.00
     1  HIRSH   ................      0.00    0.00             0.00    0.00             0.00    0.00
     1  DOS     ................      0.31    0.01             0.05    0.06             0.42    0.01

AMS application finished. Exiting.
NORMAL TERMINATION
     Total cpu time:    5904.13
  Total system time:      89.95
 Total elapsed time:    6195.60
NORMAL TERMINATION
