 argument  1 = /lustre/ukt/milias/work/projects/open-collection/theoretical_chemistry/projects/adsorbate_on_surface/on_quartz/quartz/nwchem/Quartz-G_molecular_slab_153atoms/ecp/Hg_on_quartz/crenbl_ecp/HgQ.geopt_ecp_revpbe-d3bj.nw



============================== echo of input deck ==============================
echo

start molecule

print low

title "Hg@Quartz ecp"
charge 0

geometry units angstroms print xyz autosym
  load format xyz HgQgeom.xyz
end

basis
 * library crenbl_ecp
end

ecp
  Si library crenbl_ecp
  Hg library crenbl_ecp
end

dft
  xc revpbe cpbe96
  disp vdw 4
  maxiter 100
end

driver
  maxiter 999
  xyz HgQgeomconv
end

task dft optimize

#task dft frequencies

================================================================================


                                         
                                         


             Northwest Computational Chemistry Package (NWChem) 7.2.0
             --------------------------------------------------------


                    Environmental Molecular Sciences Laboratory
                       Pacific Northwest National Laboratory
                                Richland, WA 99352

                              Copyright (c) 1994-2022
                       Pacific Northwest National Laboratory
                            Battelle Memorial Institute

             NWChem is an open-source computational chemistry package
                        distributed under the terms of the
                      Educational Community License (ECL) 2.0
             A copy of the license is included with this distribution
                              in the LICENSE.TXT file

                                  ACKNOWLEDGMENT
                                  --------------

            This software and its documentation were developed at the
            EMSL at Pacific Northwest National Laboratory, a multiprogram
            national laboratory, operated for the U.S. Department of Energy
            by Battelle under Contract Number DE-AC05-76RL01830. Support
            for this work was provided by the Department of Energy Office
            of Biological and Environmental Research, Office of Basic
            Energy Sciences, and the Office of Advanced Scientific Computing.


           Job information
           ---------------

    hostname        = lxbk0891
    program         = /lustre/ukt/milias/work/software/nwchem/nwchem-7.2.0_gnu_openmpi_openblas/bin/LINUX64/nwchem
    date            = Thu Aug 17 22:37:59 2023

    compiled        = Sun_Jul_02_11:55:06_2023
    source          = /lustre/ukt/milias/work/software/nwchem/nwchem-7.2.0_gnu_openmpi_openblas
    nwchem branch   = 7.2.0
    nwchem revision = v7.2.0-beta1-192-gd0d141fdfb
    ga revision     = 5.8.0
    use scalapack   = F
    input           = /lustre/ukt/milias/work/projects/open-collection/theoretical_chemistry/projects/adsorbate_on_surface/on_quartz/quartz/nwchem/Quartz-G_molecular_slab_153atoms/ecp/Hg_on_quartz/crenbl_ecp/HgQ.geopt_ecp_revpbe-d3bj.nw
    prefix          = molecule.
    data base       = ./molecule.db
    status          = startup
    nproc           =      140
    time left       =     -1s



           Memory information
           ------------------

    heap     =   26214394 doubles =    200.0 Mbytes
    stack    =   26214399 doubles =    200.0 Mbytes
    global   =   52428800 doubles =    400.0 Mbytes (distinct from heap & stack)
    total    =  104857593 doubles =    800.0 Mbytes
    verify   = yes
    hardfail = no 


           Directory information
           ---------------------

  0 permanent = .
  0 scratch   = .




                                NWChem Input Module
                                -------------------


                                   Hg@Quartz ecp
                                   -------------

 Scaling coordinates for geometry "geometry" by  1.889725989
 (inverse scale =  0.529177249)


          ------
          auto-z
          ------
  autoz: The atoms group into disjoint clusters
 cluster   1:    1    2    3    4    5    6    7    8    9   10   11
                12   13   14   15   16   17   18   19   20   21   22
                23   24   25   26   27   28   29   30   31   32   33
                34   35   36   37   38   39   40   41   42   43   44
                45   46   47   48   49   50   51   52   53   54   55
                56   57   58   59   60   61   62   63   64   65   66
                67   68   69   70   71   72   73   74   75   76   77
                78   79   80   81   82   83   84   85   86   87   88
                89   90   91   92   93   94   95   96   97   98   99
               100  101  102  103  104  105  106  107  108  109  110
               111  112  113  114  115  116  117  118  119  120  121
               122  123  124  125  126  127  128  129  130  131  132
               133  134  135  136  137  138  139  140  141  142  143
               144  145  146  147  148  149  150  151  152  153
 cluster   2:  154
 Connecting clusters   1   2 via atoms  124  154 r = 2.98
  autoz: regenerating connections with new bonds
  no constraints, skipping    0.0000000000000000     
  no constraints, skipping    0.0000000000000000     


                             Geometry "geometry" -> ""
                             -------------------------

 Output coordinates in angstroms (scale by  1.889725989 to convert to a.u.)

  No.       Tag          Charge          X              Y              Z
 ---- ---------------- ---------- -------------- -------------- --------------
    1 O                    8.0000     4.66600803     1.83886468     3.37316013
    2 H                    1.0000    -1.79618971    -5.80172402     0.74045518
    3 H                    1.0000     4.64980439     9.74119448    -3.40827747
    4 Si                  14.0000    -1.92896869    -8.82106096    -2.38135995
    5 Si                  14.0000     0.76752651    -7.57054380     1.03987305
    6 Si                  14.0000     2.65249864    -3.80601334     4.67611436
    7 H                    1.0000     1.78776155     6.12643324     0.58330640
    8 Si                  14.0000    -3.61079592    -5.02341616    -0.80706930
    9 Si                  14.0000     0.26600258    -2.30868575     0.92557462
   10 Si                  14.0000     4.17209945     0.62592146     2.36476286
   11 H                    1.0000    -1.82740589     3.20960024     3.15371486
   12 Si                  14.0000    -4.44419087    -0.47711652     1.89036640
   13 Si                  14.0000    -0.41904309     2.50323168     0.88317148
   14 Si                  14.0000     3.80985716     4.53963729    -0.83906135
   15 H                    1.0000    -1.62270723    -7.88350189     0.18337045
   16 Si                  14.0000    -3.81340259     4.64920148     3.70301337
   17 Si                  14.0000    -0.43356867     7.13275942     1.23536881
   18 Si                  14.0000     2.37858181     8.46554176    -3.17152578
   19 O                    8.0000    -2.78885006    -0.58937332     2.14325089
   20 O                    8.0000     1.95078283    -5.54773779    -4.58313534
   21 O                    8.0000     6.26301164    -4.45500977    -0.67898924
   22 O                    8.0000    -0.71189776     6.28020817     2.62608721
   23 O                    8.0000     1.07875422     2.73818332     1.59628589
   24 O                    8.0000    -1.86380289    -1.99772804    -4.13675030
   25 O                    8.0000     3.18814742    -0.94749859    -3.90806660
   26 O                    8.0000     1.97132020     8.23839031    -1.58626547
   27 O                    8.0000     4.93819466     5.71016081    -0.52873582
   28 O                    8.0000    -4.37288289     2.49703753    -2.14701215
   29 O                    8.0000    -0.89552405     2.68552939    -3.67956789
   30 H                    1.0000    -2.12760441    -1.29155130     1.96666503
   31 H                    1.0000    -4.49358456     4.74837517     6.22235017
   32 O                    8.0000     2.62303968     4.53962211     0.33068689
   33 O                    8.0000     0.94241285    -1.72548173     2.33251775
   34 O                    8.0000    -2.90410136    -5.50648071    -5.01884947
   35 O                    8.0000    -4.96154480     1.09220705     1.91780932
   36 Si                  14.0000    -4.84223488     3.75241340    -1.16737297
   37 Si                  14.0000    -0.73082609     4.33448099    -3.69013368
   38 O                    8.0000     1.51201160    -4.85749064    -1.98094273
   39 O                    8.0000     5.18261569    -3.11870989     1.45155026
   40 H                    1.0000     5.50100742     6.46287196    -0.36632953
   41 H                    1.0000    -3.63563947    -7.83466230    -0.75373726
   42 Si                  14.0000    -2.06284178    -5.81741517    -3.63355804
   43 O                    8.0000    -4.84343484     3.64665903     2.84649970
   44 O                    8.0000    -1.47753187     6.44596538     0.09562869
   45 O                    8.0000    -2.28910478     3.98125806     3.52857477
   46 Si                  14.0000     1.95924130    -4.83377826    -0.38151985
   47 O                    8.0000    -1.25823862     4.90296978    -2.21467623
   48 H                    1.0000    -1.08966139     5.57963188     3.17932090
   49 H                    1.0000     3.80808855     4.44507438    -5.82536923
   50 Si                  14.0000     5.17791368    -2.46918954     2.98251781
   51 O                    8.0000    -3.46964796     4.62900776    -0.78297372
   52 O                    8.0000     1.11144176     6.83193594     0.66848700
   53 O                    8.0000     1.52106804    -6.26957038     0.34174771
   54 O                    8.0000     3.13499015     4.80393859    -2.33464114
   55 O                    8.0000    -6.27833798    -1.85533220    -1.71827678
   56 O                    8.0000     3.82750281     9.26650571    -3.33038839
   57 O                    8.0000     3.98459314    -3.20495644     3.88524974
   58 H                    1.0000    -3.04972157   -10.80701783    -3.64268103
   59 O                    8.0000    -1.18487608    -0.17723417    -2.30623823
   60 H                    1.0000     4.90903827     2.56681221     3.94018014
   61 H                    1.0000    -1.97585835     0.97704976     2.18745258
   62 O                    8.0000    -3.82744951     6.16614026     3.03942197
   63 O                    8.0000     4.13858068     0.55452603    -1.83949393
   64 H                    1.0000    -6.60315691     5.30131891    -2.31172494
   65 O                    8.0000    -4.31687050    -3.53222484    -0.79280351
   66 O                    8.0000    -0.70347053     8.75690012     1.39358207
   67 H                    1.0000    -2.10769846     5.45922362    -5.60208247
   68 O                    8.0000     1.19639082     9.29425617    -3.99552020
   69 H                    1.0000     7.50564341    -2.71208771     4.13337645
   70 H                    1.0000     7.58165333     1.19846663    -1.21453455
   71 H                    1.0000    -8.17976240     2.49985453     2.45658283
   72 H                    1.0000     2.45102358    -6.12066782    -5.15849645
   73 H                    1.0000     7.00767806    -4.96900006    -0.97895974
   74 O                    8.0000    -2.89853185    -5.29847836    -2.28033056
   75 O                    8.0000     1.09549807    -3.62905845     0.37377787
   76 H                    1.0000    -1.26975247    -2.68126406    -4.45322772
   77 H                    1.0000     3.66041519    -1.61437027    -4.40542097
   78 O                    8.0000     3.29198499     4.52678628    -5.02502203
   79 O                    8.0000     0.86910000     4.76840464    -3.84246109
   80 O                    8.0000    -4.26265639     4.69929970     5.29904321
   81 O                    8.0000    -0.85710772    -7.52051982     0.68279714
   82 H                    1.0000    -5.64074880    -6.54898223    -0.33884281
   83 O                    8.0000     4.75546966    -0.86373326     2.81917299
   84 O                    8.0000     1.17868857    -3.01153008    -3.91895591
   85 O                    8.0000     4.76683436    -2.17577651    -1.03609775
   86 O                    8.0000     1.95598842    -5.00247666     3.77738068
   87 H                    1.0000    -4.02095281     1.77049338    -2.66810970
   88 O                    8.0000    -3.09882506     0.47470801    -4.08826977
   89 O                    8.0000     3.03087623     1.78511810    -3.98738692
   90 H                    1.0000     1.16921007    -1.96657190     3.25887523
   91 O                    8.0000    -0.56840591    -5.09259965    -3.68013518
   92 O                    8.0000    -5.96539272     4.71314970    -1.91699560
   93 O                    8.0000    -1.61353278     5.00760887    -4.92366603
   94 O                    8.0000    -4.76323283    -6.22079083    -0.53343160
   95 O                    8.0000     3.56199193    -4.45060556    -0.23995426
   96 H                    1.0000    -0.95562657     1.74389258    -3.52234752
   97 O                    8.0000    -5.44056910     3.16460104     0.27272947
   98 O                    8.0000    -1.31566146    -2.76781840     1.22241216
   99 H                    1.0000     1.69996104     2.11991700     2.04460479
  100 H                    1.0000    -3.38830119    -5.27382722    -5.80741824
  101 O                    8.0000     6.65261854    -2.63395314     3.71442058
  102 H                    1.0000     1.66530791     7.89081982    -0.72675952
  103 O                    8.0000    -4.68364829    -1.13674708     0.37425062
  104 O                    8.0000    -5.26028396    -1.36777566     3.02700860
  105 H                    1.0000    -7.14880969    -1.72324272    -2.08547446
  106 Si                  14.0000    -5.64937880     2.61497870     1.82704862
  107 O                    8.0000    -0.17171672     1.43104791    -0.36428872
  108 O                    8.0000     0.30017834    -1.13829340    -0.24422517
  109 O                    8.0000    -3.63148005    -1.35310634    -2.15135246
  110 Si                  14.0000    -1.86412088     5.03296419    -0.67407723
  111 H                    1.0000     1.62472246    -5.72592214     3.23384207
  112 H                    1.0000     3.08057236     2.65413640    -4.41089071
  113 H                    1.0000     1.57032171    -2.12835596    -3.93148700
  114 Si                  14.0000     2.44871984     5.26250740    -3.77592896
  115 O                    8.0000    -1.10280635     3.85756583     0.25058646
  116 O                    8.0000    -2.66761208   -10.07443006    -3.16584316
  117 O                    8.0000     2.49967027     0.51941610     2.36007061
  118 H                    1.0000     2.03285717     3.97940995     0.89372503
  119 O                    8.0000     4.50104386     3.01897189    -0.85921583
  120 H                    1.0000    -5.72574272    -1.83981960     3.71246950
  121 H                    1.0000     0.98417022    -7.76439016     3.61894645
  122 Si                  14.0000    -4.75821124    -1.93917645    -1.07227100
  123 H                    1.0000    -1.90705439    -3.52858149     1.05132063
  124 H                    1.0000     1.05427036    -1.89469956     5.37033466
  125 O                    8.0000    -0.43705303    -9.22673630    -1.80546349
  126 Si                  14.0000     0.11924034     0.11917361    -1.31909603
  127 O                    8.0000     1.49136455     0.32659812    -2.22787514
  128 O                    8.0000    -2.84314917    -8.31213322    -1.04621312
  129 O                    8.0000     1.42415498    -8.99432813     0.44537337
  130 Si                  14.0000     5.03456735     1.45320755    -0.72878886
  131 H                    1.0000     1.80422651    -0.17314007     2.31906125
  132 O                    8.0000    -7.25530595     2.51078814     2.22431833
  133 O                    8.0000    -2.43803238    -5.16264210     0.38047663
  134 O                    8.0000     0.99398606    -7.52093781     2.69374358
  135 O                    8.0000     6.64759065     1.29769488    -1.04867951
  136 O                    8.0000    -1.87368098    -7.45077476    -3.33520914
  137 O                    8.0000     3.06155586    -4.34743156     6.19085880
  138 O                    8.0000     1.56820101    -2.52283444     4.85607746
  139 Si                  14.0000     1.02937220    -4.62231051    -3.56147998
  140 Si                  14.0000    -2.46870657    -0.78280901    -3.19444971
  141 H                    1.0000     0.34388495    -9.30386263    -1.24737675
  142 H                    1.0000     2.02583762    -9.73196512     0.35135453
  143 Si                  14.0000     4.97791757    -3.55603010    -0.14672479
  144 Si                  14.0000     2.94831259     0.45230394    -3.02732935
  145 H                    1.0000     3.34632054    -4.65372358     7.04799644
  146 O                    8.0000     2.52470087     6.91770691    -3.82235912
  147 O                    8.0000    -1.42320832     1.77170609     1.99757500
  148 H                    1.0000     4.58717519    -1.29975161    -1.40315670
  149 O                    8.0000     4.67535380     0.94568694     0.81007819
  150 H                    1.0000    -3.28267194     1.13316535    -4.75753194
  151 H                    1.0000     0.47747081     9.74296907    -4.43095597
  152 H                    1.0000    -0.80069850     9.70483918     1.42083672
  153 H                    1.0000    -3.66289463     6.98973075     2.58591830
  154 Hg                  80.0000    -0.26125116     0.74827798     4.98153455

      Atomic Mass 
      ----------- 

      O                 15.994910
      H                  1.007825
      Si                27.976930
      Hg               201.970600


 Effective nuclear repulsion energy (a.u.)   49218.5469289819

            Nuclear Dipole moment (a.u.) 
            ----------------------------
        X                 Y               Z
 ---------------- ---------------- ----------------
     0.0000000000    -0.0000000000     0.0000000000



                                Z-matrix (autoz)
                                -------- 

 Units are Angstrom for bonds and degrees for angles

      Type          Name      I     J     K     L     M      Value
      ----------- --------  ----- ----- ----- ----- ----- ----------
    1 Stretch                  1    10                       1.65289
    2 Stretch                  1    60                       0.95419
    3 Stretch                  2   133                       0.97467
    4 Stretch                  3    56                       0.95267
    5 Stretch                  4   116                       1.65286
    6 Stretch                  4   125                       1.64986
    7 Stretch                  4   128                       1.69628
    8 Stretch                  4   136                       1.67050
    9 Stretch                  5    53                       1.65763
   10 Stretch                  5    81                       1.66416
   11 Stretch                  5   129                       1.67683
   12 Stretch                  5   134                       1.67004
   13 Stretch                  6    57                       1.66169
   14 Stretch                  6    86                       1.65057
   15 Stretch                  6   137                       1.65979
   16 Stretch                  6   138                       1.68957
   17 Stretch                  7    52                       0.98102
   18 Stretch                  8    65                       1.64997
   19 Stretch                  8    74                       1.65936
   20 Stretch                  8    94                       1.68425
   21 Stretch                  8   133                       1.67482
   22 Stretch                  9    33                       1.66648
   23 Stretch                  9    75                       1.65406
   24 Stretch                  9    98                       1.67349
   25 Stretch                  9   108                       1.65512
   26 Stretch                 10    83                       1.66309
   27 Stretch                 10   117                       1.67582
   28 Stretch                 10   149                       1.66510
   29 Stretch                 11    45                       0.97424
   30 Stretch                 12    19                       1.67830
   31 Stretch                 12    35                       1.65263
   32 Stretch                 12   103                       1.67065
   33 Stretch                 12   104                       1.65869
   34 Stretch                 13    23                       1.67545
   35 Stretch                 13   107                       1.66340
   36 Stretch                 13   115                       1.64375
   37 Stretch                 13   147                       1.66894
   38 Stretch                 14    27                       1.65517
   39 Stretch                 14    32                       1.66639
   40 Stretch                 14    54                       1.66194
   41 Stretch                 14   119                       1.67050
   42 Stretch                 15    81                       0.98353
   43 Stretch                 16    43                       1.67322
   44 Stretch                 16    45                       1.67334
   45 Stretch                 16    62                       1.65579
   46 Stretch                 16    80                       1.65881
   47 Stretch                 17    22                       1.65481
   48 Stretch                 17    44                       1.69132
   49 Stretch                 17    52                       1.67299
   50 Stretch                 17    66                       1.65400
   51 Stretch                 18    26                       1.65243
   52 Stretch                 18    56                       1.66318
   53 Stretch                 18    68                       1.66232
   54 Stretch                 18   146                       1.68545
   55 Stretch                 19    30                       0.98055
   56 Stretch                 20    72                       0.95369
   57 Stretch                 20   139                       1.65807
   58 Stretch                 21    73                       0.95326
   59 Stretch                 21   143                       1.65618
   60 Stretch                 22    48                       0.96932
   61 Stretch                 23    99                       0.98445
   62 Stretch                 24    76                       0.95931
   63 Stretch                 24   140                       1.65223
   64 Stretch                 25    77                       0.95662
   65 Stretch                 25   144                       1.67113
   66 Stretch                 26   102                       0.97632
   67 Stretch                 27    40                       0.95379
   68 Stretch                 28    36                       1.66011
   69 Stretch                 28    87                       0.96087
   70 Stretch                 29    37                       1.65719
   71 Stretch                 29    96                       0.95656
   72 Stretch                 31    80                       0.95301
   73 Stretch                 32   118                       0.98953
   74 Stretch                 33    90                       0.98372
   75 Stretch                 34    42                       1.65028
   76 Stretch                 34   100                       0.95416
   77 Stretch                 35   106                       1.67338
   78 Stretch                 36    51                       1.67337
   79 Stretch                 36    92                       1.65724
   80 Stretch                 36    97                       1.66656
   81 Stretch                 37    47                       1.66683
   82 Stretch                 37    79                       1.66471
   83 Stretch                 37    93                       1.65948
   84 Stretch                 38    46                       1.66094
   85 Stretch                 38   139                       1.66924
   86 Stretch                 39    50                       1.66306
   87 Stretch                 39   143                       1.66962
   88 Stretch                 41   128                       0.97034
   89 Stretch                 42    74                       1.67299
   90 Stretch                 42    91                       1.66159
   91 Stretch                 42   136                       1.67112
   92 Stretch                 43   106                       1.65927
   93 Stretch                 44   110                       1.65483
   94 Stretch                 46    53                       1.66632
   95 Stretch                 46    75                       1.66369
   96 Stretch                 46    95                       1.65399
   97 Stretch                 47   110                       1.66055
   98 Stretch                 49    78                       0.95582
   99 Stretch                 50    57                       1.66742
  100 Stretch                 50    83                       1.66812
  101 Stretch                 50   101                       1.65456
  102 Stretch                 51   110                       1.65914
  103 Stretch                 54   114                       1.66089
  104 Stretch                 55   105                       0.95394
  105 Stretch                 55   122                       1.65383
  106 Stretch                 58   116                       0.95397
  107 Stretch                 59   126                       1.66224
  108 Stretch                 59   140                       1.67447
  109 Stretch                 61   147                       0.98638
  110 Stretch                 62   153                       0.95449
  111 Stretch                 63   130                       1.68644
  112 Stretch                 63   144                       1.68468
  113 Stretch                 64    92                       0.95315
  114 Stretch                 65   122                       1.67651
  115 Stretch                 66   152                       0.95330
  116 Stretch                 67    93                       0.95310
  117 Stretch                 68   151                       0.95278
  118 Stretch                 69   101                       0.95356
  119 Stretch                 70   135                       0.95385
  120 Stretch                 71   132                       0.95325
  121 Stretch                 78   114                       1.67709
  122 Stretch                 79   114                       1.65643
  123 Stretch                 82    94                       0.95687
  124 Stretch                 84   113                       0.96619
  125 Stretch                 84   139                       1.65671
  126 Stretch                 85   143                       1.65549
  127 Stretch                 85   148                       0.96666
  128 Stretch                 86   111                       0.96361
  129 Stretch                 88   140                       1.66653
  130 Stretch                 88   150                       0.95670
  131 Stretch                 89   112                       0.96800
  132 Stretch                 89   144                       1.64466
  133 Stretch                 91   139                       1.66977
  134 Stretch                 95   143                       1.67744
  135 Stretch                 97   106                       1.66180
  136 Stretch                 98   123                       0.97866
  137 Stretch                103   122                       1.65586
  138 Stretch                104   120                       0.95359
  139 Stretch                106   132                       1.65761
  140 Stretch                107   126                       1.64843
  141 Stretch                108   126                       1.66412
  142 Stretch                109   122                       1.66656
  143 Stretch                109   140                       1.66293
  144 Stretch                110   115                       1.67814
  145 Stretch                114   146                       1.65759
  146 Stretch                117   131                       0.98232
  147 Stretch                119   130                       1.65930
  148 Stretch                121   134                       0.95675
  149 Stretch                124   154                       2.97777
  150 Stretch                124   138                       0.96080
  151 Stretch                125   141                       0.96295
  152 Stretch                126   127                       1.65880
  153 Stretch                127   144                       1.66662
  154 Stretch                129   142                       0.95654
  155 Stretch                130   135                       1.65177
  156 Stretch                130   149                       1.65974
  157 Stretch                137   145                       0.95372
  158 Bend                     1    10    83               112.69296
  159 Bend                     1    10   117               110.27683
  160 Bend                     1    10   149               109.77870
  161 Bend                     2   133     8               141.03308
  162 Bend                     3    18    26               111.58497
  163 Bend                     3    18    68               109.23962
  164 Bend                     3    18   146               109.73355
  165 Bend                     4   125   141               162.81202
  166 Bend                     4   128    41               145.59182
  167 Bend                     4   136    42               154.15053
  168 Bend                     5    53    46               168.12680
  169 Bend                     5    81    15               149.06978
  170 Bend                     5   129   142               159.38128
  171 Bend                     5   134   121               161.57119
  172 Bend                     6    57    50               172.30617
  173 Bend                     6   138   124               153.74069
  174 Bend                     7    52    17               142.69301
  175 Bend                     8    65   122               165.92748
  176 Bend                     8    74    42               169.73134
  177 Bend                     8    94    82               154.73862
  178 Bend                     9    33    90               143.40250
  179 Bend                     9    75    46               171.82927
  180 Bend                     9    98   123               138.88493
  181 Bend                     9   108   126               171.34113
  182 Bend                    10    83    50               167.86401
  183 Bend                    10   117   131               138.71599
  184 Bend                    10   149   130               171.82097
  185 Bend                    11    45    16               141.99661
  186 Bend                    12    19    30               133.30614
  187 Bend                    12    35   106               172.70482
  188 Bend                    12   103   122               172.12279
  189 Bend                    13    23    99               132.05709
  190 Bend                    13   107   126               166.80534
  191 Bend                    13   115   110               167.92025
  192 Bend                    13   147    61               144.96113
  193 Bend                    14    27    40               172.88213
  194 Bend                    14    32   118               145.50789
  195 Bend                    14    54   114               173.02846
  196 Bend                    14   119   130               172.34221
  197 Bend                    16    43   106               170.42111
  198 Bend                    16    62   153               168.36620
  199 Bend                    17    22    48               156.57251
  200 Bend                    17    44   110               143.54885
  201 Bend                    18    26   102               166.10991
  202 Bend                    18   146   114               154.45371
  203 Bend                    19    12    35               111.70198
  204 Bend                    19    12   103               104.57830
  205 Bend                    19    12   104               110.24950
  206 Bend                    20   139    38               110.12785
  207 Bend                    20   139    84               111.07697
  208 Bend                    20   139    91               109.31544
  209 Bend                    21   143    39               110.77453
  210 Bend                    21   143    85               112.26187
  211 Bend                    21   143    95               110.34251
  212 Bend                    22    17    44               104.67341
  213 Bend                    22    17    52               110.33174
  214 Bend                    22    17    66               113.45690
  215 Bend                    23    13   107               106.06122
  216 Bend                    23    13   115               114.84266
  217 Bend                    23    13   147               108.36943
  218 Bend                    24   140    59               106.72327
  219 Bend                    24   140    88               112.79268
  220 Bend                    24   140   109               111.19627
  221 Bend                    25   144    63               108.72511
  222 Bend                    25   144    89               111.34344
  223 Bend                    25   144   127               108.36634
  224 Bend                    26    18    56               111.87295
  225 Bend                    26    18    68               111.64131
  226 Bend                    26    18   146               105.40134
  227 Bend                    27    14    32               110.72688
  228 Bend                    27    14    54               109.45559
  229 Bend                    27    14   119               111.34370
  230 Bend                    28    36    51               107.44482
  231 Bend                    28    36    92               111.28903
  232 Bend                    28    36    97               110.16381
  233 Bend                    29    37    47               107.59425
  234 Bend                    29    37    79               110.82190
  235 Bend                    29    37    93               110.82314
  236 Bend                    31    16    43               110.87050
  237 Bend                    31    16    45               110.67054
  238 Bend                    31    16    62               110.46499
  239 Bend                    32    14    54               110.02877
  240 Bend                    32    14   119               107.64661
  241 Bend                    33     9    75               110.94407
  242 Bend                    33     9    98               109.26164
  243 Bend                    33     9   108               109.92887
  244 Bend                    34    42    74               111.46323
  245 Bend                    34    42    91               110.65662
  246 Bend                    34    42   136               113.06169
  247 Bend                    35    12   103               110.18987
  248 Bend                    35    12   104               110.15105
  249 Bend                    35   106    43               109.44063
  250 Bend                    35   106    97               107.46078
  251 Bend                    35   106   132               109.14933
  252 Bend                    36    51   110               159.44983
  253 Bend                    36    97   106               165.92839
  254 Bend                    37    29    96               170.67884
  255 Bend                    37    47   110               164.44945
  256 Bend                    37    79   114               172.13599
  257 Bend                    38    46    53               109.56454
  258 Bend                    38    46    75               107.92173
  259 Bend                    38    46    95               110.28251
  260 Bend                    38   139    84               108.37493
  261 Bend                    38   139    91               107.71450
  262 Bend                    39    50    57               109.15223
  263 Bend                    39    50    83               106.64603
  264 Bend                    39    50   101               111.45726
  265 Bend                    39   143    85               108.15097
  266 Bend                    39   143    95               107.24013
  267 Bend                    42    91   139               168.95958
  268 Bend                    43    16    45               105.55933
  269 Bend                    43    16    62               109.78844
  270 Bend                    43    16    80               110.11437
  271 Bend                    43   106    97               107.93772
  272 Bend                    43   106   132               111.24820
  273 Bend                    44    17    52               105.58543
  274 Bend                    44    17    66               111.25236
  275 Bend                    44   110    47               114.40178
  276 Bend                    44   110    51               117.67681
  277 Bend                    44   110   115               103.63830
  278 Bend                    45    16    62               109.36854
  279 Bend                    45    16    80               111.04265
  280 Bend                    46    38   139               170.98029
  281 Bend                    46    95   143               161.13016
  282 Bend                    47    37    79               107.22954
  283 Bend                    47    37    93               110.56880
  284 Bend                    47   110    51               105.85024
  285 Bend                    47   110   115               106.90837
  286 Bend                    49    78   114               158.85218
  287 Bend                    50    39   143               169.47889
  288 Bend                    51    36    92               110.86271
  289 Bend                    51    36    97               106.30531
  290 Bend                    51   110   115               107.73631
  291 Bend                    52    17    66               111.08028
  292 Bend                    53     5    81               109.25862
  293 Bend                    53     5   129               109.82040
  294 Bend                    53     5   134               109.39785
  295 Bend                    53    46    75               106.88011
  296 Bend                    53    46    95               114.66294
  297 Bend                    54    14   119               107.57332
  298 Bend                    54   114    78               108.50818
  299 Bend                    54   114    79               110.27524
  300 Bend                    54   114   146               106.32385
  301 Bend                    55   122    65               110.80907
  302 Bend                    55   122   103               110.98061
  303 Bend                    55   122   109               110.52890
  304 Bend                    56    18    68               109.39765
  305 Bend                    56    18   146               109.26008
  306 Bend                    57     6    86               109.95808
  307 Bend                    57     6   137               110.77937
  308 Bend                    57     6   138               106.88492
  309 Bend                    57    50    83               107.24500
  310 Bend                    57    50   101               110.75929
  311 Bend                    58     4   125               111.74429
  312 Bend                    58     4   128               112.19955
  313 Bend                    58     4   136               111.28384
  314 Bend                    59   126   107               110.32913
  315 Bend                    59   126   108               109.52036
  316 Bend                    59   126   127               110.23763
  317 Bend                    59   140    88               107.54758
  318 Bend                    59   140   109               109.11138
  319 Bend                    60    10    83               113.74772
  320 Bend                    60    10   117               109.34275
  321 Bend                    60    10   149               109.62917
  322 Bend                    62    16    80               110.83239
  323 Bend                    63   130   119               106.27513
  324 Bend                    63   130   135               109.94416
  325 Bend                    63   130   149               109.43348
  326 Bend                    63   144    89               109.08341
  327 Bend                    63   144   127               106.49900
  328 Bend                    64    36    28               112.38689
  329 Bend                    64    36    51               110.07900
  330 Bend                    64    36    97               110.24445
  331 Bend                    65     8    74               109.94844
  332 Bend                    65     8    94               110.38323
  333 Bend                    65     8   133               111.63243
  334 Bend                    65   122   103               107.63780
  335 Bend                    65   122   109               105.31428
  336 Bend                    67    37    29               112.39043
  337 Bend                    67    37    47               109.53855
  338 Bend                    67    37    79               109.11992
  339 Bend                    68    18   146               109.15168
  340 Bend                    69    50    39               111.55098
  341 Bend                    69    50    57               111.02354
  342 Bend                    69    50    83               111.03108
  343 Bend                    70   130    63               110.15098
  344 Bend                    70   130   119               113.07499
  345 Bend                    70   130   149               110.76508
  346 Bend                    71   106    35               110.19876
  347 Bend                    71   106    43               110.49520
  348 Bend                    71   106    97               111.22306
  349 Bend                    72   139    38               109.93061
  350 Bend                    72   139    84               112.14306
  351 Bend                    72   139    91               108.41714
  352 Bend                    73   143    39               110.59571
  353 Bend                    73   143    85               112.29061
  354 Bend                    73   143    95               110.49287
  355 Bend                    74     8    94               108.66938
  356 Bend                    74     8   133               108.37224
  357 Bend                    74    42    91               109.67194
  358 Bend                    74    42   136               102.43367
  359 Bend                    75     9    98               108.30872
  360 Bend                    75     9   108               108.56264
  361 Bend                    75    46    95               107.24615
  362 Bend                    76    24   140               159.85118
  363 Bend                    77    25   144               158.24728
  364 Bend                    78   114    79               108.58587
  365 Bend                    78   114   146               113.21275
  366 Bend                    79    37    93               109.72281
  367 Bend                    79   114   146               109.90432
  368 Bend                    81     5   129               109.37435
  369 Bend                    81     5   134               110.11941
  370 Bend                    83    10   117               107.09174
  371 Bend                    83    10   149               108.73001
  372 Bend                    83    50   101               111.39974
  373 Bend                    84   139    91               110.16645
  374 Bend                    85   143    95               107.88751
  375 Bend                    86     6   137               111.37441
  376 Bend                    86     6   138               109.73751
  377 Bend                    87    36    51               105.71904
  378 Bend                    87    36    92               113.08902
  379 Bend                    87    36    97               109.93405
  380 Bend                    88   140   109               109.31873
  381 Bend                    89   144   127               112.64505
  382 Bend                    91    42   136               109.24201
  383 Bend                    92    36    97               110.61101
  384 Bend                    94     8   133               107.74802
  385 Bend                    97   106   132               111.51135
  386 Bend                    98     9   108               109.80911
  387 Bend                   100    42    74               110.87426
  388 Bend                   100    42    91               110.08497
  389 Bend                   100    42   136               114.25364
  390 Bend                   103    12   104               109.83707
  391 Bend                   103   122   109               111.39358
  392 Bend                   105   122    65               112.65140
  393 Bend                   105   122   103               109.93014
  394 Bend                   105   122   109               109.84006
  395 Bend                   107    13   115               107.71739
  396 Bend                   107    13   147               107.92040
  397 Bend                   107   126   108               104.26601
  398 Bend                   107   126   127               111.33464
  399 Bend                   108   126   127               111.00270
  400 Bend                   111     6    57               108.57270
  401 Bend                   111     6   137               111.16942
  402 Bend                   111     6   138               111.37872
  403 Bend                   112    89   144               170.22797
  404 Bend                   113    84   139               158.13494
  405 Bend                   115    13   147               111.58175
  406 Bend                   116     4   125               112.53960
  407 Bend                   116     4   128               111.11526
  408 Bend                   116     4   136               111.45734
  409 Bend                   117    10   149               108.13247
  410 Bend                   119   130   135               112.80592
  411 Bend                   119   130   149               106.96796
  412 Bend                   120    12    19               110.12070
  413 Bend                   120    12    35               109.28749
  414 Bend                   120    12   103               110.90581
  415 Bend                   122   140    24               111.09607
  416 Bend                   122   140    59               108.34690
  417 Bend                   122   140    88               110.11895
  418 Bend                   125     4   128               106.64060
  419 Bend                   125     4   136               111.78211
  420 Bend                   126    59   140               168.82039
  421 Bend                   126   144    25               108.01550
  422 Bend                   126   144    63               104.19610
  423 Bend                   126   144    89               115.10291
  424 Bend                   128     4   136               102.77738
  425 Bend                   129     5   134               108.85817
  426 Bend                   130    63   144               150.70074
  427 Bend                   135   130   149               111.23062
  428 Bend                   137     6   138               107.98050
  429 Bend                   138   124   154               138.30384
  430 Bend                   140    88   150               165.28372
  431 Bend                   140   122    55               111.43963
  432 Bend                   140   122    65               104.79025
  433 Bend                   140   122   103               110.95181
  434 Bend                   143    85   148               169.50331
  435 Bend                   144   126    59               112.37697
  436 Bend                   144   126   107               111.61731
  437 Bend                   144   126   108               108.38256
  438 Bend                   145     6    57               109.66728
  439 Bend                   145     6    86               111.78903
  440 Bend                   145     6   138               108.67217
  441 Bend                   151    18    26               110.49762
  442 Bend                   151    18    56               110.62468
  443 Bend                   151    18   146               109.01465
  444 Bend                   152    17    22               115.16235
  445 Bend                   152    17    44               111.22059
  446 Bend                   152    17    52               109.38084
  447 Torsion                  1    10    83    50        -176.93593
  448 Torsion                  1    10   117   131        -142.95171
  449 Torsion                  1    10   149   130         -64.15562
  450 Torsion                  2   133     8    65         179.89734
  451 Torsion                  2   133     8    74         -58.87437
  452 Torsion                  2   133     8    94          58.54203
  453 Torsion                  4   136    42    34        -131.24192
  454 Torsion                  4   136    42    74         -11.16874
  455 Torsion                  4   136    42    91         105.06775
  456 Torsion                  5    53    46    38         -73.28663
  457 Torsion                  5    53    46    75          43.40037
  458 Torsion                  5    53    46    95         162.10258
  459 Torsion                  6    57    50    39         -78.14032
  460 Torsion                  6    57    50    83          37.03080
  461 Torsion                  6    57    50   101         158.78222
  462 Torsion                  6   138   124   154         158.63276
  463 Torsion                  7    52    17    22          36.31434
  464 Torsion                  7    52    17    44         -76.25536
  465 Torsion                  7    52    17    66         163.02595
  466 Torsion                  8    65   122    55         113.65235
  467 Torsion                  8    65   122   103        -124.82969
  468 Torsion                  8    65   122   109          -5.88778
  469 Torsion                  8    74    42    34         144.57929
  470 Torsion                  8    74    42    91         -92.52544
  471 Torsion                  8    74    42   136          23.40076
  472 Torsion                  9    75    46    38         -37.70660
  473 Torsion                  9    75    46    53        -155.47696
  474 Torsion                  9    75    46    95          81.10141
  475 Torsion                  9   108   126    59         -68.11180
  476 Torsion                  9   108   126   107          49.95291
  477 Torsion                  9   108   126   127         169.93453
  478 Torsion                 10    83    50    39          26.17498
  479 Torsion                 10    83    50    57         -90.65581
  480 Torsion                 10    83    50   101         147.99482
  481 Torsion                 10   149   130    63         -99.73996
  482 Torsion                 10   149   130   119          14.99091
  483 Torsion                 10   149   130   135         138.58426
  484 Torsion                 11    45    16    43          -4.67826
  485 Torsion                 11    45    16    62        -122.73796
  486 Torsion                 11    45    16    80         114.63635
  487 Torsion                 12    35   106    43         171.53268
  488 Torsion                 12    35   106    97         -71.50531
  489 Torsion                 12    35   106   132          49.56825
  490 Torsion                 12   103   122    55         150.64792
  491 Torsion                 12   103   122    65          29.23698
  492 Torsion                 12   103   122   109         -85.73727
  493 Torsion                 13   107   126    59         119.50353
  494 Torsion                 13   107   126   108           1.99518
  495 Torsion                 13   107   126   127        -117.76263
  496 Torsion                 13   115   110    44        -165.36592
  497 Torsion                 13   115   110    47         -44.16212
  498 Torsion                 13   115   110    51          69.22462
  499 Torsion                 14    54   114    78         134.87286
  500 Torsion                 14    54   114    79        -106.31261
  501 Torsion                 14    54   114   146          12.79010
  502 Torsion                 14   119   130    63          87.96540
  503 Torsion                 14   119   130   135        -151.48799
  504 Torsion                 14   119   130   149         -28.87173
  505 Torsion                 15    81     5    53         107.60107
  506 Torsion                 15    81     5   129         -12.63704
  507 Torsion                 15    81     5   134        -132.22227
  508 Torsion                 16    43   106    35          66.03009
  509 Torsion                 16    43   106    97         -50.63076
  510 Torsion                 16    43   106   132        -173.27409
  511 Torsion                 17    44   110    47        -100.59293
  512 Torsion                 17    44   110    51         134.19490
  513 Torsion                 17    44   110   115          15.42867
  514 Torsion                 18   146   114    54         -43.68015
  515 Torsion                 18   146   114    78        -162.72618
  516 Torsion                 18   146   114    79          75.66506
  517 Torsion                 19    12    35   106         155.87494
  518 Torsion                 19    12   103   122          37.16562
  519 Torsion                 12    19   104   120        -174.72171
  520 Torsion                 20   139    38    46         139.43555
  521 Torsion                 20   139    84   113         -80.59014
  522 Torsion                 20   139    91    42          73.59723
  523 Torsion                 21   143    39    50         160.88866
  524 Torsion                 21   143    85   148        -147.11724
  525 Torsion                 21   143    95    46        -152.79319
  526 Torsion                 22    17    44   110         -59.46037
  527 Torsion                 17    22    66   152        -175.01151
  528 Torsion                 23    13   107   126          71.66053
  529 Torsion                 23    13   115   110         133.63044
  530 Torsion                 23    13   147    61        -120.17590
  531 Torsion                 24   140    59   126         -57.52088
  532 Torsion                 24   140    88   150         -32.63909
  533 Torsion                 24   140   122    55         -91.28384
  534 Torsion                 24   140   122    65          28.61212
  535 Torsion                 24   140   122   103         144.50348
  536 Torsion                122   109    24   140        -176.78577
  537 Torsion                 25   144    63   130         160.64124
  538 Torsion                 25   144    89   112        -169.35324
  539 Torsion                 25   144   126    59         -57.88439
  540 Torsion                 25   144   126   107         177.55520
  541 Torsion                 25   144   126   108          63.28686
  542 Torsion                126   127    25   144        -170.82274
  543 Torsion                  3    56    26    18         178.13971
  544 Torsion                 18    26    68   151         176.79572
  545 Torsion                 26    18   146   114           3.33151
  546 Torsion                 27    14    32   118        -140.48283
  547 Torsion                 27    14    54   114         -44.59729
  548 Torsion                 27    14   119   130         125.84579
  549 Torsion                 28    36    51   110          -8.20782
  550 Torsion                 36    28    92    64         178.54814
  551 Torsion                 28    36    97   106          90.75231
  552 Torsion                 29    37    47   110          -1.19868
  553 Torsion                 29    37    79   114        -107.85383
  554 Torsion                 37    29    93    67        -178.37960
  555 Torsion                 30    19    12    35        -161.31268
  556 Torsion                 30    19    12   103         -42.14770
  557 Torsion                 30    19    12   104          75.86576
  558 Torsion                 32    14    27    40         -64.19760
  559 Torsion                 32    14    54   114          77.29202
  560 Torsion                 32    14   119   130           4.30909
  561 Torsion                 33     9    75    46        -122.92464
  562 Torsion                 33     9    98   123        -132.12583
  563 Torsion                 33     9   108   126         -85.15111
  564 Torsion                 34    42    91   139        -145.75977
  565 Torsion                 35    12   103   122         157.34650
  566 Torsion                 12    35   104   120         176.71724
  567 Torsion                 35   106    97    36         -72.22860
  568 Torsion                 71   132    35   106        -178.74695
  569 Torsion                 36    51   110    44        -179.24655
  570 Torsion                 36    51   110    47          51.41778
  571 Torsion                 36    51   110   115         -62.67612
  572 Torsion                 36    97   106    43          45.71208
  573 Torsion                 36    97   106   132         168.19409
  574 Torsion                 37    47   110    44         161.12674
  575 Torsion                 37    47   110    51         -67.64911
  576 Torsion                 37    47   110   115          47.01462
  577 Torsion                 37    79   114    54          40.54380
  578 Torsion                 37    79   114    78         159.31091
  579 Torsion                 37    79   114   146         -76.35576
  580 Torsion                 38    46    95   143          82.49927
  581 Torsion                 72    20    38   139        -174.73755
  582 Torsion                 38   139    84   113          40.51582
  583 Torsion                 38   139    91    42         -46.05584
  584 Torsion                 50    39   101    69        -178.19967
  585 Torsion                 73    21    39   143         179.64994
  586 Torsion                 39   143    85   148         -24.60165
  587 Torsion                 39   143    95    46          86.46753
  588 Torsion                 40    27    14    54          57.27149
  589 Torsion                 40    27    14   119         176.07613
  590 Torsion                 41   128     4   116         -73.92082
  591 Torsion                 41   128     4   125         163.10273
  592 Torsion                 41   128     4   136          45.39813
  593 Torsion                 42    74     8    65         170.72992
  594 Torsion                 42    74     8    94         -68.35646
  595 Torsion                 42    74     8   133          48.46818
  596 Torsion                 42    91   139    84        -164.08028
  597 Torsion                 42   136     4   116         132.97942
  598 Torsion                 42   136     4   125        -100.10750
  599 Torsion                 42   136     4   128          13.89894
  600 Torsion                 43    16    62   153        -104.75340
  601 Torsion                 16    43    80    31        -179.81637
  602 Torsion                 71   132    43   106        -176.43588
  603 Torsion                 44    17    22    48           6.87194
  604 Torsion                 17    44    66   152         170.86510
  605 Torsion                 45    16    43   106         -33.11152
  606 Torsion                 45    16    62   153          10.62868
  607 Torsion                 16    45    80    31        -176.89952
  608 Torsion                 46    38   139    84          17.74501
  609 Torsion                 46    38   139    91        -101.42835
  610 Torsion                 46    53     5    81          17.64218
  611 Torsion                 46    53     5   129         137.60635
  612 Torsion                 46    53     5   134        -102.97630
  613 Torsion                 46    75     9    98         117.16139
  614 Torsion                 46    75     9   108          -2.02569
  615 Torsion                 46    95   143    85         -29.82155
  616 Torsion                 47    37    29    96         -34.05414
  617 Torsion                 47    37    79   114           9.30940
  618 Torsion                 37    47    93    67        -174.52145
  619 Torsion                 48    22    17    52        -106.28259
  620 Torsion                 48    22    17    66         128.34333
  621 Torsion                 49    78   114    54        -122.50702
  622 Torsion                 49    78   114    79         117.61838
  623 Torsion                 49    78   114   146          -4.72768
  624 Torsion                 50    39   143    85          37.46891
  625 Torsion                 50    39   143    95         -78.64601
  626 Torsion                 50    57     6    86          84.89904
  627 Torsion                 50    57     6   137        -151.56092
  628 Torsion                 50    57     6   138         -34.15949
  629 Torsion                 50    83    10   117          61.62641
  630 Torsion                 50    83    10   149         -54.99277
  631 Torsion                 36    51    28    87        -175.62266
  632 Torsion                 36    51    92    64         176.26662
  633 Torsion                 51    36    97   106         -25.36183
  634 Torsion                 52    17    44   110          57.02169
  635 Torsion                 17    52    66   152        -176.13143
  636 Torsion                 53     5   129   142          83.15822
  637 Torsion                 53     5   134   121        -174.00838
  638 Torsion                 53    46    38   139         148.25837
  639 Torsion                 53    46    95   143        -153.26971
  640 Torsion                 54    14    32   118          98.38640
  641 Torsion                 54    14   119   130        -114.22924
  642 Torsion                 55   122   140    59         151.78783
  643 Torsion                 55   122   140    88          34.41565
  644 Torsion                122    55   109   140         179.69706
  645 Torsion                 56    18    26   102        -138.53296
  646 Torsion                 18    56    68   151         177.18258
  647 Torsion                 56    18   146   114         123.70203
  648 Torsion                  6    57    86   111        -175.10371
  649 Torsion                  6    57   137   145         179.02727
  650 Torsion                 57     6   138   124        -116.15100
  651 Torsion                 57    50    39   143          87.46664
  652 Torsion                 50    57   101    69         178.66020
  653 Torsion                 59   126   144    63        -173.38252
  654 Torsion                 59   126   144    89          67.21556
  655 Torsion                126    59   127   144         173.16920
  656 Torsion                 59   140    24    76          18.82702
  657 Torsion                 59   140    88   150          84.76293
  658 Torsion                 59   140   122    65         -88.31620
  659 Torsion                 59   140   122   103          27.57515
  660 Torsion                122   109    59   140         178.32339
  661 Torsion                 61   147    13   107          -5.73419
  662 Torsion                 61   147    13   115         112.42157
  663 Torsion                 62    16    43   106          84.66635
  664 Torsion                 16    62    80    31         176.87850
  665 Torsion                 70   135    63   130         177.99988
  666 Torsion                 63   144    25    77         -47.28500
  667 Torsion                 63   144    89   112         -49.36018
  668 Torsion                 63   144   126   107          62.05706
  669 Torsion                 63   144   126   108         -52.21128
  670 Torsion                126   127    63   144         175.38957
  671 Torsion                 65     8    94    82          -3.65680
  672 Torsion                105    55    65   122        -179.14993
  673 Torsion                 65   122   140    88         154.31161
  674 Torsion                122    65   109   140         177.58889
  675 Torsion                 66    17    44   110         177.62800
  676 Torsion                 68    18    26   102          98.48980
  677 Torsion                  3    56    68    18        -177.86153
  678 Torsion                 68    18   146   114        -116.70905
  679 Torsion                 74     8    65   122         -24.22920
  680 Torsion                 74     8    94    82        -124.30234
  681 Torsion                 42    74    34   100        -175.18100
  682 Torsion                 74    42    91   139          90.86911
  683 Torsion                 75     9    33    90         -59.32154
  684 Torsion                 75     9    98   123         -11.16383
  685 Torsion                 75     9   108   126         153.32559
  686 Torsion                 75    46    38   139          32.23022
  687 Torsion                 75    46    95   143         -34.77357
  688 Torsion                 76    24   140    88         136.71425
  689 Torsion                 76    24   140   109        -100.06680
  690 Torsion                 77    25   144    89          72.91975
  691 Torsion                 77    25   144   127        -162.65771
  692 Torsion                 79    37    29    96          82.88511
  693 Torsion                 79    37    47   110        -120.45840
  694 Torsion                 37    79    93    67         173.25271
  695 Torsion                 80    16    43   106        -153.03911
  696 Torsion                 80    16    62   153         133.37974
  697 Torsion                 81     5   129   142        -156.94808
  698 Torsion                 81     5   134   121          65.89909
  699 Torsion                 82    94     8   133         118.47395
  700 Torsion                 10    83     1    60         177.48570
  701 Torsion                 83    10   117   131         -20.00333
  702 Torsion                 83    10   149   130         172.14517
  703 Torsion                 83    50    39   143         -28.08947
  704 Torsion                 50    83   101    69         179.54490
  705 Torsion                 72    20    84   139         177.93634
  706 Torsion                 73    21    85   143        -179.05837
  707 Torsion                  6    86   137   145        -174.72117
  708 Torsion                 86     6   138   124         124.64759
  709 Torsion                 88   140    59   126        -178.80323
  710 Torsion                 88   140   122   103         -89.79703
  711 Torsion                122   109    88   140         178.39994
  712 Torsion                 89   144    63   130          39.04599
  713 Torsion                 89   144   126   107         -57.34485
  714 Torsion                 89   144   126   108        -171.61319
  715 Torsion                126   127    89   144         174.78735
  716 Torsion                 90    33     9    98          60.02254
  717 Torsion                 90    33     9   108        -179.41049
  718 Torsion                 42    91    34   100         175.16307
  719 Torsion                 72    20    91   139         176.88865
  720 Torsion                 91   139    84   113         158.13253
  721 Torsion                 36    92    28    87        -174.93129
  722 Torsion                 92    36    51   110        -130.01365
  723 Torsion                 92    36    97   106        -145.78909
  724 Torsion                 93    37    29    96        -155.04723
  725 Torsion                 93    37    47   110         119.95388
  726 Torsion                 93    37    79   114         129.43777
  727 Torsion                 94     8    65   122        -144.10663
  728 Torsion                 95    46    38   139         -84.62357
  729 Torsion                 73    21    95   143         179.41469
  730 Torsion                 95   143    85   148          91.09134
  731 Torsion                 36    97    28    87         170.63166
  732 Torsion                 97    36    51   110         109.72186
  733 Torsion                 36    97    92    64        -174.98642
  734 Torsion                 71   132    97   106         175.05008
  735 Torsion                 98     9   108   126          35.08479
  736 Torsion                 99    23    13   107         -61.31800
  737 Torsion                 99    23    13   115         179.84852
  738 Torsion                 99    23    13   147          54.33928
  739 Torsion                101    50    39   143        -149.87290
  740 Torsion                102    26    18   146         -19.89511
  741 Torsion                103    12    35   106          40.09017
  742 Torsion                 12   103   104   120         178.18102
  743 Torsion                105    55   103   122        -173.14892
  744 Torsion                122   103   109   140        -177.20668
  745 Torsion                104    12    35   106         -81.24740
  746 Torsion                104    12   103   122         -81.12900
  747 Torsion                107    13   115   110          15.72825
  748 Torsion                107   126    59   140        -130.84642
  749 Torsion                126   107   127   144        -170.12965
  750 Torsion                108     9    98   123         107.23404
  751 Torsion                108   126    59   140         -16.63130
  752 Torsion                126   108   127   144         177.14925
  753 Torsion                105    55   109   122         172.17428
  754 Torsion                109   140    59   126          62.72172
  755 Torsion                109   140    88   150        -156.89564
  756 Torsion                110   115    13   147        -102.54913
  757 Torsion                112    89   144   127          68.67045
  758 Torsion                114    54    14   119        -165.71339
  759 Torsion                115    13   107   126        -164.90798
  760 Torsion                116     4   125   141        -140.48330
  761 Torsion                 10   117     1    60         176.94489
  762 Torsion                117    10   149   130          56.19493
  763 Torsion                118    32    14   119         -18.56248
  764 Torsion                119   130    63   144          -0.57422
  765 Torsion                 70   135   119   130        -178.08320
  766 Torsion                121   134     5   129         -53.99927
  767 Torsion                122    65     8   133          96.07917
  768 Torsion                124   138     6   137           3.07796
  769 Torsion                  4   125   116    58         176.28480
  770 Torsion                126   107    13   147         -44.30103
  771 Torsion                127   126    59   140         105.77982
  772 Torsion                127   144    63   130         -82.78242
  773 Torsion                  4   128   116    58         178.46717
  774 Torsion                128     4   125   141         -18.40136
  775 Torsion                131   117    10   149          97.00979
  776 Torsion                134     5   129   142         -36.58887
  777 Torsion                135   130    63   144        -122.95158
  778 Torsion                  4   136   116    58        -174.70532
  779 Torsion                136     4   125   141          93.19195
  780 Torsion                 42   136    34   100        -179.48993
  781 Torsion                136    42    91   139         -20.65993
  782 Torsion                  6   137    86   111         171.61957
  783 Torsion                  6   138    86   111        -176.29952
  784 Torsion                  6   138   137   145         175.67099
  785 Torsion                144    63   130   149         114.60114
  786 Torsion                  3    56   146    18         179.57912
  787 Torsion                 18   146    68   151        -173.78476
  788 Torsion                 10   149     1    60        -174.63173
  789 Torsion                 70   135   149   130        -179.80825


            XYZ format geometry
            -------------------
   154
 geometry
 O                     4.66600803     1.83886468     3.37316013
 H                    -1.79618971    -5.80172402     0.74045518
 H                     4.64980439     9.74119448    -3.40827747
 Si                   -1.92896869    -8.82106096    -2.38135995
 Si                    0.76752651    -7.57054380     1.03987305
 Si                    2.65249864    -3.80601334     4.67611436
 H                     1.78776155     6.12643324     0.58330640
 Si                   -3.61079592    -5.02341616    -0.80706930
 Si                    0.26600258    -2.30868575     0.92557462
 Si                    4.17209945     0.62592146     2.36476286
 H                    -1.82740589     3.20960024     3.15371486
 Si                   -4.44419087    -0.47711652     1.89036640
 Si                   -0.41904309     2.50323168     0.88317148
 Si                    3.80985716     4.53963729    -0.83906135
 H                    -1.62270723    -7.88350189     0.18337045
 Si                   -3.81340259     4.64920148     3.70301337
 Si                   -0.43356867     7.13275942     1.23536881
 Si                    2.37858181     8.46554176    -3.17152578
 O                    -2.78885006    -0.58937332     2.14325089
 O                     1.95078283    -5.54773779    -4.58313534
 O                     6.26301164    -4.45500977    -0.67898924
 O                    -0.71189776     6.28020817     2.62608721
 O                     1.07875422     2.73818332     1.59628589
 O                    -1.86380289    -1.99772804    -4.13675030
 O                     3.18814742    -0.94749859    -3.90806660
 O                     1.97132020     8.23839031    -1.58626547
 O                     4.93819466     5.71016081    -0.52873582
 O                    -4.37288289     2.49703753    -2.14701215
 O                    -0.89552405     2.68552939    -3.67956789
 H                    -2.12760441    -1.29155130     1.96666503
 H                    -4.49358456     4.74837517     6.22235017
 O                     2.62303968     4.53962211     0.33068689
 O                     0.94241285    -1.72548173     2.33251775
 O                    -2.90410136    -5.50648071    -5.01884947
 O                    -4.96154480     1.09220705     1.91780932
 Si                   -4.84223488     3.75241340    -1.16737297
 Si                   -0.73082609     4.33448099    -3.69013368
 O                     1.51201160    -4.85749064    -1.98094273
 O                     5.18261569    -3.11870989     1.45155026
 H                     5.50100742     6.46287196    -0.36632953
 H                    -3.63563947    -7.83466230    -0.75373726
 Si                   -2.06284178    -5.81741517    -3.63355804
 O                    -4.84343484     3.64665903     2.84649970
 O                    -1.47753187     6.44596538     0.09562869
 O                    -2.28910478     3.98125806     3.52857477
 Si                    1.95924130    -4.83377826    -0.38151985
 O                    -1.25823862     4.90296978    -2.21467623
 H                    -1.08966139     5.57963188     3.17932090
 H                     3.80808855     4.44507438    -5.82536923
 Si                    5.17791368    -2.46918954     2.98251781
 O                    -3.46964796     4.62900776    -0.78297372
 O                     1.11144176     6.83193594     0.66848700
 O                     1.52106804    -6.26957038     0.34174771
 O                     3.13499015     4.80393859    -2.33464114
 O                    -6.27833798    -1.85533220    -1.71827678
 O                     3.82750281     9.26650571    -3.33038839
 O                     3.98459314    -3.20495644     3.88524974
 H                    -3.04972157   -10.80701783    -3.64268103
 O                    -1.18487608    -0.17723417    -2.30623823
 H                     4.90903827     2.56681221     3.94018014
 H                    -1.97585835     0.97704976     2.18745258
 O                    -3.82744951     6.16614026     3.03942197
 O                     4.13858068     0.55452603    -1.83949393
 H                    -6.60315691     5.30131891    -2.31172494
 O                    -4.31687050    -3.53222484    -0.79280351
 O                    -0.70347053     8.75690012     1.39358207
 H                    -2.10769846     5.45922362    -5.60208247
 O                     1.19639082     9.29425617    -3.99552020
 H                     7.50564341    -2.71208771     4.13337645
 H                     7.58165333     1.19846663    -1.21453455
 H                    -8.17976240     2.49985453     2.45658283
 H                     2.45102358    -6.12066782    -5.15849645
 H                     7.00767806    -4.96900006    -0.97895974
 O                    -2.89853185    -5.29847836    -2.28033056
 O                     1.09549807    -3.62905845     0.37377787
 H                    -1.26975247    -2.68126406    -4.45322772
 H                     3.66041519    -1.61437027    -4.40542097
 O                     3.29198499     4.52678628    -5.02502203
 O                     0.86910000     4.76840464    -3.84246109
 O                    -4.26265639     4.69929970     5.29904321
 O                    -0.85710772    -7.52051982     0.68279714
 H                    -5.64074880    -6.54898223    -0.33884281
 O                     4.75546966    -0.86373326     2.81917299
 O                     1.17868857    -3.01153008    -3.91895591
 O                     4.76683436    -2.17577651    -1.03609775
 O                     1.95598842    -5.00247666     3.77738068
 H                    -4.02095281     1.77049338    -2.66810970
 O                    -3.09882506     0.47470801    -4.08826977
 O                     3.03087623     1.78511810    -3.98738692
 H                     1.16921007    -1.96657190     3.25887523
 O                    -0.56840591    -5.09259965    -3.68013518
 O                    -5.96539272     4.71314970    -1.91699560
 O                    -1.61353278     5.00760887    -4.92366603
 O                    -4.76323283    -6.22079083    -0.53343160
 O                     3.56199193    -4.45060556    -0.23995426
 H                    -0.95562657     1.74389258    -3.52234752
 O                    -5.44056910     3.16460104     0.27272947
 O                    -1.31566146    -2.76781840     1.22241216
 H                     1.69996104     2.11991700     2.04460479
 H                    -3.38830119    -5.27382722    -5.80741824
 O                     6.65261854    -2.63395314     3.71442058
 H                     1.66530791     7.89081982    -0.72675952
 O                    -4.68364829    -1.13674708     0.37425062
 O                    -5.26028396    -1.36777566     3.02700860
 H                    -7.14880969    -1.72324272    -2.08547446
 Si                   -5.64937880     2.61497870     1.82704862
 O                    -0.17171672     1.43104791    -0.36428872
 O                     0.30017834    -1.13829340    -0.24422517
[...]
  588 Torsion                 40    27    14    54          63.63254    6.36105
  589 Torsion                 40    27    14   119        -177.08513    6.83874
  590 Torsion                 41   128     4   116         -72.23385    1.68697
  591 Torsion                 41   128     4   125         164.80715    1.70441
  592 Torsion                 41   128     4   136          46.85317    1.45504
  593 Torsion                 42    74     8    65         175.69933    4.96942
  594 Torsion                 42    74     8    94         -63.37194    4.98453
  595 Torsion                 42    74     8   133          53.63456    5.16638
  596 Torsion                 42    91   139    84        -167.15162   -3.07134
  597 Torsion                 42   136     4   116         131.51057   -1.46884
  598 Torsion                 42   136     4   125        -101.60680   -1.49930
  599 Torsion                 42   136     4   128          12.65425   -1.24468
  600 Torsion                 43    16    62   153        -108.09028   -3.33688
  601 Torsion                 16    43    80    31        -179.85944   -0.04307
  602 Torsion                 71   132    43   106        -176.78452   -0.34864
  603 Torsion                 44    17    22    48          13.03083    6.15889
  604 Torsion                 17    44    66   152         170.51333   -0.35177
  605 Torsion                 45    16    43   106         -26.95213    6.15939
  606 Torsion                 45    16    62   153           6.98328   -3.64540
  607 Torsion                 16    45    80    31        -177.06061   -0.16109
  608 Torsion                 46    38   139    84          11.97986   -5.76515
  609 Torsion                 46    38   139    91        -108.05880   -6.63045
  610 Torsion                 46    53     5    81          15.51042   -2.13176
  611 Torsion                 46    53     5   129         135.25173   -2.35462
  612 Torsion                 46    53     5   134        -105.15087   -2.17457
  613 Torsion                 46    75     9    98         120.25380    3.09241
  614 Torsion                 46    75     9   108           0.73803    2.76372
  615 Torsion                 46    95   143    85         -33.75703   -3.93548
  616 Torsion                 47    37    29    96         -17.15052   16.90362
  617 Torsion                 47    37    79   114          -5.01758  -14.32698
  618 Torsion                 37    47    93    67        -174.51207    0.00938
  619 Torsion                 48    22    17    52        -100.21128    6.07131
  620 Torsion                 48    22    17    66         134.76633    6.42300
  621 Torsion                 49    78   114    54        -121.69506    0.81196
  622 Torsion                 49    78   114    79         118.43162    0.81324
  623 Torsion                 49    78   114   146          -3.81555    0.91213
  624 Torsion                 50    39   143    85          32.75154   -4.71736
  625 Torsion                 50    39   143    95         -83.60197   -4.95596
  626 Torsion                 50    57     6    86          85.76020    0.86115
  627 Torsion                 50    57     6   137        -150.73416    0.82675
  628 Torsion                 50    57     6   138         -33.51238    0.64711
  629 Torsion                 50    83    10   117          52.39512   -9.23130
  630 Torsion                 50    83    10   149         -63.80377   -8.81100
  631 Torsion                 36    51    28    87        -177.87279   -2.25013
  632 Torsion                 36    51    92    64         177.12943    0.86281
  633 Torsion                 51    36    97   106         -23.13404    2.22779
  634 Torsion                 52    17    44   110          61.05594    4.03426
  635 Torsion                 17    52    66   152        -176.89451   -0.76308
  636 Torsion                 53     5   129   142          87.78049    4.62227
  637 Torsion                 53     5   134   121        -172.57634    1.43204
  638 Torsion                 53    46    38   139         157.96225    9.70388
  639 Torsion                 53    46    95   143        -148.26364    5.00607
  640 Torsion                 54    14    32   118          94.29230   -4.09410
  641 Torsion                 54    14   119   130         -90.76390   23.46534
  642 Torsion                 55   122   140    59         152.64076    0.85293
  643 Torsion                 55   122   140    88          33.20611   -1.20954
  644 Torsion                122    55   109   140         167.81905  -11.87802
  645 Torsion                 56    18    26   102        -139.30148   -0.76852
  646 Torsion                 18    56    68   151         176.88513   -0.29745
  647 Torsion                 56    18   146   114         121.59441   -2.10763
  648 Torsion                  6    57    86   111        -174.90802    0.19569
  649 Torsion                  6    57   137   145         178.54047   -0.48681
  650 Torsion                 57     6   138   124        -114.93983    1.21117
  651 Torsion                 57    50    39   143          91.05919    3.59255
  652 Torsion                 50    57   101    69         179.19877    0.53857
  653 Torsion                 59   126   144    63        -178.46233   -5.07981
  654 Torsion                 59   126   144    89          63.08004   -4.13552
  655 Torsion                126    59   127   144        -178.63056    8.20024
  656 Torsion                 59   140    24    76          22.33248    3.50546
  657 Torsion                 59   140    88   150          71.64668  -13.11625
  658 Torsion                 59   140   122    65         -89.80949   -1.49328
  659 Torsion                 59   140   122   103          26.99280   -0.58235
  660 Torsion                122   109    59   140         169.22451   -9.09888
  661 Torsion                 61   147    13   107          -3.42340    2.31080
  662 Torsion                 61   147    13   115         114.79905    2.37748
  663 Torsion                 62    16    43   106          90.64755    5.98120
  664 Torsion                 16    62    80    31         177.11708    0.23858
  665 Torsion                 70   135    63   130         178.59551    0.59562
  666 Torsion                 63   144    25    77         -35.95428   11.33071
  667 Torsion                 63   144    89   112         -41.54505    7.81513
  668 Torsion                 63   144   126   107          58.13735   -3.91972
  669 Torsion                 63   144   126   108         -56.10759   -3.89631
  670 Torsion                126   127    63   144        -178.73850    5.87193
  671 Torsion                 65     8    94    82          -2.89940    0.75740
  672 Torsion                105    55    65   122        -178.84442    0.30551
  673 Torsion                 65   122   140    88         150.75587   -3.55575
  674 Torsion                122    65   109   140        -172.41257    9.99854
  675 Torsion                 66    17    44   110        -178.36228    4.00972
  676 Torsion                 68    18    26   102          97.75613   -0.73366
  677 Torsion                  3    56    68    18        -177.59213    0.26940
  678 Torsion                 68    18   146   114        -118.87372   -2.16467
  679 Torsion                 74     8    65   122         -25.06613   -0.83693
  680 Torsion                 74     8    94    82        -123.45365    0.84870
  681 Torsion                 42    74    34   100        -176.44847   -1.26748
  682 Torsion                 74    42    91   139          93.75839    2.88929
  683 Torsion                 75     9    33    90         -62.20103   -2.87949
  684 Torsion                 75     9    98   123         -15.10344   -3.93961
  685 Torsion                 75     9   108   126        -170.65634   36.01807
  686 Torsion                 75    46    38   139          42.12875    9.89853
  687 Torsion                 75    46    95   143         -29.84068    4.93288
  688 Torsion                 76    24   140    88         140.56463    3.85038
  689 Torsion                 76    24   140   109         -97.02352    3.04327
  690 Torsion                 77    25   144    89          83.71673   10.79697
  691 Torsion                 77    25   144   127        -151.66957   10.98813
  692 Torsion                 79    37    29    96          99.38906   16.50395
  693 Torsion                 79    37    47   110        -110.63406    9.82433
  694 Torsion                 37    79    93    67         174.11047    0.85776
  695 Torsion                 80    16    43   106        -146.63212    6.40699
  696 Torsion                 80    16    62   153         129.65503   -3.72471
  697 Torsion                 81     5   129   142        -152.59001    4.35807
  698 Torsion                 81     5   134   121          67.45455    1.55547
  699 Torsion                 82    94     8   133         119.19066    0.71671
  700 Torsion                 10    83     1    60         177.96625    0.48055
  701 Torsion                 83    10   117   131         -17.12147    2.88186
  702 Torsion                 83    10   149   130         154.44271  -17.70246
  703 Torsion                 83    50    39   143         -24.55591    3.53356
  704 Torsion                 50    83   101    69         178.79938   -0.74552
  705 Torsion                 72    20    84   139         178.61285    0.67651
  706 Torsion                 73    21    85   143        -179.15871   -0.10034
  707 Torsion                  6    86   137   145        -174.60840    0.11277
  708 Torsion                 86     6   138   124         125.76600    1.11841
  709 Torsion                 88   140    59   126         163.36147  -17.83530
  710 Torsion                 88   140   122   103         -92.44185   -2.64482
  711 Torsion                122   109    88   140        -167.10370   14.49635
  712 Torsion                 89   144    63   130          33.63816   -5.40783
  713 Torsion                 89   144   126   107         -60.32028   -2.97543
  714 Torsion                 89   144   126   108        -174.56522   -2.95203
  715 Torsion                126   127    89   144         170.33218   -4.45518
  716 Torsion                 90    33     9    98          57.06917   -2.95337
  717 Torsion                 90    33     9   108         178.03181   -2.55770
  718 Torsion                 42    91    34   100         176.15826    0.99519
  719 Torsion                 72    20    91   139         177.13855    0.24990
  720 Torsion                 91   139    84   113         158.62864    0.49612
  721 Torsion                 36    92    28    87        -172.47303    2.45826
  722 Torsion                 92    36    51   110        -136.39811   -6.38446
  723 Torsion                 92    36    97   106        -143.54714    2.24195
  724 Torsion                 93    37    29    96        -138.27072   16.77652
  725 Torsion                 93    37    47   110         129.74663    9.79275
  726 Torsion                 93    37    79   114         115.09192  -14.34585
  727 Torsion                 94     8    65   122        -144.88730   -0.78068
  728 Torsion                 95    46    38   139         -74.78435    9.83923
  729 Torsion                 73    21    95   143         178.79354   -0.62115
  730 Torsion                 95   143    85   148          93.48531    2.39397
  731 Torsion                 36    97    28    87         170.35502   -0.27664
  732 Torsion                 97    36    51   110         103.49818   -6.22368
  733 Torsion                 36    97    92    64        -174.90996    0.07646
  734 Torsion                 71   132    97   106         175.32443    0.27435
  735 Torsion                 98     9   108   126          70.95837   35.87358
  736 Torsion                 99    23    13   107         -58.61489    2.70311
  737 Torsion                 99    23    13   115        -177.34654    2.80493
  738 Torsion                 99    23    13   147          57.41187    3.07259
  739 Torsion                101    50    39   143        -146.38012    3.49278
  740 Torsion                102    26    18   146         -20.71703   -0.82192
  741 Torsion                103    12    35   106          17.23243  -22.85774
  742 Torsion                 12   103   104   120         177.71927   -0.46176
  743 Torsion                105    55   103   122        -172.74966    0.39925
  744 Torsion                122   103   109   140        -174.38135    2.82534
  745 Torsion                104    12    35   106        -104.54129  -23.29390
  746 Torsion                104    12   103   122        -103.35726  -22.22826
  747 Torsion                107    13   115   110          23.55335    7.82510
  748 Torsion                107   126    59   140        -111.16596   19.68046
  749 Torsion                126   107   127   144        -173.21691   -3.08725
  750 Torsion                108     9    98   123         102.95465   -4.27939
  751 Torsion                108   126    59   140           2.68833   19.31963
  752 Torsion                126   108   127   144         171.76053   -5.38872
  753 Torsion                105    55   109   122         171.50532   -0.66896
  754 Torsion                109   140    59   126          45.26663  -17.45509
  755 Torsion                109   140    88   150        -169.83420  -12.93857
  756 Torsion                110   115    13   147         -94.95466    7.59448
  757 Torsion                112    89   144   127          77.26788    8.59743
  758 Torsion                114    54    14   119        -155.84245    9.87095
  759 Torsion                115    13   107   126        -159.44724    5.46073
  760 Torsion                116     4   125   141        -138.42943    2.05388
  761 Torsion                 10   117     1    60         176.65422   -0.29067
  762 Torsion                117    10   149   130          38.66943  -17.52550
  763 Torsion                118    32    14   119         -22.86906   -4.30658
  764 Torsion                119   130    63   144           3.91486    4.48908
  765 Torsion                 70   135   119   130        -177.66617    0.41702
  766 Torsion                121   134     5   129         -52.39038    1.60888
  767 Torsion                122    65     8   133          95.16435   -0.91483
  768 Torsion                124   138     6   137           4.15800    1.08004
  769 Torsion                  4   125   116    58         176.15918   -0.12562
  770 Torsion                126   107    13   147         -38.81370    5.48733
  771 Torsion                127   126    59   140         125.22633   19.44651
  772 Torsion                127   144    63   130         -88.70012   -5.91770
  773 Torsion                  4   128   116    58         178.43325   -0.03392
  774 Torsion                128     4   125   141         -16.43290    1.96846
  775 Torsion                131   117    10   149         100.05225    3.04246
  776 Torsion                134     5   129   142         -32.15775    4.43112
  777 Torsion                135   130    63   144        -118.46732    4.48425
  778 Torsion                  4   136   116    58        -174.54065    0.16467
  779 Torsion                136     4   125   141          95.34195    2.15000
  780 Torsion                 42   136    34   100        -179.30168    0.18826
  781 Torsion                136    42    91   139         -18.09910    2.56083
  782 Torsion                  6   137    86   111         170.00172   -1.61785
  783 Torsion                  6   138    86   111        -174.76765    1.53187
  784 Torsion                  6   138   137   145         176.02479    0.35379
  785 Torsion                144    63   130   149         119.43853    4.83739
  786 Torsion                  3    56   146    18         179.90005    0.32093
  787 Torsion                 18   146    68   151        -173.28788    0.49688
  788 Torsion                 10   149     1    60        -174.80988   -0.17815
  789 Torsion                 70   135   149   130         179.16741   -1.02434



                                NWChem Input Module
                                -------------------




                                     CITATION
                                     --------
                Please cite the following reference when publishing
                           results obtained with NWChem:

          E. Apra, E. J. Bylaska, W. A. de Jong, N. Govind, K. Kowalski,
       T. P. Straatsma, M. Valiev, H. J. J. van Dam, Y. Alexeev, J. Anchell,
       V. Anisimov, F. W. Aquino, R. Atta-Fynn, J. Autschbach, N. P. Bauman,
     J. C. Becca, D. E. Bernholdt, K. Bhaskaran-Nair, S. Bogatko, P. Borowski,
         J. Boschen, J. Brabec, A. Bruner, E. Cauet, Y. Chen, G. N. Chuev,
      C. J. Cramer, J. Daily, M. J. O. Deegan, T. H. Dunning Jr., M. Dupuis,
   K. G. Dyall, G. I. Fann, S. A. Fischer, A. Fonari, H. Fruchtl, L. Gagliardi,
      J. Garza, N. Gawande, S. Ghosh, K. Glaesemann, A. W. Gotz, J. Hammond,
       V. Helms, E. D. Hermes, K. Hirao, S. Hirata, M. Jacquelin, L. Jensen,
   B. G. Johnson, H. Jonsson, R. A. Kendall, M. Klemm, R. Kobayashi, V. Konkov,
      S. Krishnamoorthy, M. Krishnan, Z. Lin, R. D. Lins, R. J. Littlefield,
      A. J. Logsdail, K. Lopata, W. Ma, A. V. Marenich, J. Martin del Campo,
   D. Mejia-Rodriguez, J. E. Moore, J. M. Mullin, T. Nakajima, D. R. Nascimento,
    J. A. Nichols, P. J. Nichols, J. Nieplocha, A. Otero-de-la-Roza, B. Palmer,
    A. Panyala, T. Pirojsirikul, B. Peng, R. Peverati, J. Pittner, L. Pollack,
   R. M. Richard, P. Sadayappan, G. C. Schatz, W. A. Shelton, D. W. Silverstein,
   D. M. A. Smith, T. A. Soares, D. Song, M. Swart, H. L. Taylor, G. S. Thomas,
            V. Tipparaju, D. G. Truhlar, K. Tsemekhman, T. Van Voorhis,
      A. Vazquez-Mayagoitia, P. Verma, O. Villa, A. Vishnu, K. D. Vogiatzis,
        D. Wang, J. H. Weare, M. J. Williamson, T. L. Windus, K. Wolinski,
        A. T. Wong, Q. Wu, C. Yang, Q. Yu, M. Zacharias, Z. Zhang, Y. Zhao,
                                and R. J. Harrison
                        "NWChem: Past, present, and future
                         J. Chem. Phys. 152, 184102 (2020)
                               doi:10.1063/5.0004997

                                      AUTHORS
                                      -------
  E. Apra, E. J. Bylaska, N. Govind, K. Kowalski, M. Valiev, D. Mejia-Rodriguez,
       A. Kunitsa, N. P. Bauman, A. Panyala, W. A. de Jong, T. P. Straatsma,
   H. J. J. van Dam, D. Wang, T. L. Windus, J. Hammond, J. Autschbach, A. Woods,
    K. Bhaskaran-Nair, J. Brabec, K. Lopata, S. A. Fischer, S. Krishnamoorthy,
     M. Jacquelin, W. Ma, M. Klemm, O. Villa, Y. Chen, V. Anisimov, F. Aquino,
     S. Hirata, M. T. Hackler, E. Hermes, L. Jensen, J. E. Moore, J. C. Becca,
      V. Konjkov, T. Risthaus, M. Malagoli, A. Marenich, A. Otero-de-la-Roza,
        J. Mullin, P. Nichols, R. Peverati, J. Pittner, Y. Zhao, P.-D. Fan,
        A. Fonari, M. J. Williamson, R. J. Harrison, J. R. Rehr, M. Dupuis,
     D. Silverstein, D. M. A. Smith, J. Nieplocha, V. Tipparaju, M. Krishnan,
     B. E. Van Kuiken, A. Vazquez-Mayagoitia, M. Swart, Q. Wu, T. Van Voorhis,
     A. A. Auer, M. Nooijen, L. D. Crosby, E. Brown, G. Cisneros, G. I. Fann,
   H. Fruchtl, J. Garza, K. Hirao, R. A. Kendall, J. A. Nichols, K. Tsemekhman,
    K. Wolinski, J. Anchell, D. E. Bernholdt, P. Borowski, T. Clark, D. Clerc,
   H. Dachsel, M. J. O. Deegan, K. Dyall, D. Elwood, E. Glendening, M. Gutowski,
   A. C. Hess, J. Jaffe, B. G. Johnson, J. Ju, R. Kobayashi, R. Kutteh, Z. Lin,
   R. Littlefield, X. Long, B. Meng, T. Nakajima, S. Niu, L. Pollack, M. Rosing,
   K. Glaesemann, G. Sandrone, M. Stave, H. Taylor, G. Thomas, J. H. van Lenthe,
                               A. T. Wong, Z. Zhang.

 Total times  cpu:    24960.7s     wall:    27905.2s
