
     Program PWSCF v.7.4.1 starts on 30Jun2025 at 23:32:48 
        Git branch: develop
        Last git commit: bba877166b4f2dac149e30abe16ffa6c336d311b
        Last git commit date: Fri Jun 20 10:25:57 2025 +0000
        Last git commit subject: Merge branch 'fix_ccgsolve' into 'develop'

     This program is part of the open-source Quantum ESPRESSO suite
     for quantum simulation of materials; please cite
         "P. Giannozzi et al., J. Phys.:Condens. Matter 21 395502 (2009);
         "P. Giannozzi et al., J. Phys.:Condens. Matter 29 465901 (2017);
         "P. Giannozzi et al., J. Chem. Phys. 152 154105 (2020);
          URL http://www.quantum-espresso.org", 
     in publications or presentations arising from this work. More details at
     http://www.quantum-espresso.org/quote

     Parallel version (MPI), running on    20 processors

     MPI processes distributed on     1 nodes
     1615333 MiB available memory on the printing compute node when the environment starts
 
     Waiting for input...
     Reading input from standard input
Warning: card &CELL ignored
Warning: card &FCP ignored
Warning: card &RISM ignored

     Current dimensions of program PWSCF are:
     Max number of different atomic species (ntypx) = 10
     Max number of k-points (npk) =  40000
     Max angular momentum in pseudopotentials (lmaxx) =  4
 
     R & G space division:  proc/nbgrp/npool/nimage =      20
     Subspace diagonalization in iterative solution of the eigenvalue problem:
     one sub-group per band group will be used
     scalapack distributed-memory algorithm (size of sub-group:  4*  4 procs)

 
     Parallelization info
     --------------------
     sticks:   dense  smooth     PW     G-vecs:    dense   smooth      PW
     Min         673     673    175                73153    73153    9744
     Max         674     674    176                73158    73158    9748
     Sum       13473   13473   3515              1463107  1463107  194917
 
     Using Slab Decomposition
 


     bravais-lattice index     =            0
     lattice parameter (alat)  =      24.6592  a.u.
     unit-cell volume          =   23302.3946 (a.u.)^3
     number of atoms/cell      =           55
     number of atomic types    =            2
     number of electrons       =       884.00
     number of Kohn-Sham states=         1060
     kinetic-energy cutoff     =      60.0000  Ry
     charge density cutoff     =     240.0000  Ry
     scf convergence threshold =      1.0E-10
     mixing beta               =       0.2000
     number of iterations used =            8  plain     mixing
     Exchange-correlation= PBE
                           (   1   4   3   4   0   0   0)
     Non magnetic calculation with spin-orbit


     celldm(1)=  24.659173  celldm(2)=   0.000000  celldm(3)=   0.000000
     celldm(4)=   0.000000  celldm(5)=   0.000000  celldm(6)=   0.000000

     crystal axes: (cart. coord. in units of alat)
               a(1) = (   1.000000   0.000000   0.000000 )  
               a(2) = (   0.000000   1.159736   0.000000 )  
               a(3) = (   0.000000   0.000000   1.340003 )  

     reciprocal axes: (cart. coord. in units 2 pi/alat)
               b(1) = (  1.000000 -0.000000  0.000000 )  
               b(2) = ( -0.000000  0.862265  0.000000 )  
               b(3) = (  0.000000  0.000000  0.746267 )  


     PseudoPot. # 1 for Se read from file:
     ./Se_r.upf
     MD5 check sum: cb2cefba1335ec1a0ef320de5a6fd81a
     Pseudo is Norm-conserving + core correction, Zval = 16.0
     Generated using ONCVPSP code by D. R. Hamann
     Using radial grid of 1214 points, 10 beta functions with: 
                l(1) =   0
                l(2) =   0
                l(3) =   1
                l(4) =   1
                l(5) =   1
                l(6) =   1
                l(7) =   2
                l(8) =   2
                l(9) =   2
               l(10) =   2

     PseudoPot. # 2 for Hg read from file:
     ./Hg_r.upf
     MD5 check sum: d85b3e284848a6ef6fce73cef7b59184
     Pseudo is Norm-conserving + core correction, Zval = 20.0
     Generated using ONCVPSP code by D. R. Hamann
     Using radial grid of 1246 points, 12 beta functions with: 
                l(1) =   0
                l(2) =   0
                l(3) =   1
                l(4) =   1
                l(5) =   1
                l(6) =   1
                l(7) =   2
                l(8) =   2
                l(9) =   2
               l(10) =   2
               l(11) =   3
               l(12) =   3

     atomic species   valence    mass     pseudopotential
     Se               16.00    78.97100     Se( 1.00)
     Hg               20.00   200.59200     Hg( 1.00)

     No symmetry found



   Cartesian axes

     site n.     atom                  positions (alat units)
         1        Se     tau(   1) = (   0.1265139   0.1290319   0.2899348  )
         2        Se     tau(   2) = (   0.2981317   0.1311081   0.5506316  )
         3        Se     tau(   3) = (   0.2424917   0.2574301   0.2214487  )
         4        Se     tau(   4) = (   0.0798547   0.2629792   0.4867673  )
         5        Se     tau(   5) = (   0.1310203   0.0010567   0.1588305  )
         6        Se     tau(   6) = (   0.2918908   0.0023568   0.4191776  )
         7        Se     tau(   7) = (   0.4598471   0.1290321   0.2899346  )
         8        Se     tau(   8) = (   0.6328535   0.1333542   0.5497574  )
         9        Se     tau(   9) = (   0.5758247   0.2574302   0.2214482  )
        10        Se     tau(  10) = (   0.4089328   0.2614826   0.4868169  )
        11        Se     tau(  11) = (   0.4643531   0.0010568   0.1588304  )
        12        Se     tau(  12) = (   0.6270424   0.0049245   0.4181831  )
        13        Se     tau(  13) = (   0.7931807   0.1290319   0.2899341  )
        14        Se     tau(  14) = (   0.9679036   0.1323684   0.5482480  )
        15        Se     tau(  15) = (   0.9091586   0.2574301   0.2214482  )
        16        Se     tau(  16) = (   0.7440294   0.2643989   0.4878218  )
        17        Se     tau(  17) = (   0.7976871   0.0010567   0.1588299  )
        18        Se     tau(  18) = (   0.9648710   0.0058001   0.4146208  )
        19        Se     tau(  19) = (   0.1264983   0.5155936   0.2899296  )
        20        Se     tau(  20) = (   0.2859764   0.5138508   0.5445480  )
        21        Se     tau(  21) = (   0.2424688   0.6440249   0.2214632  )
        22        Se     tau(  22) = (   0.0769546   0.6493166   0.4874022  )
        23        Se     tau(  23) = (   0.1310206   0.3876536   0.1587981  )
        24        Se     tau(  24) = (   0.2878497   0.3834533   0.4137236  )
        25        Se     tau(  25) = (   0.4598315   0.5155937   0.2899294  )
        26        Se     tau(  26) = (   0.6323036   0.5244425   0.5481078  )
        27        Se     tau(  27) = (   0.5758018   0.6440250   0.2214627  )
        28        Se     tau(  28) = (   0.3938926   0.6417612   0.4750998  )
        29        Se     tau(  29) = (   0.4643534   0.3876537   0.1587979  )
        30        Se     tau(  30) = (   0.6253464   0.3918216   0.4201612  )
        31        Se     tau(  31) = (   0.7931651   0.5155936   0.2899289  )
        32        Se     tau(  32) = (   0.9659238   0.5182163   0.5505019  )
        33        Se     tau(  33) = (   0.9091357   0.6440249   0.2214627  )
        34        Se     tau(  34) = (   0.7517341   0.6483817   0.4849307  )
        35        Se     tau(  35) = (   0.7976875   0.3876535   0.1587975  )
        36        Se     tau(  36) = (   0.9604385   0.3898549   0.4186025  )
        37        Se     tau(  37) = (   0.1264959   0.9021877   0.2899756  )
        38        Se     tau(  38) = (   0.2841380   0.9049977   0.5448496  )
        39        Se     tau(  39) = (   0.2424890   1.0305767   0.2214989  )
        40        Se     tau(  40) = (   0.0811624   1.0369891   0.4841433  )
        41        Se     tau(  41) = (   0.1310011   0.7742540   0.1588314  )
        42        Se     tau(  42) = (   0.2791418   0.7759146   0.4108170  )
        43        Se     tau(  43) = (   0.4598291   0.9021878   0.2899754  )
        44        Se     tau(  44) = (   0.6500399   0.9104508   0.5439848  )
        45        Se     tau(  45) = (   0.5758220   1.0305769   0.2214984  )
        46        Se     tau(  46) = (   0.4048478   1.0314843   0.4897170  )
        47        Se     tau(  47) = (   0.4643340   0.7742541   0.1588312  )
        48        Se     tau(  48) = (   0.6388642   0.7781048   0.4132243  )
        49        Se     tau(  49) = (   0.7931627   0.9021876   0.2899749  )
        50        Se     tau(  50) = (   0.9651091   0.9091799   0.5474393  )
        51        Se     tau(  51) = (   0.9091559   1.0305767   0.2214984  )
        52        Se     tau(  52) = (   0.7584593   1.0458070   0.4757087  )
        53        Se     tau(  53) = (   0.7976680   0.7742539   0.1588308  )
        54        Se     tau(  54) = (   0.9586568   0.7777420   0.4187925  )
        55        Hg     tau(  55) = (   0.4979992   0.7793571   0.6231981  )

     number of k points=    10  Gaussian smearing, width (Ry)=  0.0200
                       cart. coord. in units 2pi/alat
        k(    1) = (   0.0000000   0.0000000   0.0000000), wk =   0.0625000
        k(    2) = (  -0.0000000   0.2155663   0.0000000), wk =   0.1250000
        k(    3) = (   0.0000000  -0.4311326   0.0000000), wk =   0.0625000
        k(    4) = (   0.2500000  -0.0000000   0.0000000), wk =   0.1250000
        k(    5) = (   0.2500000   0.2155663   0.0000000), wk =   0.1250000
        k(    6) = (   0.2500000  -0.4311326   0.0000000), wk =   0.1250000
        k(    7) = (  -0.5000000   0.0000000   0.0000000), wk =   0.0625000
        k(    8) = (  -0.5000000   0.2155663   0.0000000), wk =   0.1250000
        k(    9) = (  -0.5000000  -0.4311326   0.0000000), wk =   0.0625000
        k(   10) = (  -0.2500000   0.2155663   0.0000000), wk =   0.1250000

     Dense  grid:  1463107 G-vectors     FFT dimensions: ( 125, 144, 180)

     Estimated max dynamical RAM per process >       1.84 GB

     Estimated total dynamical RAM >      36.84 GB
 ----2D----2D----2D----2D----2D----2D----2D----2D----2D----2D----2D----2D
  The code is running with the 2D cutoff
  Please refer to:
  Sohier, T., Calandra, M., & Mauri, F. (2017), 
  Density functional perturbation theory for gated two-dimensional heterostructu
 res:
  Theoretical developments and application to flexural phonons in graphene.
  Physical Review B, 96(7), 75448. https://doi.org/10.1103/PhysRevB.96.075448
 ----2D----2D----2D----2D----2D----2D----2D----2D----2D----2D----2D----2D

     Initial potential from superposition of free atoms

     starting charge     883.9960, renormalised to     884.0000

     negative rho (up, down):  8.301E-03 0.000E+00
     Starting wfcs are  992 randomized atomic wfcs +   68 random wfcs

     total cpu time spent up to now is      502.4 secs

     per-process dynamical memory:  1031.8 Mb

     Self-consistent Calculation

     iteration #  1     ecut=    60.00 Ry     beta= 0.20
     Davidson diagonalization with overlap
     ethr =  1.00E-02,  avg # of iterations =  7.8

     Threshold (ethr) on eigenvalues was too large:
     Diagonalizing with lowered threshold

     Davidson diagonalization with overlap
     ethr =  8.79E-05,  avg # of iterations = 10.1

     negative rho (up, down):  6.339E-03 0.000E+00

     total cpu time spent up to now is     4716.7 secs

     total energy              =  -13419.10391977 Ry
     estimated scf accuracy    <       0.77457142 Ry

     iteration #  2     ecut=    60.00 Ry     beta= 0.20
     Davidson diagonalization with overlap
     ethr =  8.76E-05,  avg # of iterations =  1.0

     negative rho (up, down):  2.536E-03 0.000E+00

     total cpu time spent up to now is     6111.5 secs

     total energy              =  -13418.98933072 Ry
     estimated scf accuracy    <       0.42167619 Ry

     iteration #  3     ecut=    60.00 Ry     beta= 0.20
     Davidson diagonalization with overlap
     ethr =  4.77E-05,  avg # of iterations =  1.0

     negative rho (up, down):  7.154E-04 0.000E+00

     total cpu time spent up to now is     7500.0 secs

     total energy              =  -13418.99479237 Ry
     estimated scf accuracy    <       0.08601963 Ry

     iteration #  4     ecut=    60.00 Ry     beta= 0.20
     Davidson diagonalization with overlap
     ethr =  9.73E-06,  avg # of iterations =  8.0

     negative rho (up, down):  2.144E-04 0.000E+00

     total cpu time spent up to now is     9164.4 secs

     total energy              =  -13419.00211048 Ry
     estimated scf accuracy    <       0.01582320 Ry

     iteration #  5     ecut=    60.00 Ry     beta= 0.20
     Davidson diagonalization with overlap
     c_bands:  2 eigenvalues not converged
     ethr =  1.79E-06,  avg # of iterations = 15.9

     negative rho (up, down):  1.164E-05 0.000E+00

     total cpu time spent up to now is    11078.3 secs

     total energy              =  -13419.00300940 Ry
     estimated scf accuracy    <       0.00475020 Ry

     iteration #  6     ecut=    60.00 Ry     beta= 0.20
     Davidson diagonalization with overlap
     ethr =  5.37E-07,  avg # of iterations =  2.0

     negative rho (up, down):  1.176E-07 0.000E+00

     total cpu time spent up to now is    12753.2 secs

     total energy              =  -13419.00357351 Ry
     estimated scf accuracy    <       0.00110222 Ry

     iteration #  7     ecut=    60.00 Ry     beta= 0.20
     Davidson diagonalization with overlap
     ethr =  1.25E-07,  avg # of iterations =  1.1

     total cpu time spent up to now is    14178.7 secs

     total energy              =  -13419.00364088 Ry
     estimated scf accuracy    <       0.00055372 Ry

     iteration #  8     ecut=    60.00 Ry     beta= 0.20
     Davidson diagonalization with overlap
     ethr =  6.26E-08,  avg # of iterations =  2.0

     total cpu time spent up to now is    15735.7 secs

     total energy              =  -13419.00368077 Ry
     estimated scf accuracy    <       0.00022702 Ry

     iteration #  9     ecut=    60.00 Ry     beta= 0.20
     Davidson diagonalization with overlap
     ethr =  2.57E-08,  avg # of iterations =  2.0

     total cpu time spent up to now is    17295.3 secs

     total energy              =  -13419.00369884 Ry
     estimated scf accuracy    <       0.00003669 Ry

     iteration # 10     ecut=    60.00 Ry     beta= 0.20
     Davidson diagonalization with overlap
     ethr =  4.15E-09,  avg # of iterations =  2.0

     total cpu time spent up to now is    18967.4 secs

     total energy              =  -13419.00370211 Ry
     estimated scf accuracy    <       0.00000531 Ry

     iteration # 11     ecut=    60.00 Ry     beta= 0.20
     Davidson diagonalization with overlap
     ethr =  6.01E-10,  avg # of iterations =  2.0

     total cpu time spent up to now is    20539.6 secs

     total energy              =  -13419.00370238 Ry
     estimated scf accuracy    <       0.00000194 Ry

     iteration # 12     ecut=    60.00 Ry     beta= 0.20
     Davidson diagonalization with overlap
     ethr =  2.20E-10,  avg # of iterations =  2.0

     total cpu time spent up to now is    22119.8 secs

     total energy              =  -13419.00370243 Ry
     estimated scf accuracy    <       0.00000068 Ry

     iteration # 13     ecut=    60.00 Ry     beta= 0.20
     Davidson diagonalization with overlap
     ethr =  7.71E-11,  avg # of iterations =  2.0

     total cpu time spent up to now is    23838.6 secs

     total energy              =  -13419.00370253 Ry
     estimated scf accuracy    <       0.00000008 Ry

     iteration # 14     ecut=    60.00 Ry     beta= 0.20
     Davidson diagonalization with overlap
     ethr =  8.65E-12,  avg # of iterations =  2.0

     total cpu time spent up to now is    25506.6 secs

     total energy              =  -13419.00370255 Ry
     estimated scf accuracy    <       0.00000003 Ry

     iteration # 15     ecut=    60.00 Ry     beta= 0.20
     Davidson diagonalization with overlap
     ethr =  2.96E-12,  avg # of iterations =  2.0

     total cpu time spent up to now is    27153.3 secs

     total energy              =  -13419.00370256 Ry
     estimated scf accuracy    <          9.2E-09 Ry

     iteration # 16     ecut=    60.00 Ry     beta= 0.20
     Davidson diagonalization with overlap
     ethr =  1.05E-12,  avg # of iterations =  2.0

     total cpu time spent up to now is    28789.8 secs

     total energy              =  -13419.00370256 Ry
     estimated scf accuracy    <          3.3E-09 Ry

     iteration # 17     ecut=    60.00 Ry     beta= 0.20
     Davidson diagonalization with overlap
     ethr =  3.70E-13,  avg # of iterations =  2.0

     total cpu time spent up to now is    30444.2 secs

     total energy              =  -13419.00370256 Ry
     estimated scf accuracy    <          9.8E-10 Ry

     iteration # 18     ecut=    60.00 Ry     beta= 0.20
     Davidson diagonalization with overlap
     ethr =  1.11E-13,  avg # of iterations =  2.0

     total cpu time spent up to now is    32111.5 secs

     total energy              =  -13419.00370256 Ry
     estimated scf accuracy    <          3.2E-10 Ry

     iteration # 19     ecut=    60.00 Ry     beta= 0.20
     Davidson diagonalization with overlap
     ethr =  1.00E-13,  avg # of iterations =  1.0

     total cpu time spent up to now is    33498.7 secs

     total energy              =  -13419.00370256 Ry
     estimated scf accuracy    <          1.3E-10 Ry

     iteration # 20     ecut=    60.00 Ry     beta= 0.20
     Davidson diagonalization with overlap
     ethr =  1.00E-13,  avg # of iterations =  1.0

     total cpu time spent up to now is    34888.2 secs

     End of self-consistent calculation

          k = 0.0000 0.0000 0.0000 (182899 PWs)   bands (ev):

  -118.0558-118.0558 -80.0501 -80.0501 -61.7996 -61.7996 -61.7661 -61.7661
   -54.1247 -54.1247 -54.1191 -54.1191 -54.0896 -54.0896 -54.0621 -54.0621
   -54.0522 -54.0522 -54.0396 -54.0396 -54.0374 -54.0374 -54.0141 -54.0141
   -54.0074 -54.0074 -54.0069 -54.0069 -54.0044 -54.0044 -53.9953 -53.9953
   -53.9937 -53.9937 -53.9914 -53.9914 -53.9823 -53.9823 -53.9771 -53.9771
   -53.9744 -53.9744 -53.9705 -53.9705 -53.9694 -53.9694 -53.9503 -53.9503
   -53.9497 -53.9497 -53.9475 -53.9475 -53.9461 -53.9461 -53.9334 -53.9334
   -53.9305 -53.9305 -53.9121 -53.9121 -53.9098 -53.9098 -53.9032 -53.9032
   -53.9006 -53.9006 -53.8998 -53.8998 -53.8946 -53.8946 -53.8922 -53.8922
   -53.8797 -53.8797 -53.8717 -53.8717 -53.8687 -53.8687 -53.8670 -53.8670
   -53.8590 -53.8590 -53.8524 -53.8524 -53.8352 -53.8352 -53.8182 -53.8182
   -53.8149 -53.8149 -53.8096 -53.8096 -53.8082 -53.8082 -53.8050 -53.8050
   -53.8044 -53.8044 -53.8008 -53.8008 -53.7973 -53.7973 -53.7854 -53.7854
   -53.7821 -53.7821 -53.7772 -53.7772 -53.7652 -53.7652 -53.7634 -53.7634
   -53.7582 -53.7582 -53.7536 -53.7536 -53.7496 -53.7496 -53.7477 -53.7477
   -53.7458 -53.7458 -53.7443 -53.7443 -53.7422 -53.7422 -53.7415 -53.7415
   -53.7395 -53.7395 -53.7335 -53.7335 -53.7317 -53.7317 -53.7286 -53.7286
   -53.7251 -53.7251 -53.7219 -53.7219 -53.7199 -53.7199 -53.7187 -53.7187
   -53.7176 -53.7176 -53.7122 -53.7122 -53.7001 -53.7001 -53.6977 -53.6977
   -53.6847 -53.6847 -53.6838 -53.6838 -53.6802 -53.6802 -53.6790 -53.6790
   -53.6637 -53.6637 -53.6613 -53.6613 -53.6478 -53.6478 -53.6384 -53.6384
   -53.6355 -53.6355 -53.6335 -53.6335 -53.6268 -53.6268 -53.6166 -53.6166
   -53.6123 -53.6123 -53.6074 -53.6074 -53.6062 -53.6062 -53.5982 -53.5982
   -53.5867 -53.5867 -53.5848 -53.5848 -53.5461 -53.5461 -53.5400 -53.5400
   -53.5360 -53.5360 -53.5350 -53.5350 -53.5261 -53.5261 -53.5131 -53.5131
   -53.5121 -53.5121 -53.4872 -53.4872 -53.4834 -53.4834 -53.4720 -53.4720
   -53.4691 -53.4691 -53.4659 -53.4659 -53.4533 -53.4533 -53.4516 -53.4516
   -53.4481 -53.4481 -53.4472 -53.4472 -53.3626 -53.3626 -53.3169 -53.3169
   -53.2676 -53.2676 -53.2665 -53.2665 -53.2364 -53.2364 -53.2094 -53.2094
   -53.1993 -53.1993 -53.1838 -53.1838 -53.1800 -53.1800 -53.1610 -53.1610
   -53.1526 -53.1526 -53.1521 -53.1521 -53.1492 -53.1492 -53.1421 -53.1421
   -53.1403 -53.1403 -53.1376 -53.1376 -53.1273 -53.1273 -53.1234 -53.1234
   -53.1200 -53.1200 -53.1177 -53.1177 -53.1158 -53.1158 -53.0973 -53.0973
   -53.0962 -53.0962 -53.0951 -53.0951 -53.0917 -53.0917 -53.0795 -53.0795
   -53.0749 -53.0749 -53.0721 -53.0721 -53.0576 -53.0576 -53.0555 -53.0555
   -53.0497 -53.0497 -53.0489 -53.0489 -53.0461 -53.0461 -53.0448 -53.0448
   -53.0407 -53.0407 -53.0261 -53.0261 -53.0193 -53.0193 -53.0177 -53.0177
   -53.0121 -53.0121 -53.0044 -53.0044 -52.9991 -52.9991 -52.9962 -52.9962
   -52.9922 -52.9922 -52.9819 -52.9819 -52.9781 -52.9781 -52.9712 -52.9712
   -52.9587 -52.9587 -52.9545 -52.9545 -52.9525 -52.9525 -52.9496 -52.9496
   -52.9479 -52.9479 -52.9456 -52.9456 -52.9447 -52.9447 -52.9436 -52.9436
   -52.9423 -52.9423 -52.9341 -52.9341 -52.9307 -52.9307 -52.9278 -52.9278
   -52.9268 -52.9268 -52.9257 -52.9257 -52.9249 -52.9249 -52.9221 -52.9221
   -52.9137 -52.9137 -52.9108 -52.9108 -52.9086 -52.9086 -52.9028 -52.9028
   -52.8952 -52.8952 -52.8932 -52.8932 -52.8910 -52.8910 -52.8896 -52.8896
   -52.8864 -52.8864 -52.8820 -52.8820 -52.8813 -52.8813 -52.8806 -52.8806
   -52.8789 -52.8789 -52.8776 -52.8776 -52.8725 -52.8725 -52.8719 -52.8719
   -52.8698 -52.8698 -52.8686 -52.8686 -52.8658 -52.8658 -52.8647 -52.8647
   -52.8635 -52.8635 -52.8615 -52.8615 -52.8606 -52.8606 -52.8539 -52.8539
   -52.8451 -52.8451 -52.8431 -52.8431 -52.8415 -52.8415 -52.8364 -52.8364
   -52.8356 -52.8356 -52.8294 -52.8294 -52.8280 -52.8280 -52.8254 -52.8254
   -52.8242 -52.8242 -52.8230 -52.8230 -52.8224 -52.8224 -52.8211 -52.8211
   -52.8175 -52.8175 -52.8127 -52.8127 -52.8079 -52.8079 -52.8057 -52.8057
   -52.8049 -52.8049 -52.8004 -52.8004 -52.7975 -52.7975 -52.7940 -52.7940
   -52.7917 -52.7917 -52.7798 -52.7798 -52.7746 -52.7746 -52.7738 -52.7738
   -52.7628 -52.7628 -52.7616 -52.7616 -52.7590 -52.7590 -52.7572 -52.7572
   -52.7567 -52.7567 -52.7429 -52.7429 -52.7404 -52.7404 -52.7386 -52.7386
   -52.7308 -52.7308 -52.7276 -52.7276 -52.7266 -52.7266 -52.7256 -52.7256
   -52.7221 -52.7221 -52.7181 -52.7181 -52.7159 -52.7159 -52.7131 -52.7131
   -52.7113 -52.7113 -52.7051 -52.7051 -52.7031 -52.7031 -52.7027 -52.7027
   -52.6909 -52.6909 -52.6894 -52.6894 -52.6846 -52.6846 -52.6772 -52.6772
   -52.6741 -52.6741 -52.6688 -52.6688 -52.6648 -52.6648 -52.6633 -52.6633
   -52.6598 -52.6598 -52.6567 -52.6567 -52.6449 -52.6449 -52.6421 -52.6421
   -52.6391 -52.6391 -52.6383 -52.6383 -52.6175 -52.6175 -52.6122 -52.6122
   -52.6079 -52.6079 -52.6071 -52.6071 -52.5981 -52.5981 -52.5864 -52.5864
   -52.5852 -52.5852 -52.5600 -52.5600 -52.5561 -52.5561 -52.5441 -52.5441
   -52.5432 -52.5432 -52.5406 -52.5406 -52.5379 -52.5379 -52.5249 -52.5249
   -52.5237 -52.5237 -52.5206 -52.5206 -52.5200 -52.5200 -52.5096 -52.5096
   -52.4428 -52.4428 -52.3906 -52.3906 -20.6630 -20.6630 -20.3619 -20.3619
   -20.3229 -20.3229 -20.1740 -20.1740 -20.1714 -20.1714 -20.1462 -20.1462
   -20.0430 -20.0430 -20.0040 -20.0040 -19.9026 -19.9026 -19.8789 -19.8789
   -19.8664 -19.8664 -19.8367 -19.8367 -19.7268 -19.7268 -19.6931 -19.6931
   -19.6104 -19.6104 -19.5962 -19.5962 -19.5880 -19.5880 -19.5004 -19.5004
   -18.7817 -18.7817 -18.7425 -18.7425 -18.5922 -18.5922 -18.5688 -18.5688
   -18.5629 -18.5629 -18.5538 -18.5538 -18.4866 -18.4866 -18.4761 -18.4761
   -18.4207 -18.4207 -18.3968 -18.3968 -18.3673 -18.3673 -18.3302 -18.3302
   -17.2150 -17.2150 -17.1707 -17.1707 -17.1267 -17.1267 -17.0962 -17.0962
   -17.0611 -17.0611 -16.8383 -16.8383 -16.7327 -16.7327 -16.6967 -16.6967
   -16.6568 -16.6568 -16.5953 -16.5953 -16.5540 -16.5540 -16.5254 -16.5254
   -15.9115 -15.9115 -15.8532 -15.8532 -15.8343 -15.8343 -15.8154 -15.8154
   -15.6743 -15.6743 -15.6244 -15.6244 -15.5106 -15.5106 -15.4784 -15.4784
   -15.4681 -15.4681 -15.4550 -15.4550 -14.9655 -14.9655 -14.9429 -14.9429
   -11.3499 -11.3499 -11.2253 -11.2253 -10.5534 -10.5534 -10.5250 -10.5250
   -10.4723 -10.4723 -10.4559 -10.4559 -10.4370 -10.4370 -10.3897 -10.3897
   -10.3211 -10.3211 -10.2937 -10.2937 -10.2508 -10.2508 -10.2299 -10.2299
   -10.1532 -10.1532 -10.0960 -10.0960 -10.0387 -10.0387 -10.0269 -10.0269
    -9.9986  -9.9986  -9.9823  -9.9823  -9.9611  -9.9611  -9.9376  -9.9376
    -9.9294  -9.9294  -9.7906  -9.7906  -9.7203  -9.7203  -9.6769  -9.6769
    -9.6552  -9.6552  -9.6318  -9.6318  -9.5948  -9.5948  -9.5501  -9.5501
    -9.5177  -9.5177  -9.4897  -9.4897  -9.4795  -9.4795  -9.4459  -9.4459
    -9.4147  -9.4147  -9.3863  -9.3863  -9.3363  -9.3363  -9.3057  -9.3057
    -9.2272  -9.2272  -9.0408  -9.0408  -9.0102  -9.0102  -8.9979  -8.9979
    -8.9612  -8.9612  -8.9411  -8.9411  -8.8512  -8.8512  -8.8246  -8.8246
    -8.7732  -8.7732  -8.6844  -8.6844  -8.4913  -8.4913  -8.4726  -8.4726
    -8.4405  -8.4405  -8.4157  -8.4157  -8.3991  -8.3991  -8.3684  -8.3684
    -8.3632  -8.3632  -8.3019  -8.3019  -8.2213  -8.2213  -8.1978  -8.1978
    -8.1723  -8.1723  -8.1432  -8.1432  -8.1149  -8.1149  -7.7867  -7.7867
    -7.6999  -7.6999  -7.6091  -7.6091  -7.5206  -7.5206  -7.4575  -7.4575
    -7.2714  -7.2714  -7.0840  -7.0840  -7.0697  -7.0697  -7.0247  -7.0247
    -6.9879  -6.9879  -6.9598  -6.9598  -6.9323  -6.9323  -6.9041  -6.9041
    -6.8755  -6.8755  -6.8314  -6.8314  -6.7905  -6.7905  -6.7624  -6.7624
    -6.7398  -6.7398  -6.7237  -6.7237  -6.7108  -6.7108  -6.6964  -6.6964
    -6.6780  -6.6780  -6.6437  -6.6437  -6.5771  -6.5771  -6.5583  -6.5583
    -6.5331  -6.5331  -6.4765  -6.4765  -6.4231  -6.4231  -6.3800  -6.3800
    -6.3681  -6.3681  -6.3488  -6.3488  -6.3189  -6.3189  -6.2931  -6.2931
    -6.2535  -6.2535  -6.2251  -6.2251  -6.2103  -6.2103  -6.1676  -6.1676
    -6.1413  -6.1413  -6.0588  -6.0588  -6.0183  -6.0183  -5.9225  -5.9225
    -5.8795  -5.8795  -5.8379  -5.8379  -5.7025  -5.7025  -5.6533  -5.6533
    -5.5578  -5.5578  -5.5385  -5.5385  -5.5215  -5.5215  -5.4413  -5.4413
    -5.4031  -5.4031  -5.2513  -5.2513  -5.2294  -5.2294  -5.1290  -5.1290
    -5.1010  -5.1010  -5.0278  -5.0278  -3.7771  -3.7771  -3.7317  -3.7317
    -3.6242  -3.6242  -3.5513  -3.5513  -3.5256  -3.5256  -3.4983  -3.4983
    -3.4658  -3.4658  -3.4463  -3.4463  -3.4284  -3.4284  -3.3678  -3.3678
    -3.3502  -3.3502  -3.3195  -3.3195  -3.2905  -3.2905  -3.2767  -3.2767
    -3.2355  -3.2355  -3.1857  -3.1857  -3.1612  -3.1612  -3.1392  -3.1392
    -3.0590  -3.0590  -3.0344  -3.0344  -2.9839  -2.9839  -2.8717  -2.8717
    -2.8063  -2.8063  -2.7825  -2.7825  -2.6671  -2.6671  -2.6392  -2.6392
    -2.6311  -2.6311  -2.6100  -2.6100  -2.5972  -2.5972  -2.5889  -2.5889
    -2.5608  -2.5608  -2.5432  -2.5432  -2.5170  -2.5170  -2.5064  -2.5064
    -2.4890  -2.4890  -2.4708  -2.4708  -2.4473  -2.4473  -2.3187  -2.3187
    -2.3042  -2.3042  -2.2805  -2.2805  -2.2587  -2.2587  -2.2471  -2.2471
    -2.1564  -2.1564  -2.1278  -2.1278  -2.0747  -2.0747  -1.8952  -1.8952
    -1.8800  -1.8800  -1.8545  -1.8545  -1.8376  -1.8376  -1.7633  -1.7633
    -1.7181  -1.7181  -1.5820  -1.5820  -1.5322  -1.5322  -1.5102  -1.5102
    -0.3054  -0.3054   0.2697   0.2697   0.4398   0.4398   0.4802   0.4802
     0.6221   0.6221   0.6674   0.6674   0.7401   0.7401   0.7943   0.7943
     0.8630   0.8630   0.9663   0.9663   1.0263   1.0263   1.0474   1.0474
     1.0988   1.0988   1.1269   1.1269   1.1750   1.1750   1.3102   1.3102
     1.3695   1.3695   1.4093   1.4093   1.4454   1.4454   1.4576   1.4576
     1.4788   1.4788   1.5000   1.5000   1.5385   1.5385   1.5505   1.5505
     1.6245   1.6245   1.6436   1.6436   1.6722   1.6722   1.7550   1.7550
     1.7977   1.7977   1.8082   1.8082   1.8502   1.8502   1.8734   1.8734
     1.9284   1.9284   1.9816   1.9818

          k =-0.0000 0.2156 0.0000 (182893 PWs)   bands (ev):

  -118.0558-118.0558 -80.0501 -80.0501 -61.7996 -61.7996 -61.7661 -61.7661
   -54.1247 -54.1247 -54.1191 -54.1190 -54.0896 -54.0896 -54.0621 -54.0621
   -54.0522 -54.0520 -54.0397 -54.0395 -54.0374 -54.0372 -54.0141 -54.0140
   -54.0075 -54.0073 -54.0069 -54.0068 -54.0043 -54.0043 -53.9955 -53.9952
   -53.9937 -53.9935 -53.9914 -53.9913 -53.9822 -53.9822 -53.9771 -53.9771
   -53.9742 -53.9742 -53.9705 -53.9703 -53.9695 -53.9694 -53.9506 -53.9505
   -53.9498 -53.9496 -53.9474 -53.9472 -53.9457 -53.9457 -53.9335 -53.9334
   -53.9304 -53.9303 -53.9119 -53.9118 -53.9102 -53.9101 -53.9033 -53.9032
   -53.9006 -53.9004 -53.8996 -53.8995 -53.8946 -53.8946 -53.8921 -53.8920
   -53.8797 -53.8797 -53.8717 -53.8716 -53.8689 -53.8687 -53.8669 -53.8664
   -53.8591 -53.8589 -53.8523 -53.8522 -53.8351 -53.8351 -53.8182 -53.8181
   -53.8150 -53.8146 -53.8094 -53.8092 -53.8084 -53.8083 -53.8053 -53.8052
   -53.8044 -53.8040 -53.8007 -53.8005 -53.7974 -53.7973 -53.7855 -53.7853
   -53.7821 -53.7820 -53.7771 -53.7770 -53.7653 -53.7647 -53.7636 -53.7632
   -53.7583 -53.7582 -53.7536 -53.7534 -53.7497 -53.7496 -53.7479 -53.7478
   -53.7457 -53.7455 -53.7442 -53.7441 -53.7426 -53.7421 -53.7416 -53.7414
   -53.7397 -53.7393 -53.7331 -53.7329 -53.7323 -53.7322 -53.7286 -53.7283
   -53.7253 -53.7250 -53.7220 -53.7217 -53.7198 -53.7196 -53.7189 -53.7186
   -53.7181 -53.7179 -53.7124 -53.7121 -53.7000 -53.6998 -53.6977 -53.6976
   -53.6843 -53.6843 -53.6839 -53.6839 -53.6803 -53.6802 -53.6790 -53.6789
   -53.6638 -53.6637 -53.6614 -53.6613 -53.6478 -53.6478 -53.6384 -53.6384
   -53.6354 -53.6354 -53.6334 -53.6333 -53.6269 -53.6269 -53.6165 -53.6165
   -53.6123 -53.6122 -53.6075 -53.6071 -53.6063 -53.6061 -53.5982 -53.5981
   -53.5867 -53.5864 -53.5852 -53.5850 -53.5460 -53.5460 -53.5399 -53.5399
   -53.5363 -53.5363 -53.5347 -53.5347 -53.5260 -53.5260 -53.5131 -53.5131
   -53.5121 -53.5120 -53.4872 -53.4872 -53.4833 -53.4833 -53.4720 -53.4720
   -53.4686 -53.4685 -53.4664 -53.4664 -53.4533 -53.4533 -53.4513 -53.4512
   -53.4485 -53.4485 -53.4470 -53.4470 -53.3626 -53.3626 -53.3169 -53.3168
   -53.2676 -53.2674 -53.2666 -53.2664 -53.2363 -53.2363 -53.2093 -53.2093
   -53.1993 -53.1992 -53.1838 -53.1837 -53.1799 -53.1798 -53.1610 -53.1609
   -53.1527 -53.1525 -53.1522 -53.1519 -53.1491 -53.1490 -53.1420 -53.1419
   -53.1404 -53.1403 -53.1375 -53.1374 -53.1273 -53.1273 -53.1234 -53.1234
   -53.1198 -53.1197 -53.1178 -53.1176 -53.1158 -53.1157 -53.0974 -53.0973
   -53.0963 -53.0962 -53.0951 -53.0948 -53.0914 -53.0913 -53.0796 -53.0794
   -53.0747 -53.0746 -53.0721 -53.0720 -53.0574 -53.0573 -53.0559 -53.0556
   -53.0501 -53.0495 -53.0491 -53.0483 -53.0460 -53.0456 -53.0449 -53.0446
   -53.0407 -53.0406 -53.0261 -53.0260 -53.0193 -53.0192 -53.0177 -53.0175
   -53.0123 -53.0120 -53.0043 -53.0041 -52.9991 -52.9989 -52.9962 -52.9959
   -52.9924 -52.9919 -52.9819 -52.9818 -52.9781 -52.9779 -52.9712 -52.9711
   -52.9589 -52.9588 -52.9544 -52.9543 -52.9525 -52.9523 -52.9498 -52.9494
   -52.9479 -52.9475 -52.9459 -52.9455 -52.9446 -52.9443 -52.9436 -52.9433
   -52.9425 -52.9423 -52.9342 -52.9339 -52.9306 -52.9303 -52.9278 -52.9276
   -52.9268 -52.9263 -52.9259 -52.9256 -52.9251 -52.9248 -52.9222 -52.9219
   -52.9139 -52.9138 -52.9110 -52.9107 -52.9086 -52.9083 -52.9027 -52.9026
   -52.8953 -52.8952 -52.8932 -52.8929 -52.8911 -52.8909 -52.8895 -52.8894
   -52.8863 -52.8861 -52.8821 -52.8818 -52.8815 -52.8811 -52.8806 -52.8804
   -52.8788 -52.8785 -52.8776 -52.8774 -52.8731 -52.8725 -52.8717 -52.8712
   -52.8699 -52.8695 -52.8689 -52.8684 -52.8660 -52.8657 -52.8645 -52.8644
   -52.8637 -52.8635 -52.8616 -52.8613 -52.8605 -52.8603 -52.8539 -52.8538
   -52.8451 -52.8450 -52.8434 -52.8432 -52.8416 -52.8414 -52.8365 -52.8362
   -52.8356 -52.8354 -52.8295 -52.8292 -52.8282 -52.8281 -52.8253 -52.8253
   -52.8241 -52.8240 -52.8230 -52.8229 -52.8226 -52.8222 -52.8210 -52.8208
   -52.8177 -52.8174 -52.8130 -52.8128 -52.8080 -52.8079 -52.8058 -52.8056
   -52.8051 -52.8049 -52.8006 -52.8003 -52.7978 -52.7975 -52.7940 -52.7939
   -52.7916 -52.7915 -52.7798 -52.7798 -52.7744 -52.7744 -52.7740 -52.7739
   -52.7626 -52.7623 -52.7617 -52.7615 -52.7591 -52.7588 -52.7577 -52.7573
   -52.7566 -52.7565 -52.7430 -52.7429 -52.7406 -52.7405 -52.7385 -52.7383
   -52.7307 -52.7305 -52.7278 -52.7273 -52.7270 -52.7265 -52.7255 -52.7254
   -52.7218 -52.7215 -52.7178 -52.7177 -52.7160 -52.7159 -52.7131 -52.7130
   -52.7113 -52.7112 -52.7049 -52.7047 -52.7035 -52.7032 -52.7028 -52.7027
   -52.6909 -52.6908 -52.6895 -52.6894 -52.6846 -52.6845 -52.6772 -52.6772
   -52.6740 -52.6739 -52.6687 -52.6687 -52.6647 -52.6646 -52.6637 -52.6635
   -52.6594 -52.6592 -52.6571 -52.6571 -52.6448 -52.6448 -52.6418 -52.6417
   -52.6396 -52.6395 -52.6380 -52.6379 -52.6173 -52.6173 -52.6121 -52.6121
   -52.6083 -52.6083 -52.6069 -52.6069 -52.5981 -52.5980 -52.5863 -52.5861
   -52.5853 -52.5852 -52.5600 -52.5599 -52.5561 -52.5560 -52.5443 -52.5441
   -52.5433 -52.5430 -52.5400 -52.5399 -52.5385 -52.5384 -52.5250 -52.5249
   -52.5234 -52.5233 -52.5211 -52.5211 -52.5199 -52.5199 -52.5096 -52.5095
   -52.4428 -52.4427 -52.3906 -52.3906 -20.6325 -20.6319 -20.3842 -20.3825
   -20.3304 -20.3298 -20.2918 -20.2910 -20.1340 -20.1330 -20.0934 -20.0912
   -20.0620 -20.0598 -20.0152 -20.0143 -19.9717 -19.9709 -19.9138 -19.9124
   -19.8819 -19.8806 -19.7944 -19.7914 -19.7430 -19.7404 -19.6308 -19.6276
   -19.6056 -19.6019 -19.4712 -19.4670 -19.3722 -19.3678 -19.3129 -19.3087
   -19.1818 -19.1786 -18.9573 -18.9533 -18.9330 -18.9287 -18.8376 -18.8325
   -18.7567 -18.7514 -18.6974 -18.6923 -18.3078 -18.3044 -18.1697 -18.1659
   -18.1650 -18.1612 -18.1061 -18.1018 -18.0474 -18.0430 -17.9848 -17.9804
   -17.4278 -17.4256 -17.4035 -17.4008 -17.3472 -17.3456 -17.3145 -17.3128
   -17.2823 -17.2806 -17.2175 -17.2152 -16.5811 -16.5778 -16.5397 -16.5363
   -16.4120 -16.4090 -16.3577 -16.3553 -16.3417 -16.3393 -16.1883 -16.1872
   -16.0736 -16.0677 -16.0296 -16.0233 -15.8611 -15.8555 -15.7509 -15.7497
   -15.7255 -15.7222 -15.7045 -15.7043 -15.7003 -15.6985 -15.5150 -15.5119
   -15.3471 -15.3443 -15.3132 -15.3110 -15.2928 -15.2900 -14.7301 -14.7274
   -11.3505 -11.3496 -11.2257 -11.2249 -10.6643 -10.6386 -10.6302 -10.6046
   -10.5673 -10.5520 -10.4568 -10.4412 -10.4138 -10.3932 -10.3474 -10.3264
   -10.3176 -10.2847 -10.2664 -10.2142 -10.1906 -10.1842 -10.1642 -10.1563
   -10.1445 -10.1306 -10.1091 -10.0799 -10.0408 -10.0162  -9.9890  -9.9856
    -9.9734  -9.9507  -9.9323  -9.9203  -9.9164  -9.9056  -9.8966  -9.8756
    -9.8703  -9.8411  -9.8248  -9.8159  -9.7840  -9.7764  -9.7591  -9.7431
    -9.7319  -9.7241  -9.7089  -9.6889  -9.6338  -9.6148  -9.5764  -9.5663
    -9.5448  -9.5312  -9.5039  -9.4972  -9.4741  -9.4648  -9.4455  -9.4290
    -9.4146  -9.3996  -9.3636  -9.3589  -9.3408  -9.3240  -9.2929  -9.2792
    -9.2373  -9.2024  -9.1822  -9.1516  -9.1092  -9.0834  -9.0605  -9.0145
    -8.9379  -8.9244  -8.8913  -8.8770  -8.8171  -8.8083  -8.7301  -8.7058
    -8.6901  -8.6876  -8.6574  -8.6560  -8.6340  -8.6106  -8.5891  -8.5790
    -8.4950  -8.4401  -8.3914  -8.3725  -8.3540  -8.3460  -8.3156  -8.2966
    -8.2841  -8.2654  -8.2542  -8.2337  -8.2235  -8.2135  -8.2071  -8.1937
    -8.1842  -8.1631  -8.1549  -8.1419  -8.1317  -8.1230  -7.8518  -7.7918
    -7.7569  -7.6625  -7.6115  -7.5700  -7.5060  -7.4831  -7.4649  -7.4499
    -7.4355  -7.4256  -7.3922  -7.3598  -7.2803  -7.1921  -7.1070  -7.0656
    -7.0439  -7.0235  -6.9974  -6.9944  -6.9768  -6.9691  -6.9528  -6.9343
    -6.8967  -6.8687  -6.8320  -6.8237  -6.7813  -6.7639  -6.7437  -6.7313
    -6.7078  -6.7006  -6.6849  -6.6764  -6.6691  -6.6577  -6.6163  -6.6086
    -6.5987  -6.5861  -6.5753  -6.5653  -6.5472  -6.5270  -6.5177  -6.4928
    -6.4893  -6.4765  -6.4602  -6.4391  -6.4159  -6.3923  -6.3852  -6.3777
    -6.3649  -6.3583  -6.3246  -6.3171  -6.2932  -6.2779  -6.2605  -6.2481
    -6.2366  -6.2246  -6.2132  -6.1982  -6.1852  -6.1658  -6.1398  -6.1032
    -6.0678  -6.0387  -6.0149  -6.0028  -5.9551  -5.9277  -5.8949  -5.8653
    -5.8454  -5.8368  -5.7963  -5.7711  -5.7452  -5.7329  -5.6703  -5.6309
    -5.6203  -5.5798  -5.5393  -5.5284  -5.5154  -5.4969  -5.4865  -5.4727
    -5.4546  -5.4417  -5.4354  -5.3885  -5.3683  -5.3390  -5.2098  -5.1550
    -5.1232  -5.0677  -5.0544  -5.0133  -3.7872  -3.7759  -3.7615  -3.7322
    -3.7101  -3.6945  -3.6689  -3.6624  -3.6121  -3.5705  -3.5116  -3.4958
    -3.4903  -3.4694  -3.4363  -3.4249  -3.4180  -3.3934  -3.3801  -3.3649
    -3.3582  -3.3475  -3.3394  -3.3152  -3.2843  -3.2726  -3.2238  -3.2167
    -3.1850  -3.1739  -3.1657  -3.1447  -3.1430  -3.1235  -3.1035  -3.0675
    -3.0502  -3.0224  -3.0078  -2.9883  -2.9392  -2.9316  -2.8671  -2.8540
    -2.8045  -2.7822  -2.7707  -2.7585  -2.7169  -2.6914  -2.6709  -2.6636
    -2.6558  -2.6397  -2.6283  -2.6161  -2.6084  -2.5983  -2.5783  -2.5742
    -2.5723  -2.5572  -2.5477  -2.5396  -2.5286  -2.5222  -2.5054  -2.4882
    -2.4750  -2.4594  -2.4523  -2.4383  -2.4243  -2.4161  -2.3996  -2.3705
    -2.3583  -2.3375  -2.3000  -2.2817  -2.2388  -2.2244  -2.2160  -2.1940
    -2.1482  -2.1342  -2.1155  -2.1056  -2.0918  -2.0751  -2.0615  -2.0414
    -1.9245  -1.9105  -1.8144  -1.8002  -1.7889  -1.7723  -1.7219  -1.7158
    -1.6778  -1.6729  -1.6051  -1.5962  -1.5717  -1.5666  -1.5453  -1.5395
    -0.3045  -0.3017   0.2567   0.2716   0.4611   0.4777   0.5685   0.5787
     0.6285   0.6390   0.6788   0.7024   0.7673   0.7799   0.8004   0.8112
     0.8524   0.8582   0.9134   0.9154   0.9535   0.9661   0.9935   1.0157
     1.0625   1.0796   1.1590   1.1682   1.1897   1.1989   1.2154   1.2333
     1.2531   1.2663   1.3033   1.3128   1.3849   1.3946   1.4037   1.4108
     1.4426   1.4529   1.4906   1.5030   1.5215   1.5286   1.5538   1.5594
     1.5916   1.6020   1.6876   1.7008   1.7255   1.7401   1.7710   1.7722
     1.8093   1.8130   1.8295   1.8327   1.8655   1.8684   1.9161   1.9310
     1.9651   1.9739   2.0160   2.0344

          k = 0.0000-0.4311 0.0000 (182866 PWs)   bands (ev):

  -118.0558-118.0558 -80.0501 -80.0501 -61.7996 -61.7996 -61.7661 -61.7661
   -54.1244 -54.1244 -54.1188 -54.1188 -54.0893 -54.0893 -54.0618 -54.0618
   -54.0518 -54.0518 -54.0396 -54.0396 -54.0370 -54.0370 -54.0138 -54.0138
   -54.0074 -54.0074 -54.0064 -54.0064 -54.0041 -54.0041 -53.9955 -53.9955
   -53.9933 -53.9933 -53.9906 -53.9906 -53.9819 -53.9819 -53.9767 -53.9767
   -53.9736 -53.9736 -53.9702 -53.9702 -53.9690 -53.9690 -53.9506 -53.9506
   -53.9499 -53.9499 -53.9468 -53.9468 -53.9456 -53.9456 -53.9335 -53.9335
   -53.9300 -53.9300 -53.9115 -53.9115 -53.9100 -53.9100 -53.9031 -53.9031
   -53.9012 -53.9012 -53.8986 -53.8986 -53.8945 -53.8945 -53.8920 -53.8920
   -53.8794 -53.8794 -53.8712 -53.8712 -53.8684 -53.8684 -53.8665 -53.8665
   -53.8590 -53.8590 -53.8520 -53.8520 -53.8350 -53.8350 -53.8182 -53.8182
   -53.8145 -53.8145 -53.8090 -53.8090 -53.8083 -53.8083 -53.8054 -53.8054
   -53.8044 -53.8044 -53.8001 -53.8001 -53.7972 -53.7972 -53.7855 -53.7855
   -53.7818 -53.7818 -53.7766 -53.7766 -53.7648 -53.7648 -53.7633 -53.7633
   -53.7580 -53.7580 -53.7531 -53.7531 -53.7498 -53.7498 -53.7479 -53.7479
   -53.7455 -53.7455 -53.7436 -53.7436 -53.7423 -53.7423 -53.7411 -53.7411
   -53.7396 -53.7396 -53.7338 -53.7338 -53.7311 -53.7311 -53.7279 -53.7279
   -53.7249 -53.7249 -53.7213 -53.7213 -53.7200 -53.7200 -53.7184 -53.7184
   -53.7172 -53.7172 -53.7123 -53.7123 -53.6996 -53.6996 -53.6975 -53.6975
   -53.6842 -53.6842 -53.6838 -53.6838 -53.6805 -53.6805 -53.6784 -53.6784
   -53.6635 -53.6635 -53.6612 -53.6612 -53.6476 -53.6476 -53.6383 -53.6383
   -53.6355 -53.6355 -53.6325 -53.6325 -53.6267 -53.6267 -53.6163 -53.6163
   -53.6120 -53.6120 -53.6066 -53.6066 -53.6061 -53.6061 -53.5980 -53.5980
   -53.5862 -53.5862 -53.5851 -53.5851 -53.5462 -53.5462 -53.5398 -53.5398
   -53.5367 -53.5367 -53.5340 -53.5340 -53.5261 -53.5261 -53.5129 -53.5129
   -53.5117 -53.5117 -53.4870 -53.4870 -53.4833 -53.4833 -53.4718 -53.4718
   -53.4695 -53.4695 -53.4650 -53.4650 -53.4528 -53.4528 -53.4517 -53.4517
   -53.4481 -53.4481 -53.4463 -53.4463 -53.3624 -53.3624 -53.3167 -53.3167
   -53.2672 -53.2672 -53.2663 -53.2663 -53.2360 -53.2360 -53.2091 -53.2091
   -53.1990 -53.1990 -53.1836 -53.1836 -53.1797 -53.1797 -53.1606 -53.1606
   -53.1522 -53.1522 -53.1519 -53.1519 -53.1490 -53.1490 -53.1421 -53.1421
   -53.1401 -53.1401 -53.1367 -53.1367 -53.1270 -53.1270 -53.1230 -53.1230
   -53.1192 -53.1192 -53.1175 -53.1175 -53.1153 -53.1153 -53.0975 -53.0975
   -53.0964 -53.0964 -53.0945 -53.0945 -53.0913 -53.0913 -53.0794 -53.0794
   -53.0745 -53.0745 -53.0720 -53.0720 -53.0572 -53.0572 -53.0555 -53.0555
   -53.0496 -53.0496 -53.0487 -53.0487 -53.0466 -53.0466 -53.0438 -53.0438
   -53.0406 -53.0406 -53.0258 -53.0258 -53.0193 -53.0193 -53.0169 -53.0169
   -53.0116 -53.0116 -53.0041 -53.0041 -52.9988 -52.9988 -52.9960 -52.9960
   -52.9920 -52.9920 -52.9819 -52.9819 -52.9777 -52.9777 -52.9711 -52.9711
   -52.9588 -52.9588 -52.9541 -52.9541 -52.9522 -52.9522 -52.9494 -52.9494
   -52.9477 -52.9477 -52.9454 -52.9454 -52.9444 -52.9444 -52.9431 -52.9431
   -52.9423 -52.9423 -52.9343 -52.9343 -52.9304 -52.9304 -52.9273 -52.9273
   -52.9263 -52.9263 -52.9256 -52.9256 -52.9245 -52.9245 -52.9222 -52.9222
   -52.9135 -52.9135 -52.9106 -52.9106 -52.9080 -52.9080 -52.9023 -52.9023
   -52.8947 -52.8947 -52.8932 -52.8932 -52.8909 -52.8909 -52.8891 -52.8891
   -52.8860 -52.8860 -52.8822 -52.8822 -52.8812 -52.8812 -52.8803 -52.8803
   -52.8789 -52.8789 -52.8764 -52.8764 -52.8726 -52.8726 -52.8715 -52.8715
   -52.8695 -52.8695 -52.8683 -52.8683 -52.8654 -52.8654 -52.8649 -52.8649
   -52.8625 -52.8625 -52.8614 -52.8614 -52.8602 -52.8602 -52.8534 -52.8534
   -52.8452 -52.8452 -52.8429 -52.8429 -52.8418 -52.8418 -52.8362 -52.8362
   -52.8352 -52.8352 -52.8291 -52.8291 -52.8280 -52.8280 -52.8253 -52.8253
   -52.8240 -52.8240 -52.8231 -52.8231 -52.8218 -52.8218 -52.8203 -52.8203
   -52.8173 -52.8173 -52.8126 -52.8126 -52.8078 -52.8078 -52.8052 -52.8052
   -52.8043 -52.8043 -52.8003 -52.8003 -52.7973 -52.7973 -52.7935 -52.7935
   -52.7914 -52.7914 -52.7797 -52.7797 -52.7743 -52.7743 -52.7736 -52.7736
   -52.7623 -52.7623 -52.7619 -52.7619 -52.7591 -52.7591 -52.7575 -52.7575
   -52.7560 -52.7560 -52.7426 -52.7426 -52.7404 -52.7404 -52.7386 -52.7386
   -52.7305 -52.7305 -52.7278 -52.7278 -52.7268 -52.7268 -52.7249 -52.7249
   -52.7213 -52.7213 -52.7180 -52.7180 -52.7160 -52.7160 -52.7133 -52.7133
   -52.7104 -52.7104 -52.7047 -52.7047 -52.7032 -52.7032 -52.7023 -52.7023
   -52.6906 -52.6906 -52.6894 -52.6894 -52.6841 -52.6841 -52.6770 -52.6770
   -52.6741 -52.6741 -52.6684 -52.6684 -52.6644 -52.6644 -52.6634 -52.6634
   -52.6602 -52.6602 -52.6559 -52.6559 -52.6444 -52.6444 -52.6423 -52.6423
   -52.6388 -52.6388 -52.6378 -52.6378 -52.6175 -52.6175 -52.6120 -52.6120
   -52.6086 -52.6086 -52.6063 -52.6063 -52.5980 -52.5980 -52.5862 -52.5862
   -52.5849 -52.5849 -52.5598 -52.5598 -52.5558 -52.5558 -52.5438 -52.5438
   -52.5429 -52.5429 -52.5409 -52.5409 -52.5370 -52.5370 -52.5244 -52.5244
   -52.5238 -52.5238 -52.5209 -52.5209 -52.5188 -52.5188 -52.5095 -52.5095
   -52.4426 -52.4426 -52.3903 -52.3903 -20.5552 -20.5552 -20.5194 -20.5194
   -20.2622 -20.2622 -20.2194 -20.2194 -20.2089 -20.2089 -20.1990 -20.1990
   -20.0547 -20.0547 -20.0387 -20.0387 -19.9398 -19.9398 -19.9244 -19.9244
   -19.9182 -19.9182 -19.8437 -19.8437 -19.5859 -19.5859 -19.5402 -19.5402
   -19.3850 -19.3850 -19.3669 -19.3669 -19.2769 -19.2769 -19.2600 -19.2600
   -19.2176 -19.2176 -19.1114 -19.1114 -19.0800 -19.0800 -19.0528 -19.0528
   -19.0320 -19.0320 -18.9654 -18.9654 -17.8512 -17.8512 -17.8337 -17.8337
   -17.7725 -17.7725 -17.7684 -17.7684 -17.7499 -17.7499 -17.7314 -17.7314
   -17.7119 -17.7119 -17.6986 -17.6986 -17.6793 -17.6793 -17.6663 -17.6663
   -17.6282 -17.6282 -17.5754 -17.5754 -16.3324 -16.3324 -16.3105 -16.3105
   -16.2680 -16.2680 -16.2623 -16.2623 -16.1330 -16.1330 -16.1071 -16.1071
   -16.0304 -16.0304 -16.0169 -16.0169 -16.0114 -16.0114 -15.9978 -15.9978
   -15.7289 -15.7289 -15.7167 -15.7167 -15.6956 -15.6956 -15.6607 -15.6607
   -15.4673 -15.4673 -15.2920 -15.2920 -15.2564 -15.2564 -14.6496 -14.6496
   -11.3502 -11.3502 -11.2252 -11.2252 -10.7001 -10.7001 -10.6633 -10.6633
   -10.6076 -10.6076 -10.4996 -10.4996 -10.4546 -10.4546 -10.2756 -10.2756
   -10.2459 -10.2459 -10.2187 -10.2187 -10.1932 -10.1932 -10.0811 -10.0811
   -10.0318 -10.0318 -10.0098 -10.0098  -9.9795  -9.9795  -9.9616  -9.9616
    -9.9356  -9.9356  -9.9105  -9.9105  -9.9013  -9.9013  -9.8824  -9.8824
    -9.8421  -9.8421  -9.8245  -9.8245  -9.8044  -9.8044  -9.7913  -9.7913
    -9.7624  -9.7624  -9.7056  -9.7056  -9.6550  -9.6550  -9.6019  -9.6019
    -9.5614  -9.5614  -9.5454  -9.5454  -9.5278  -9.5278  -9.5106  -9.5106
    -9.4416  -9.4416  -9.3786  -9.3786  -9.3225  -9.3225  -9.2522  -9.2522
    -9.1779  -9.1779  -9.1273  -9.1273  -9.0248  -9.0248  -8.9993  -8.9993
    -8.9518  -8.9518  -8.9379  -8.9379  -8.8894  -8.8894  -8.8325  -8.8325
    -8.8125  -8.8125  -8.5598  -8.5598  -8.4812  -8.4812  -8.4296  -8.4296
    -8.4157  -8.4157  -8.3603  -8.3603  -8.3349  -8.3349  -8.3072  -8.3072
    -8.2926  -8.2926  -8.2620  -8.2620  -8.2330  -8.2330  -8.2167  -8.2167
    -8.1733  -8.1733  -8.1316  -8.1316  -8.0983  -8.0983  -7.8855  -7.8855
    -7.7262  -7.7262  -7.6732  -7.6732  -7.6085  -7.6085  -7.4851  -7.4851
    -7.3739  -7.3739  -7.3439  -7.3439  -7.3113  -7.3113  -7.2719  -7.2719
    -7.2352  -7.2352  -7.0120  -7.0120  -6.8861  -6.8861  -6.8627  -6.8627
    -6.8562  -6.8562  -6.8412  -6.8412  -6.8199  -6.8199  -6.7927  -6.7927
    -6.7433  -6.7433  -6.6962  -6.6962  -6.6593  -6.6593  -6.5939  -6.5939
    -6.5561  -6.5561  -6.5180  -6.5180  -6.5076  -6.5076  -6.4634  -6.4634
    -6.4517  -6.4517  -6.4332  -6.4332  -6.4124  -6.4124  -6.3868  -6.3868
    -6.3412  -6.3412  -6.3218  -6.3218  -6.2688  -6.2688  -6.2143  -6.2143
    -6.1704  -6.1704  -6.0410  -6.0410  -5.9942  -5.9942  -5.9736  -5.9736
    -5.9512  -5.9512  -5.9297  -5.9297  -5.8700  -5.8700  -5.8466  -5.8466
    -5.8313  -5.8313  -5.7852  -5.7852  -5.7606  -5.7606  -5.7410  -5.7410
    -5.6605  -5.6605  -5.6366  -5.6366  -5.6030  -5.6030  -5.5333  -5.5333
    -5.4960  -5.4960  -5.4239  -5.4239  -5.3921  -5.3921  -5.2324  -5.2324
    -5.1536  -5.1536  -5.0446  -5.0446  -3.8720  -3.8720  -3.8222  -3.8222
    -3.7598  -3.7598  -3.6238  -3.6238  -3.6014  -3.6014  -3.5585  -3.5585
    -3.4683  -3.4683  -3.3955  -3.3955  -3.3622  -3.3622  -3.3339  -3.3339
    -3.3181  -3.3181  -3.3012  -3.3012  -3.2744  -3.2744  -3.2399  -3.2399
    -3.2299  -3.2299  -3.1913  -3.1913  -3.1614  -3.1614  -3.1242  -3.1242
    -2.8924  -2.8924  -2.8725  -2.8725  -2.8462  -2.8462  -2.8120  -2.8120
    -2.8033  -2.8033  -2.7757  -2.7757  -2.7623  -2.7623  -2.7121  -2.7121
    -2.6736  -2.6736  -2.6187  -2.6187  -2.5994  -2.5994  -2.5895  -2.5895
    -2.5738  -2.5738  -2.5520  -2.5520  -2.5212  -2.5212  -2.4734  -2.4734
    -2.4574  -2.4574  -2.4058  -2.4058  -2.3854  -2.3854  -2.3614  -2.3614
    -2.3509  -2.3509  -2.3299  -2.3299  -2.2930  -2.2930  -2.2443  -2.2443
    -2.2155  -2.2155  -2.1995  -2.1995  -1.9628  -1.9628  -1.9363  -1.9363
    -1.9226  -1.9226  -1.9075  -1.9075  -1.7310  -1.7310  -1.7130  -1.7130
    -1.6430  -1.6430  -1.6340  -1.6340  -1.6082  -1.6082  -1.5570  -1.5570
    -0.3004  -0.3004   0.2607   0.2607   0.5407   0.5407   0.5973   0.5973
     0.6973   0.6973   0.7435   0.7435   0.7544   0.7544   0.7992   0.7992
     0.8135   0.8135   0.9112   0.9112   0.9660   0.9660   1.0116   1.0116
     1.0500   1.0500   1.1081   1.1081   1.1332   1.1332   1.1713   1.1713
     1.2014   1.2014   1.2500   1.2500   1.3390   1.3390   1.3855   1.3855
     1.4409   1.4409   1.4864   1.4864   1.4992   1.4992   1.5198   1.5198
     1.5664   1.5664   1.5908   1.5908   1.7569   1.7569   1.8186   1.8186
     1.8511   1.8512   1.8878   1.8878   1.9242   1.9242   1.9899   1.9900
     2.0662   2.0665   2.0985   2.0989

          k = 0.2500-0.0000 0.0000 (182899 PWs)   bands (ev):

  -118.0558-118.0558 -80.0501 -80.0501 -61.7996 -61.7996 -61.7661 -61.7661
   -54.1247 -54.1247 -54.1191 -54.1190 -54.0896 -54.0896 -54.0621 -54.0621
   -54.0522 -54.0521 -54.0397 -54.0396 -54.0374 -54.0373 -54.0140 -54.0140
   -54.0077 -54.0076 -54.0069 -54.0067 -54.0042 -54.0042 -53.9953 -53.9953
   -53.9938 -53.9937 -53.9913 -53.9913 -53.9823 -53.9823 -53.9772 -53.9771
   -53.9742 -53.9742 -53.9706 -53.9705 -53.9694 -53.9692 -53.9506 -53.9505
   -53.9497 -53.9496 -53.9476 -53.9474 -53.9460 -53.9459 -53.9337 -53.9336
   -53.9303 -53.9302 -53.9120 -53.9117 -53.9104 -53.9100 -53.9033 -53.9032
   -53.9006 -53.9005 -53.8996 -53.8994 -53.8946 -53.8945 -53.8924 -53.8922
   -53.8798 -53.8797 -53.8717 -53.8716 -53.8687 -53.8686 -53.8670 -53.8669
   -53.8590 -53.8588 -53.8524 -53.8523 -53.8353 -53.8352 -53.8183 -53.8181
   -53.8149 -53.8148 -53.8096 -53.8093 -53.8082 -53.8080 -53.8055 -53.8052
   -53.8041 -53.8040 -53.8006 -53.8006 -53.7974 -53.7972 -53.7855 -53.7853
   -53.7820 -53.7819 -53.7772 -53.7770 -53.7647 -53.7645 -53.7642 -53.7640
   -53.7584 -53.7582 -53.7535 -53.7533 -53.7498 -53.7497 -53.7477 -53.7476
   -53.7459 -53.7458 -53.7446 -53.7445 -53.7421 -53.7419 -53.7415 -53.7414
   -53.7396 -53.7394 -53.7331 -53.7329 -53.7320 -53.7318 -53.7287 -53.7286
   -53.7252 -53.7251 -53.7220 -53.7218 -53.7196 -53.7195 -53.7187 -53.7186
   -53.7179 -53.7177 -53.7123 -53.7120 -53.6999 -53.6998 -53.6978 -53.6978
   -53.6844 -53.6843 -53.6840 -53.6839 -53.6802 -53.6802 -53.6790 -53.6789
   -53.6638 -53.6636 -53.6615 -53.6613 -53.6478 -53.6478 -53.6385 -53.6384
   -53.6354 -53.6354 -53.6334 -53.6333 -53.6270 -53.6269 -53.6166 -53.6165
   -53.6123 -53.6122 -53.6075 -53.6071 -53.6064 -53.6063 -53.5983 -53.5982
   -53.5868 -53.5865 -53.5850 -53.5847 -53.5461 -53.5460 -53.5400 -53.5399
   -53.5366 -53.5365 -53.5347 -53.5346 -53.5259 -53.5259 -53.5133 -53.5132
   -53.5121 -53.5119 -53.4873 -53.4872 -53.4835 -53.4834 -53.4722 -53.4721
   -53.4686 -53.4685 -53.4665 -53.4664 -53.4533 -53.4532 -53.4511 -53.4511
   -53.4488 -53.4488 -53.4471 -53.4471 -53.3626 -53.3625 -53.3169 -53.3168
   -53.2677 -53.2676 -53.2665 -53.2664 -53.2364 -53.2363 -53.2094 -53.2093
   -53.1993 -53.1992 -53.1838 -53.1838 -53.1801 -53.1799 -53.1610 -53.1609
   -53.1527 -53.1525 -53.1523 -53.1521 -53.1491 -53.1490 -53.1423 -53.1420
   -53.1405 -53.1402 -53.1375 -53.1374 -53.1274 -53.1273 -53.1234 -53.1234
   -53.1199 -53.1198 -53.1179 -53.1176 -53.1158 -53.1157 -53.0975 -53.0973
   -53.0963 -53.0961 -53.0953 -53.0950 -53.0917 -53.0916 -53.0797 -53.0796
   -53.0749 -53.0747 -53.0721 -53.0719 -53.0577 -53.0572 -53.0562 -53.0557
   -53.0498 -53.0494 -53.0492 -53.0487 -53.0464 -53.0458 -53.0448 -53.0444
   -53.0408 -53.0406 -53.0262 -53.0262 -53.0193 -53.0192 -53.0178 -53.0176
   -53.0122 -53.0120 -53.0043 -53.0042 -52.9992 -52.9991 -52.9962 -52.9960
   -52.9922 -52.9921 -52.9819 -52.9818 -52.9782 -52.9781 -52.9713 -52.9712
   -52.9589 -52.9587 -52.9546 -52.9543 -52.9526 -52.9524 -52.9498 -52.9495
   -52.9474 -52.9473 -52.9461 -52.9458 -52.9447 -52.9445 -52.9436 -52.9433
   -52.9425 -52.9423 -52.9343 -52.9342 -52.9306 -52.9303 -52.9280 -52.9276
   -52.9270 -52.9267 -52.9259 -52.9255 -52.9252 -52.9248 -52.9223 -52.9221
   -52.9136 -52.9135 -52.9109 -52.9108 -52.9087 -52.9086 -52.9028 -52.9026
   -52.8950 -52.8948 -52.8933 -52.8933 -52.8912 -52.8910 -52.8895 -52.8895
   -52.8864 -52.8862 -52.8822 -52.8818 -52.8817 -52.8810 -52.8807 -52.8802
   -52.8787 -52.8786 -52.8777 -52.8774 -52.8728 -52.8726 -52.8717 -52.8715
   -52.8696 -52.8694 -52.8689 -52.8685 -52.8658 -52.8657 -52.8646 -52.8643
   -52.8636 -52.8634 -52.8615 -52.8614 -52.8606 -52.8605 -52.8538 -52.8537
   -52.8452 -52.8450 -52.8433 -52.8431 -52.8418 -52.8415 -52.8366 -52.8364
   -52.8354 -52.8354 -52.8293 -52.8292 -52.8283 -52.8281 -52.8254 -52.8250
   -52.8244 -52.8242 -52.8233 -52.8231 -52.8226 -52.8221 -52.8211 -52.8210
   -52.8174 -52.8172 -52.8131 -52.8129 -52.8081 -52.8080 -52.8057 -52.8056
   -52.8050 -52.8049 -52.8007 -52.8004 -52.7977 -52.7975 -52.7939 -52.7938
   -52.7918 -52.7917 -52.7801 -52.7800 -52.7746 -52.7744 -52.7739 -52.7737
   -52.7625 -52.7623 -52.7618 -52.7616 -52.7592 -52.7587 -52.7579 -52.7575
   -52.7568 -52.7564 -52.7430 -52.7428 -52.7406 -52.7405 -52.7385 -52.7385
   -52.7308 -52.7305 -52.7279 -52.7278 -52.7269 -52.7267 -52.7255 -52.7252
   -52.7219 -52.7216 -52.7180 -52.7178 -52.7160 -52.7160 -52.7132 -52.7130
   -52.7113 -52.7111 -52.7053 -52.7048 -52.7034 -52.7031 -52.7028 -52.7025
   -52.6909 -52.6908 -52.6896 -52.6894 -52.6847 -52.6844 -52.6773 -52.6770
   -52.6743 -52.6742 -52.6688 -52.6686 -52.6651 -52.6646 -52.6638 -52.6635
   -52.6595 -52.6594 -52.6573 -52.6568 -52.6449 -52.6447 -52.6416 -52.6415
   -52.6400 -52.6396 -52.6382 -52.6381 -52.6174 -52.6173 -52.6122 -52.6121
   -52.6085 -52.6085 -52.6068 -52.6068 -52.5980 -52.5979 -52.5867 -52.5865
   -52.5852 -52.5850 -52.5600 -52.5600 -52.5561 -52.5561 -52.5441 -52.5440
   -52.5434 -52.5430 -52.5400 -52.5399 -52.5385 -52.5385 -52.5249 -52.5249
   -52.5233 -52.5232 -52.5214 -52.5213 -52.5198 -52.5198 -52.5098 -52.5096
   -52.4429 -52.4428 -52.3906 -52.3906 -20.6451 -20.6450 -20.4543 -20.4540
   -20.2314 -20.2311 -20.1652 -20.1645 -20.1557 -20.1548 -20.1351 -20.1348
   -20.0571 -20.0570 -20.0151 -20.0147 -19.9836 -19.9827 -19.9537 -19.9533
   -19.7855 -19.7850 -19.7634 -19.7629 -19.7211 -19.7210 -19.6884 -19.6883
   -19.6217 -19.6212 -19.6091 -19.6085 -19.5977 -19.5976 -19.5052 -19.5052
   -18.7736 -18.7735 -18.7337 -18.7337 -18.6360 -18.6357 -18.6112 -18.6109
   -18.5269 -18.5267 -18.5110 -18.5106 -18.4852 -18.4842 -18.4749 -18.4740
   -18.4263 -18.4255 -18.4022 -18.4014 -18.3691 -18.3691 -18.3315 -18.3315
   -17.2378 -17.2372 -17.2038 -17.2025 -17.1308 -17.1303 -17.0639 -17.0623
   -17.0191 -17.0177 -16.8503 -16.8500 -16.7390 -16.7387 -16.6860 -16.6851
   -16.6530 -16.6523 -16.6038 -16.6027 -16.5559 -16.5554 -16.5309 -16.5305
   -15.9049 -15.9044 -15.8433 -15.8428 -15.8194 -15.8183 -15.7818 -15.7806
   -15.6882 -15.6879 -15.6556 -15.6544 -15.6423 -15.6409 -15.6297 -15.6288
   -15.3034 -15.3031 -15.2793 -15.2788 -15.0055 -15.0054 -14.9845 -14.9844
   -11.3503 -11.3495 -11.2256 -11.2251 -10.5970 -10.5916 -10.5542 -10.5377
   -10.4929 -10.4794 -10.4505 -10.4384 -10.4267 -10.4082 -10.3973 -10.3946
   -10.3750 -10.3727 -10.3495 -10.3316 -10.2230 -10.2074 -10.1784 -10.1636
   -10.1359 -10.1159 -10.0942 -10.0752 -10.0316 -10.0155 -10.0060  -9.9750
    -9.9603  -9.9510  -9.9421  -9.9326  -9.9112  -9.9064  -9.8984  -9.8897
    -9.8590  -9.8513  -9.8216  -9.8079  -9.7669  -9.7560  -9.7296  -9.7222
    -9.6985  -9.6916  -9.6795  -9.6591  -9.6438  -9.6246  -9.6122  -9.6036
    -9.5837  -9.5765  -9.5630  -9.5468  -9.5306  -9.5121  -9.4693  -9.4445
    -9.4204  -9.3794  -9.3423  -9.3194  -9.2824  -9.2691  -9.2249  -9.1773
    -9.1758  -9.1370  -9.1096  -9.0827  -9.0330  -9.0044  -8.9799  -8.9702
    -8.9460  -8.9343  -8.9227  -8.9191  -8.8996  -8.8851  -8.8588  -8.8421
    -8.7996  -8.7830  -8.6406  -8.6336  -8.5994  -8.5934  -8.5680  -8.5567
    -8.5433  -8.5397  -8.5117  -8.4956  -8.3649  -8.3418  -8.3295  -8.3182
    -8.2947  -8.2812  -8.2646  -8.2423  -8.2363  -8.2196  -8.1963  -8.1885
    -8.1749  -8.1505  -8.1306  -8.1218  -8.0812  -8.0636  -7.9259  -7.9052
    -7.6804  -7.6591  -7.5711  -7.5514  -7.4910  -7.4735  -7.4461  -7.4150
    -7.2838  -7.2623  -7.1340  -7.1267  -7.1018  -7.0791  -7.0575  -7.0439
    -7.0268  -7.0096  -7.0017  -6.9948  -6.9779  -6.9640  -6.9277  -6.8987
    -6.8882  -6.8748  -6.8490  -6.8288  -6.8030  -6.7935  -6.7772  -6.7719
    -6.7503  -6.7427  -6.7366  -6.7215  -6.7080  -6.6999  -6.6803  -6.6711
    -6.6553  -6.6458  -6.6306  -6.6150  -6.5766  -6.5419  -6.5104  -6.4870
    -6.4656  -6.4389  -6.4308  -6.4177  -6.4066  -6.3918  -6.3834  -6.3751
    -6.3561  -6.3444  -6.3321  -6.3071  -6.2965  -6.2872  -6.2667  -6.2583
    -6.2388  -6.2254  -6.2125  -6.1984  -6.1896  -6.1806  -6.1513  -6.1380
    -6.1195  -6.1013  -6.0751  -6.0589  -6.0356  -6.0290  -6.0237  -6.0100
    -5.9822  -5.9699  -5.7476  -5.7404  -5.7255  -5.7026  -5.6924  -5.6737
    -5.5870  -5.5677  -5.5294  -5.4956  -5.4823  -5.4641  -5.4441  -5.4314
    -5.3895  -5.3773  -5.3190  -5.3081  -5.2918  -5.2799  -5.2128  -5.1756
    -5.1620  -5.1382  -5.0369  -5.0119  -3.7966  -3.7752  -3.7554  -3.7319
    -3.6107  -3.6057  -3.5699  -3.5502  -3.4927  -3.4786  -3.4572  -3.4483
    -3.4340  -3.4289  -3.4111  -3.3999  -3.3927  -3.3884  -3.3795  -3.3736
    -3.3542  -3.3377  -3.3125  -3.2941  -3.2765  -3.2594  -3.2446  -3.2372
    -3.2220  -3.2057  -3.1866  -3.1795  -3.1644  -3.1600  -3.1279  -3.1153
    -3.0713  -3.0619  -3.0471  -3.0321  -3.0144  -3.0082  -2.9540  -2.9317
    -2.8500  -2.8343  -2.8116  -2.8043  -2.7845  -2.7656  -2.7390  -2.7290
    -2.7124  -2.7025  -2.6875  -2.6727  -2.6180  -2.6076  -2.5736  -2.5670
    -2.5506  -2.5386  -2.5091  -2.4902  -2.4745  -2.4657  -2.4493  -2.4389
    -2.4247  -2.4151  -2.4009  -2.3847  -2.3642  -2.3537  -2.3452  -2.3324
    -2.3161  -2.3089  -2.2821  -2.2722  -2.2170  -2.2009  -2.1859  -2.1754
    -2.1547  -2.1465  -2.1363  -2.1325  -2.1138  -2.1079  -2.0785  -2.0711
    -1.9732  -1.9571  -1.9424  -1.9303  -1.8857  -1.8729  -1.8574  -1.8430
    -1.7054  -1.6940  -1.5690  -1.5636  -1.4459  -1.4376  -1.4149  -1.4019
    -0.3170  -0.3122   0.2473   0.2591   0.4291   0.4368   0.5114   0.5169
     0.5672   0.5887   0.6264   0.6340   0.6391   0.6434   0.7735   0.7925
     0.9236   0.9401   0.9642   0.9865   1.0491   1.0526   1.0802   1.0878
     1.1305   1.1423   1.1518   1.1727   1.2121   1.2301   1.2835   1.2953
     1.3508   1.3639   1.3793   1.3954   1.4108   1.4177   1.4294   1.4428
     1.4848   1.4927   1.5166   1.5301   1.5455   1.5529   1.5726   1.5794
     1.6001   1.6029   1.6294   1.6335   1.6722   1.6741   1.6941   1.6994
     1.7122   1.7162   1.7510   1.7560   1.8097   1.8416   1.8782   1.8824
     1.9277   1.9349   1.9934   1.9981

          k = 0.2500 0.2156 0.0000 (182863 PWs)   bands (ev):

  -118.0558-118.0558 -80.0501 -80.0501 -61.7996 -61.7996 -61.7661 -61.7661
   -54.1243 -54.1243 -54.1190 -54.1189 -54.0895 -54.0894 -54.0617 -54.0617
   -54.0520 -54.0520 -54.0394 -54.0392 -54.0370 -54.0368 -54.0136 -54.0135
   -54.0074 -54.0070 -54.0069 -54.0065 -54.0039 -54.0038 -53.9952 -53.9951
   -53.9937 -53.9936 -53.9907 -53.9906 -53.9822 -53.9821 -53.9766 -53.9766
   -53.9738 -53.9738 -53.9703 -53.9701 -53.9692 -53.9691 -53.9503 -53.9501
   -53.9493 -53.9491 -53.9474 -53.9472 -53.9456 -53.9455 -53.9331 -53.9330
   -53.9301 -53.9300 -53.9120 -53.9117 -53.9098 -53.9095 -53.9028 -53.9027
   -53.9003 -53.9002 -53.8993 -53.8991 -53.8943 -53.8942 -53.8923 -53.8921
   -53.8794 -53.8793 -53.8714 -53.8713 -53.8684 -53.8681 -53.8665 -53.8663
   -53.8588 -53.8586 -53.8520 -53.8519 -53.8349 -53.8348 -53.8181 -53.8180
   -53.8148 -53.8147 -53.8092 -53.8089 -53.8082 -53.8081 -53.8053 -53.8051
   -53.8042 -53.8039 -53.8007 -53.8006 -53.7970 -53.7969 -53.7855 -53.7854
   -53.7819 -53.7818 -53.7767 -53.7766 -53.7645 -53.7644 -53.7637 -53.7635
   -53.7583 -53.7581 -53.7532 -53.7530 -53.7496 -53.7495 -53.7475 -53.7474
   -53.7455 -53.7451 -53.7444 -53.7441 -53.7421 -53.7420 -53.7415 -53.7413
   -53.7395 -53.7392 -53.7333 -53.7332 -53.7320 -53.7316 -53.7286 -53.7284
   -53.7251 -53.7250 -53.7215 -53.7213 -53.7194 -53.7194 -53.7188 -53.7184
   -53.7175 -53.7173 -53.7121 -53.7120 -53.6998 -53.6996 -53.6975 -53.6973
   -53.6844 -53.6843 -53.6837 -53.6837 -53.6804 -53.6804 -53.6785 -53.6785
   -53.6637 -53.6637 -53.6611 -53.6609 -53.6478 -53.6477 -53.6383 -53.6383
   -53.6354 -53.6353 -53.6332 -53.6332 -53.6269 -53.6268 -53.6165 -53.6163
   -53.6121 -53.6120 -53.6069 -53.6067 -53.6062 -53.6058 -53.5981 -53.5980
   -53.5868 -53.5861 -53.5851 -53.5846 -53.5458 -53.5458 -53.5399 -53.5398
   -53.5365 -53.5364 -53.5340 -53.5339 -53.5257 -53.5257 -53.5130 -53.5127
   -53.5120 -53.5117 -53.4871 -53.4871 -53.4834 -53.4833 -53.4716 -53.4716
   -53.4686 -53.4685 -53.4659 -53.4657 -53.4529 -53.4528 -53.4512 -53.4511
   -53.4485 -53.4485 -53.4470 -53.4469 -53.3625 -53.3625 -53.3168 -53.3167
   -53.2674 -53.2670 -53.2665 -53.2662 -53.2363 -53.2363 -53.2090 -53.2088
   -53.1993 -53.1992 -53.1835 -53.1834 -53.1795 -53.1794 -53.1605 -53.1603
   -53.1525 -53.1523 -53.1520 -53.1517 -53.1488 -53.1486 -53.1419 -53.1417
   -53.1405 -53.1403 -53.1368 -53.1367 -53.1273 -53.1272 -53.1230 -53.1228
   -53.1194 -53.1193 -53.1173 -53.1172 -53.1158 -53.1156 -53.0971 -53.0969
   -53.0960 -53.0958 -53.0951 -53.0947 -53.0912 -53.0911 -53.0792 -53.0790
   -53.0744 -53.0742 -53.0721 -53.0719 -53.0576 -53.0573 -53.0555 -53.0551
   -53.0492 -53.0489 -53.0488 -53.0484 -53.0461 -53.0454 -53.0444 -53.0438
   -53.0405 -53.0403 -53.0257 -53.0257 -53.0188 -53.0188 -53.0173 -53.0171
   -53.0117 -53.0113 -53.0038 -53.0038 -52.9987 -52.9986 -52.9961 -52.9960
   -52.9921 -52.9918 -52.9816 -52.9814 -52.9781 -52.9778 -52.9711 -52.9710
   -52.9590 -52.9586 -52.9541 -52.9539 -52.9525 -52.9523 -52.9496 -52.9494
   -52.9473 -52.9471 -52.9456 -52.9453 -52.9445 -52.9441 -52.9433 -52.9432
   -52.9427 -52.9425 -52.9341 -52.9339 -52.9305 -52.9302 -52.9275 -52.9269
   -52.9263 -52.9259 -52.9257 -52.9253 -52.9249 -52.9246 -52.9223 -52.9219
   -52.9137 -52.9134 -52.9108 -52.9106 -52.9086 -52.9085 -52.9021 -52.9020
   -52.8947 -52.8946 -52.8929 -52.8928 -52.8910 -52.8909 -52.8895 -52.8892
   -52.8865 -52.8862 -52.8820 -52.8816 -52.8811 -52.8807 -52.8805 -52.8799
   -52.8788 -52.8785 -52.8779 -52.8775 -52.8727 -52.8724 -52.8717 -52.8714
   -52.8698 -52.8691 -52.8689 -52.8685 -52.8658 -52.8656 -52.8644 -52.8641
   -52.8628 -52.8628 -52.8613 -52.8610 -52.8603 -52.8601 -52.8537 -52.8536
   -52.8449 -52.8446 -52.8430 -52.8428 -52.8417 -52.8416 -52.8364 -52.8361
   -52.8354 -52.8352 -52.8292 -52.8290 -52.8281 -52.8280 -52.8253 -52.8250
   -52.8241 -52.8237 -52.8234 -52.8228 -52.8224 -52.8223 -52.8210 -52.8208
   -52.8177 -52.8172 -52.8131 -52.8128 -52.8080 -52.8078 -52.8056 -52.8054
   -52.8049 -52.8045 -52.8006 -52.8003 -52.7975 -52.7973 -52.7939 -52.7937
   -52.7914 -52.7913 -52.7798 -52.7795 -52.7745 -52.7742 -52.7738 -52.7737
   -52.7624 -52.7623 -52.7616 -52.7615 -52.7592 -52.7588 -52.7578 -52.7573
   -52.7561 -52.7558 -52.7427 -52.7426 -52.7406 -52.7403 -52.7381 -52.7379
   -52.7305 -52.7303 -52.7277 -52.7273 -52.7269 -52.7266 -52.7248 -52.7246
   -52.7215 -52.7213 -52.7177 -52.7175 -52.7158 -52.7157 -52.7131 -52.7130
   -52.7110 -52.7109 -52.7048 -52.7046 -52.7033 -52.7029 -52.7024 -52.7022
   -52.6908 -52.6907 -52.6893 -52.6893 -52.6843 -52.6842 -52.6770 -52.6768
   -52.6739 -52.6739 -52.6688 -52.6687 -52.6646 -52.6643 -52.6631 -52.6630
   -52.6594 -52.6592 -52.6565 -52.6561 -52.6444 -52.6442 -52.6416 -52.6414
   -52.6395 -52.6392 -52.6379 -52.6378 -52.6173 -52.6172 -52.6121 -52.6121
   -52.6086 -52.6085 -52.6063 -52.6062 -52.5979 -52.5978 -52.5864 -52.5862
   -52.5850 -52.5849 -52.5600 -52.5599 -52.5561 -52.5561 -52.5440 -52.5439
   -52.5431 -52.5428 -52.5402 -52.5402 -52.5379 -52.5378 -52.5246 -52.5246
   -52.5234 -52.5234 -52.5211 -52.5210 -52.5198 -52.5198 -52.5095 -52.5093
   -52.4426 -52.4425 -52.3906 -52.3906 -20.6148 -20.6141 -20.4241 -20.4234
   -20.3652 -20.3634 -20.2050 -20.2046 -20.1758 -20.1743 -20.1282 -20.1272
   -20.0308 -20.0298 -19.9925 -19.9922 -19.9610 -19.9596 -19.9078 -19.9058
   -19.8696 -19.8676 -19.8077 -19.8048 -19.7524 -19.7503 -19.7031 -19.7005
   -19.5328 -19.5289 -19.4671 -19.4630 -19.3826 -19.3782 -19.3185 -19.3143
   -19.1702 -19.1669 -19.0196 -19.0158 -18.8741 -18.8695 -18.8355 -18.8305
   -18.7640 -18.7588 -18.6995 -18.6944 -18.3033 -18.3000 -18.1951 -18.1914
   -18.1399 -18.1357 -18.1090 -18.1047 -18.0487 -18.0444 -17.9860 -17.9816
   -17.4368 -17.4349 -17.4075 -17.4054 -17.3470 -17.3452 -17.3160 -17.3144
   -17.2742 -17.2723 -17.2150 -17.2128 -16.5700 -16.5669 -16.5235 -16.5201
   -16.4225 -16.4194 -16.4063 -16.4033 -16.2971 -16.2952 -16.1977 -16.1965
   -16.0683 -16.0625 -16.0016 -15.9953 -15.8749 -15.8693 -15.8550 -15.8492
   -15.7425 -15.7392 -15.6762 -15.6732 -15.5687 -15.5648 -15.5254 -15.5230
   -15.5128 -15.5098 -15.3301 -15.3262 -15.1153 -15.1124 -14.7781 -14.7753
   -11.3508 -11.3494 -11.2257 -11.2250 -10.7223 -10.6932 -10.6339 -10.6050
   -10.5689 -10.5473 -10.5223 -10.5032 -10.3821 -10.3511 -10.3076 -10.2665
   -10.2559 -10.2345 -10.2171 -10.2110 -10.1924 -10.1761 -10.1669 -10.1554
   -10.1385 -10.1102 -10.1030 -10.0733 -10.0606 -10.0454 -10.0266 -10.0159
    -9.9676  -9.9632  -9.9242  -9.8961  -9.8869  -9.8735  -9.8578  -9.8460
    -9.8173  -9.8030  -9.7983  -9.7958  -9.7801  -9.7747  -9.7616  -9.7439
    -9.7356  -9.7314  -9.7160  -9.7024  -9.6794  -9.6558  -9.6331  -9.6087
    -9.5783  -9.5483  -9.5297  -9.5072  -9.4866  -9.4620  -9.4558  -9.4373
    -9.3898  -9.3708  -9.3386  -9.3217  -9.3059  -9.2950  -9.2805  -9.2650
    -9.2346  -9.2055  -9.1702  -9.1545  -9.1205  -9.0959  -9.0404  -9.0140
    -8.9944  -8.9724  -8.9312  -8.9211  -8.9120  -8.8858  -8.8698  -8.8104
    -8.6800  -8.6389  -8.6284  -8.5899  -8.5697  -8.5621  -8.5357  -8.5072
    -8.4914  -8.4601  -8.4425  -8.4354  -8.3841  -8.3536  -8.3373  -8.3105
    -8.2951  -8.2754  -8.2574  -8.2471  -8.2236  -8.2084  -8.1999  -8.1816
    -8.1681  -8.1515  -8.1380  -8.1233  -8.0830  -8.0719  -7.9429  -7.8691
    -7.6832  -7.6254  -7.5776  -7.5415  -7.5260  -7.4813  -7.4579  -7.4461
    -7.4236  -7.3862  -7.3519  -7.3364  -7.3079  -7.2138  -7.1359  -7.1062
    -7.0924  -7.0367  -7.0203  -7.0065  -6.9868  -6.9617  -6.9437  -6.9373
    -6.9239  -6.9206  -6.8798  -6.8721  -6.8251  -6.8004  -6.7527  -6.6934
    -6.6805  -6.6657  -6.6562  -6.6392  -6.6348  -6.6173  -6.5952  -6.5753
    -6.5700  -6.5434  -6.5371  -6.5310  -6.5146  -6.4963  -6.4866  -6.4716
    -6.4590  -6.4484  -6.4457  -6.4372  -6.4250  -6.4143  -6.4001  -6.3910
    -6.3805  -6.3598  -6.3377  -6.3073  -6.2917  -6.2838  -6.2401  -6.2289
    -6.2107  -6.1863  -6.1789  -6.1568  -6.1459  -6.1365  -6.1223  -6.0984
    -6.0572  -6.0451  -6.0042  -5.9830  -5.9651  -5.9466  -5.9354  -5.8903
    -5.8770  -5.8599  -5.7726  -5.7515  -5.7333  -5.7111  -5.6749  -5.6563
    -5.6510  -5.6197  -5.6020  -5.5629  -5.5416  -5.5022  -5.4878  -5.4661
    -5.4492  -5.4332  -5.4172  -5.3913  -5.3491  -5.3392  -5.3131  -5.2446
    -5.2148  -5.1379  -4.9893  -4.9720  -3.8018  -3.7748  -3.7089  -3.6859
    -3.6699  -3.6584  -3.6458  -3.6278  -3.5489  -3.5229  -3.5126  -3.4933
    -3.4646  -3.4497  -3.4389  -3.4225  -3.4060  -3.3954  -3.3712  -3.3551
    -3.3265  -3.3150  -3.3067  -3.2873  -3.2723  -3.2602  -3.2190  -3.2099
    -3.1961  -3.1639  -3.1420  -3.1305  -3.1202  -3.1026  -3.0846  -3.0642
    -3.0528  -3.0280  -2.9965  -2.9864  -2.9698  -2.9428  -2.9364  -2.9184
    -2.8693  -2.8414  -2.7976  -2.7758  -2.7665  -2.7381  -2.7198  -2.7109
    -2.7004  -2.6944  -2.6791  -2.6602  -2.6546  -2.6394  -2.6178  -2.6013
    -2.5739  -2.5455  -2.5335  -2.5249  -2.5082  -2.4948  -2.4747  -2.4514
    -2.4478  -2.4344  -2.4298  -2.4069  -2.4012  -2.3866  -2.3680  -2.3596
    -2.3436  -2.3291  -2.3140  -2.3001  -2.2677  -2.2332  -2.2228  -2.1882
    -2.1572  -2.1380  -2.1188  -2.1013  -2.0866  -2.0631  -2.0403  -2.0279
    -1.9770  -1.9663  -1.9248  -1.9157  -1.8475  -1.8307  -1.7483  -1.7376
    -1.6697  -1.6614  -1.6152  -1.6082  -1.5203  -1.5107  -1.4217  -1.4162
    -0.3121  -0.3101   0.2482   0.2564   0.4699   0.4749   0.5844   0.5889
     0.6234   0.6313   0.6609   0.6699   0.7322   0.7432   0.7766   0.7917
     0.8803   0.8858   0.9121   0.9189   0.9947   1.0020   1.0277   1.0367
     1.0840   1.0987   1.1539   1.1601   1.1842   1.1959   1.2445   1.2511
     1.2667   1.2809   1.3139   1.3331   1.3415   1.3457   1.3698   1.3809
     1.4099   1.4284   1.4339   1.4465   1.5133   1.5229   1.5674   1.5832
     1.6145   1.6252   1.6796   1.6901   1.7276   1.7382   1.7828   1.7880
     1.7946   1.8013   1.8172   1.8418   1.8773   1.8830   1.9198   1.9325
     1.9663   1.9735   2.0029   2.0157

          k = 0.2500-0.4311 0.0000 (182946 PWs)   bands (ev):

  -118.0558-118.0558 -80.0501 -80.0501 -61.7996 -61.7996 -61.7661 -61.7661
   -54.1251 -54.1250 -54.1195 -54.1194 -54.0900 -54.0900 -54.0624 -54.0624
   -54.0526 -54.0524 -54.0402 -54.0400 -54.0376 -54.0376 -54.0144 -54.0143
   -54.0080 -54.0077 -54.0073 -54.0069 -54.0048 -54.0046 -53.9957 -53.9957
   -53.9941 -53.9940 -53.9917 -53.9917 -53.9827 -53.9827 -53.9774 -53.9774
   -53.9747 -53.9747 -53.9708 -53.9707 -53.9699 -53.9697 -53.9507 -53.9506
   -53.9502 -53.9501 -53.9478 -53.9477 -53.9462 -53.9461 -53.9338 -53.9338
   -53.9308 -53.9308 -53.9126 -53.9123 -53.9104 -53.9100 -53.9034 -53.9033
   -53.9020 -53.9018 -53.8994 -53.8992 -53.8950 -53.8949 -53.8926 -53.8925
   -53.8800 -53.8800 -53.8721 -53.8720 -53.8696 -53.8695 -53.8672 -53.8669
   -53.8593 -53.8590 -53.8528 -53.8527 -53.8356 -53.8355 -53.8186 -53.8186
   -53.8155 -53.8154 -53.8097 -53.8096 -53.8089 -53.8088 -53.8055 -53.8054
   -53.8050 -53.8048 -53.8012 -53.8011 -53.7977 -53.7976 -53.7858 -53.7857
   -53.7826 -53.7824 -53.7774 -53.7771 -53.7651 -53.7649 -53.7644 -53.7642
   -53.7588 -53.7586 -53.7541 -53.7539 -53.7501 -53.7499 -53.7481 -53.7480
   -53.7461 -53.7461 -53.7446 -53.7445 -53.7429 -53.7427 -53.7421 -53.7419
   -53.7399 -53.7398 -53.7340 -53.7337 -53.7322 -53.7320 -53.7292 -53.7289
   -53.7256 -53.7254 -53.7223 -53.7221 -53.7203 -53.7202 -53.7192 -53.7189
   -53.7185 -53.7182 -53.7128 -53.7126 -53.7004 -53.7002 -53.6982 -53.6980
   -53.6848 -53.6848 -53.6843 -53.6843 -53.6807 -53.6807 -53.6795 -53.6794
   -53.6643 -53.6642 -53.6618 -53.6617 -53.6482 -53.6482 -53.6389 -53.6389
   -53.6363 -53.6362 -53.6334 -53.6334 -53.6273 -53.6273 -53.6170 -53.6168
   -53.6127 -53.6127 -53.6076 -53.6073 -53.6068 -53.6065 -53.5986 -53.5985
   -53.5871 -53.5868 -53.5859 -53.5855 -53.5464 -53.5464 -53.5402 -53.5402
   -53.5368 -53.5367 -53.5350 -53.5350 -53.5264 -53.5264 -53.5136 -53.5134
   -53.5125 -53.5124 -53.4876 -53.4875 -53.4837 -53.4837 -53.4723 -53.4722
   -53.4692 -53.4692 -53.4665 -53.4664 -53.4536 -53.4535 -53.4517 -53.4516
   -53.4489 -53.4488 -53.4475 -53.4474 -53.3631 -53.3630 -53.3172 -53.3172
   -53.2680 -53.2679 -53.2670 -53.2668 -53.2368 -53.2367 -53.2097 -53.2097
   -53.1997 -53.1996 -53.1842 -53.1842 -53.1802 -53.1801 -53.1613 -53.1613
   -53.1530 -53.1528 -53.1527 -53.1524 -53.1495 -53.1493 -53.1425 -53.1424
   -53.1409 -53.1408 -53.1378 -53.1377 -53.1278 -53.1277 -53.1238 -53.1237
   -53.1203 -53.1202 -53.1180 -53.1179 -53.1162 -53.1161 -53.0975 -53.0974
   -53.0968 -53.0966 -53.0954 -53.0952 -53.0918 -53.0917 -53.0799 -53.0797
   -53.0751 -53.0750 -53.0727 -53.0725 -53.0581 -53.0577 -53.0560 -53.0555
   -53.0503 -53.0501 -53.0493 -53.0490 -53.0475 -53.0469 -53.0443 -53.0438
   -53.0412 -53.0410 -53.0263 -53.0263 -53.0197 -53.0196 -53.0180 -53.0179
   -53.0127 -53.0125 -53.0048 -53.0047 -52.9995 -52.9992 -52.9967 -52.9966
   -52.9926 -52.9924 -52.9824 -52.9821 -52.9785 -52.9784 -52.9716 -52.9715
   -52.9591 -52.9590 -52.9549 -52.9548 -52.9531 -52.9528 -52.9501 -52.9499
   -52.9478 -52.9475 -52.9464 -52.9462 -52.9450 -52.9446 -52.9439 -52.9436
   -52.9433 -52.9431 -52.9346 -52.9344 -52.9310 -52.9307 -52.9282 -52.9278
   -52.9269 -52.9267 -52.9264 -52.9259 -52.9256 -52.9254 -52.9229 -52.9226
   -52.9140 -52.9138 -52.9112 -52.9110 -52.9092 -52.9090 -52.9031 -52.9030
   -52.8956 -52.8955 -52.8937 -52.8936 -52.8914 -52.8912 -52.8900 -52.8898
   -52.8866 -52.8865 -52.8828 -52.8824 -52.8817 -52.8814 -52.8812 -52.8806
   -52.8793 -52.8792 -52.8780 -52.8778 -52.8731 -52.8730 -52.8721 -52.8719
   -52.8702 -52.8700 -52.8694 -52.8692 -52.8663 -52.8661 -52.8651 -52.8648
   -52.8640 -52.8637 -52.8621 -52.8618 -52.8612 -52.8611 -52.8544 -52.8543
   -52.8457 -52.8455 -52.8435 -52.8432 -52.8421 -52.8418 -52.8370 -52.8366
   -52.8358 -52.8357 -52.8298 -52.8295 -52.8285 -52.8283 -52.8257 -52.8254
   -52.8247 -52.8246 -52.8238 -52.8233 -52.8228 -52.8227 -52.8213 -52.8211
   -52.8181 -52.8178 -52.8136 -52.8134 -52.8082 -52.8082 -52.8061 -52.8058
   -52.8054 -52.8050 -52.8011 -52.8010 -52.7980 -52.7979 -52.7945 -52.7944
   -52.7920 -52.7919 -52.7803 -52.7801 -52.7751 -52.7748 -52.7744 -52.7742
   -52.7630 -52.7627 -52.7622 -52.7619 -52.7597 -52.7592 -52.7579 -52.7575
   -52.7571 -52.7568 -52.7432 -52.7432 -52.7410 -52.7409 -52.7389 -52.7388
   -52.7310 -52.7309 -52.7282 -52.7279 -52.7274 -52.7272 -52.7258 -52.7255
   -52.7223 -52.7220 -52.7186 -52.7184 -52.7164 -52.7163 -52.7140 -52.7138
   -52.7111 -52.7110 -52.7053 -52.7052 -52.7040 -52.7036 -52.7033 -52.7030
   -52.6911 -52.6911 -52.6900 -52.6898 -52.6849 -52.6847 -52.6777 -52.6775
   -52.6744 -52.6743 -52.6691 -52.6690 -52.6652 -52.6649 -52.6637 -52.6636
   -52.6602 -52.6601 -52.6573 -52.6569 -52.6453 -52.6451 -52.6423 -52.6422
   -52.6400 -52.6397 -52.6385 -52.6383 -52.6177 -52.6177 -52.6125 -52.6124
   -52.6086 -52.6086 -52.6073 -52.6072 -52.5985 -52.5983 -52.5869 -52.5866
   -52.5856 -52.5855 -52.5603 -52.5603 -52.5565 -52.5564 -52.5445 -52.5444
   -52.5438 -52.5436 -52.5406 -52.5406 -52.5386 -52.5385 -52.5253 -52.5252
   -52.5238 -52.5237 -52.5215 -52.5215 -52.5203 -52.5202 -52.5099 -52.5098
   -52.4432 -52.4432 -52.3910 -52.3909 -20.5387 -20.5386 -20.5010 -20.5010
   -20.3441 -20.3439 -20.3196 -20.3194 -20.1233 -20.1230 -20.1035 -20.1032
   -20.0500 -20.0499 -20.0338 -20.0337 -19.9527 -19.9526 -19.9382 -19.9381
   -19.9287 -19.9286 -19.8495 -19.8495 -19.5747 -19.5745 -19.5268 -19.5266
   -19.4430 -19.4422 -19.3566 -19.3558 -19.2959 -19.2950 -19.2295 -19.2286
   -19.1992 -19.1986 -19.1128 -19.1120 -19.0903 -19.0895 -19.0601 -19.0597
   -19.0259 -19.0256 -18.9620 -18.9619 -17.8500 -17.8498 -17.8326 -17.8324
   -17.7752 -17.7735 -17.7699 -17.7682 -17.7458 -17.7455 -17.7282 -17.7282
   -17.7175 -17.7167 -17.7034 -17.7026 -17.6818 -17.6808 -17.6690 -17.6680
   -17.6282 -17.6280 -17.5753 -17.5752 -16.3194 -16.3180 -16.2969 -16.2946
   -16.2511 -16.2501 -16.2449 -16.2430 -16.1502 -16.1498 -16.1327 -16.1303
   -16.1164 -16.1128 -16.0993 -16.0978 -15.9136 -15.9134 -15.9065 -15.9063
   -15.7478 -15.7476 -15.7367 -15.7365 -15.6990 -15.6985 -15.6261 -15.6258
   -15.4812 -15.4811 -15.4651 -15.4645 -15.0542 -15.0537 -14.7003 -14.7001
   -11.3502 -11.3496 -11.2258 -11.2251 -10.7653 -10.7496 -10.6967 -10.6740
   -10.6103 -10.6051 -10.5598 -10.5535 -10.2910 -10.2773 -10.2606 -10.2486
   -10.2139 -10.2052 -10.1991 -10.1910 -10.1772 -10.1584 -10.1051 -10.0867
   -10.0664 -10.0576 -10.0410 -10.0290 -10.0161  -9.9998  -9.9869  -9.9773
    -9.9663  -9.9491  -9.9392  -9.9295  -9.9121  -9.8949  -9.8794  -9.8692
    -9.8552  -9.8477  -9.8284  -9.8205  -9.7864  -9.7750  -9.7583  -9.7468
    -9.7341  -9.7239  -9.7153  -9.6988  -9.6704  -9.6401  -9.6262  -9.5971
    -9.5900  -9.5641  -9.5447  -9.5284  -9.4794  -9.4600  -9.4433  -9.4240
    -9.3853  -9.3747  -9.3609  -9.3534  -9.3362  -9.3120  -9.2873  -9.2570
    -9.2305  -9.2225  -9.2117  -9.1877  -9.1537  -9.1300  -9.1073  -9.0901
    -9.0554  -9.0470  -8.9945  -8.9721  -8.9181  -8.8909  -8.8040  -8.7828
    -8.6703  -8.6513  -8.5634  -8.5602  -8.4992  -8.4851  -8.4290  -8.4280
    -8.4180  -8.4121  -8.3852  -8.3742  -8.3552  -8.3518  -8.3344  -8.3106
    -8.2911  -8.2830  -8.2557  -8.2508  -8.2373  -8.2309  -8.2082  -8.2041
    -8.1792  -8.1629  -8.1587  -8.1441  -8.1053  -8.0793  -7.8500  -7.8220
    -7.7102  -7.6830  -7.6125  -7.6036  -7.5830  -7.5254  -7.5004  -7.4732
    -7.4534  -7.4151  -7.3910  -7.3817  -7.3572  -7.3275  -7.2942  -7.2855
    -7.2488  -7.2408  -7.0416  -7.0238  -6.9647  -6.9550  -6.9300  -6.9050
    -6.8357  -6.8114  -6.7965  -6.7905  -6.7652  -6.7543  -6.7185  -6.7127
    -6.6934  -6.6697  -6.6613  -6.6484  -6.6331  -6.6153  -6.5853  -6.5740
    -6.5617  -6.5497  -6.5400  -6.5227  -6.5152  -6.4986  -6.4900  -6.4769
    -6.4642  -6.4546  -6.4437  -6.4345  -6.4229  -6.4053  -6.3925  -6.3756
    -6.3623  -6.3404  -6.3331  -6.3008  -6.2567  -6.2191  -6.1927  -6.1742
    -6.1575  -6.1433  -6.1048  -6.0585  -6.0309  -6.0123  -5.9948  -5.9814
    -5.9593  -5.9453  -5.9166  -5.8900  -5.8741  -5.8641  -5.8463  -5.8250
    -5.8152  -5.8049  -5.7914  -5.7812  -5.7640  -5.7464  -5.7350  -5.7212
    -5.6929  -5.6719  -5.6604  -5.6463  -5.6189  -5.6062  -5.5956  -5.5804
    -5.5360  -5.5288  -5.4982  -5.4857  -5.4340  -5.4183  -5.3038  -5.2733
    -5.1738  -5.1418  -4.9755  -4.9399  -3.7907  -3.7822  -3.7546  -3.7470
    -3.7324  -3.7247  -3.5910  -3.5802  -3.5615  -3.5462  -3.5314  -3.5175
    -3.5112  -3.4972  -3.4419  -3.4139  -3.4069  -3.3930  -3.3613  -3.3532
    -3.3386  -3.3262  -3.3138  -3.2996  -3.2591  -3.2506  -3.2065  -3.1928
    -3.1766  -3.1622  -3.1537  -3.1190  -3.1072  -3.0989  -3.0633  -3.0501
    -2.9908  -2.9786  -2.9460  -2.9289  -2.9103  -2.8890  -2.8724  -2.8398
    -2.8261  -2.8044  -2.7883  -2.7811  -2.7690  -2.7590  -2.7442  -2.7243
    -2.7144  -2.7001  -2.6807  -2.6687  -2.6476  -2.6413  -2.6122  -2.6018
    -2.5572  -2.5539  -2.5453  -2.5303  -2.5230  -2.5147  -2.4918  -2.4731
    -2.4573  -2.4500  -2.4411  -2.4362  -2.4190  -2.4075  -2.3916  -2.3881
    -2.3695  -2.3543  -2.3412  -2.3290  -2.2934  -2.2703  -2.2594  -2.2352
    -2.2221  -2.2122  -2.1967  -2.1796  -2.0380  -2.0260  -1.9991  -1.9827
    -1.8497  -1.8361  -1.8327  -1.8192  -1.7559  -1.7491  -1.7435  -1.7354
    -1.7055  -1.6991  -1.6847  -1.6822  -1.5208  -1.5134  -1.4874  -1.4779
    -0.3098  -0.3052   0.2587   0.2676   0.5446   0.5716   0.5927   0.6017
     0.6788   0.6843   0.7360   0.7434   0.7557   0.7678   0.7967   0.8012
     0.8652   0.8774   0.9319   0.9431   0.9474   0.9645   0.9995   1.0062
     1.0381   1.0518   1.0737   1.0876   1.1112   1.1278   1.1714   1.1899
     1.2155   1.2240   1.2539   1.2584   1.2876   1.2931   1.3137   1.3288
     1.3560   1.3670   1.4099   1.4337   1.4539   1.4600   1.5073   1.5301
     1.6262   1.6316   1.7518   1.7566   1.7864   1.7947   1.8230   1.8285
     1.8756   1.8822   1.9027   1.9068   1.9463   1.9549   1.9598   1.9681
     1.9861   1.9934   2.0207   2.0290

          k =-0.5000 0.0000 0.0000 (182896 PWs)   bands (ev):

  -118.0558-118.0558 -80.0501 -80.0501 -61.7996 -61.7996 -61.7661 -61.7661
   -54.1249 -54.1249 -54.1192 -54.1192 -54.0897 -54.0897 -54.0623 -54.0623
   -54.0523 -54.0523 -54.0392 -54.0392 -54.0375 -54.0375 -54.0142 -54.0142
   -54.0073 -54.0073 -54.0067 -54.0067 -54.0044 -54.0044 -53.9956 -53.9956
   -53.9939 -53.9939 -53.9913 -53.9913 -53.9824 -53.9824 -53.9771 -53.9771
   -53.9741 -53.9741 -53.9699 -53.9699 -53.9695 -53.9695 -53.9502 -53.9502
   -53.9494 -53.9494 -53.9475 -53.9475 -53.9454 -53.9454 -53.9328 -53.9328
   -53.9301 -53.9301 -53.9119 -53.9119 -53.9095 -53.9095 -53.9025 -53.9025
   -53.9011 -53.9011 -53.8982 -53.8982 -53.8942 -53.8942 -53.8922 -53.8922
   -53.8791 -53.8791 -53.8710 -53.8710 -53.8690 -53.8690 -53.8670 -53.8670
   -53.8585 -53.8585 -53.8518 -53.8518 -53.8352 -53.8352 -53.8186 -53.8186
   -53.8153 -53.8153 -53.8097 -53.8097 -53.8080 -53.8080 -53.8052 -53.8052
   -53.8044 -53.8044 -53.8008 -53.8008 -53.7972 -53.7972 -53.7855 -53.7855
   -53.7819 -53.7819 -53.7766 -53.7766 -53.7647 -53.7647 -53.7639 -53.7639
   -53.7588 -53.7588 -53.7538 -53.7538 -53.7498 -53.7498 -53.7474 -53.7474
   -53.7456 -53.7456 -53.7441 -53.7441 -53.7421 -53.7421 -53.7417 -53.7417
   -53.7395 -53.7395 -53.7342 -53.7342 -53.7304 -53.7304 -53.7286 -53.7286
   -53.7245 -53.7245 -53.7221 -53.7221 -53.7206 -53.7206 -53.7180 -53.7180
   -53.7169 -53.7169 -53.7117 -53.7117 -53.7002 -53.7002 -53.6977 -53.6977
   -53.6848 -53.6848 -53.6846 -53.6846 -53.6807 -53.6807 -53.6795 -53.6795
   -53.6640 -53.6640 -53.6611 -53.6611 -53.6483 -53.6483 -53.6388 -53.6388
   -53.6364 -53.6364 -53.6331 -53.6331 -53.6275 -53.6275 -53.6164 -53.6164
   -53.6126 -53.6126 -53.6073 -53.6073 -53.6063 -53.6063 -53.5980 -53.5980
   -53.5867 -53.5867 -53.5850 -53.5850 -53.5465 -53.5465 -53.5398 -53.5398
   -53.5363 -53.5363 -53.5342 -53.5342 -53.5264 -53.5264 -53.5128 -53.5128
   -53.5123 -53.5123 -53.4871 -53.4871 -53.4833 -53.4833 -53.4715 -53.4715
   -53.4698 -53.4698 -53.4647 -53.4647 -53.4529 -53.4529 -53.4521 -53.4521
   -53.4478 -53.4478 -53.4465 -53.4465 -53.3630 -53.3630 -53.3166 -53.3166
[...]
    -6.6426  -6.6426  -6.6282  -6.6282  -6.5988  -6.5988  -6.5701  -6.5701
    -6.5494  -6.5494  -6.5221  -6.5221  -6.4959  -6.4959  -6.4937  -6.4937
    -6.4581  -6.4581  -6.4239  -6.4239  -6.4001  -6.4001  -6.3912  -6.3912
    -6.3355  -6.3355  -6.2890  -6.2890  -6.2246  -6.2246  -6.1770  -6.1770
    -6.1291  -6.1291  -6.0492  -6.0492  -6.0209  -6.0209  -5.9906  -5.9906
    -5.9658  -5.9658  -5.9512  -5.9512  -5.9101  -5.9101  -5.8713  -5.8713
    -5.8372  -5.8372  -5.8106  -5.8106  -5.7747  -5.7747  -5.7470  -5.7470
    -5.7048  -5.7048  -5.6699  -5.6699  -5.6361  -5.6361  -5.6018  -5.6018
    -5.5570  -5.5570  -5.5408  -5.5408  -5.4633  -5.4633  -5.2429  -5.2429
    -5.1166  -5.1166  -4.9496  -4.9496  -3.7497  -3.7497  -3.6738  -3.6738
    -3.6176  -3.6176  -3.5661  -3.5661  -3.5451  -3.5451  -3.5223  -3.5223
    -3.5083  -3.5083  -3.4804  -3.4804  -3.4280  -3.4280  -3.3804  -3.3804
    -3.2443  -3.2443  -3.1824  -3.1824  -3.1656  -3.1656  -3.1529  -3.1529
    -3.1074  -3.1074  -3.0932  -3.0932  -3.0656  -3.0656  -3.0370  -3.0370
    -3.0197  -3.0197  -2.9966  -2.9966  -2.9855  -2.9855  -2.9704  -2.9704
    -2.9406  -2.9406  -2.9191  -2.9191  -2.8857  -2.8857  -2.8308  -2.8308
    -2.7254  -2.7254  -2.7035  -2.7035  -2.6717  -2.6717  -2.6448  -2.6448
    -2.4988  -2.4988  -2.4696  -2.4696  -2.4529  -2.4529  -2.4291  -2.4291
    -2.4214  -2.4214  -2.4021  -2.4021  -2.3800  -2.3800  -2.3595  -2.3595
    -2.3256  -2.3256  -2.2961  -2.2961  -2.2829  -2.2829  -2.2663  -2.2663
    -2.2446  -2.2446  -2.2055  -2.2055  -2.1808  -2.1808  -2.1441  -2.1441
    -1.8497  -1.8497  -1.8373  -1.8373  -1.7966  -1.7966  -1.7846  -1.7846
    -1.5673  -1.5673  -1.5433  -1.5433  -1.5268  -1.5268  -1.5066  -1.5066
    -0.3145  -0.3145   0.2644   0.2644   0.5788   0.5788   0.6207   0.6207
     0.6757   0.6757   0.7056   0.7056   0.7450   0.7450   0.8268   0.8268
     0.8531   0.8531   0.8747   0.8747   0.9729   0.9729   1.0047   1.0047
     1.0145   1.0145   1.0976   1.0976   1.1962   1.1962   1.2247   1.2247
     1.2577   1.2577   1.2868   1.2868   1.3018   1.3018   1.3351   1.3351
     1.3749   1.3749   1.4082   1.4082   1.4345   1.4345   1.4955   1.4955
     1.6220   1.6220   1.6515   1.6515   1.6638   1.6638   1.7289   1.7289
     1.7918   1.7918   1.8216   1.8216   1.9025   1.9025   1.9627   1.9627
     2.0185   2.0186   2.0413   2.0413

          k =-0.2500 0.2156 0.0000 (182863 PWs)   bands (ev):

  -118.0558-118.0558 -80.0501 -80.0501 -61.7996 -61.7996 -61.7661 -61.7661
   -54.1246 -54.1245 -54.1187 -54.1187 -54.0892 -54.0892 -54.0620 -54.0619
   -54.0518 -54.0517 -54.0394 -54.0392 -54.0373 -54.0372 -54.0139 -54.0139
   -54.0072 -54.0070 -54.0066 -54.0063 -54.0043 -54.0040 -53.9952 -53.9951
   -53.9934 -53.9932 -53.9913 -53.9912 -53.9819 -53.9818 -53.9770 -53.9770
   -53.9742 -53.9741 -53.9702 -53.9699 -53.9690 -53.9689 -53.9503 -53.9502
   -53.9494 -53.9492 -53.9471 -53.9469 -53.9453 -53.9452 -53.9334 -53.9333
   -53.9298 -53.9298 -53.9117 -53.9114 -53.9098 -53.9095 -53.9030 -53.9028
   -53.9005 -53.9002 -53.8992 -53.8991 -53.8942 -53.8941 -53.8919 -53.8918
   -53.8793 -53.8793 -53.8713 -53.8713 -53.8690 -53.8687 -53.8666 -53.8664
   -53.8590 -53.8587 -53.8521 -53.8519 -53.8351 -53.8350 -53.8179 -53.8179
   -53.8145 -53.8143 -53.8092 -53.8091 -53.8084 -53.8083 -53.8050 -53.8048
   -53.8043 -53.8041 -53.8001 -53.8000 -53.7973 -53.7972 -53.7853 -53.7851
   -53.7816 -53.7816 -53.7766 -53.7764 -53.7646 -53.7641 -53.7639 -53.7634
   -53.7582 -53.7581 -53.7534 -53.7533 -53.7495 -53.7494 -53.7477 -53.7476
   -53.7457 -53.7456 -53.7438 -53.7436 -53.7422 -53.7419 -53.7413 -53.7411
   -53.7396 -53.7395 -53.7331 -53.7330 -53.7314 -53.7313 -53.7281 -53.7280
   -53.7249 -53.7248 -53.7217 -53.7215 -53.7197 -53.7196 -53.7186 -53.7185
   -53.7177 -53.7175 -53.7125 -53.7122 -53.6998 -53.6996 -53.6977 -53.6976
   -53.6845 -53.6845 -53.6836 -53.6836 -53.6800 -53.6800 -53.6791 -53.6790
   -53.6637 -53.6635 -53.6614 -53.6612 -53.6477 -53.6477 -53.6383 -53.6383
   -53.6353 -53.6352 -53.6332 -53.6331 -53.6268 -53.6267 -53.6162 -53.6161
   -53.6122 -53.6121 -53.6071 -53.6068 -53.6064 -53.6062 -53.5979 -53.5978
   -53.5867 -53.5863 -53.5849 -53.5846 -53.5460 -53.5459 -53.5397 -53.5395
   -53.5363 -53.5362 -53.5347 -53.5346 -53.5260 -53.5259 -53.5132 -53.5130
   -53.5120 -53.5117 -53.4869 -53.4868 -53.4831 -53.4830 -53.4720 -53.4719
   -53.4688 -53.4687 -53.4661 -53.4661 -53.4532 -53.4531 -53.4511 -53.4510
   -53.4484 -53.4483 -53.4465 -53.4464 -53.3625 -53.3625 -53.3165 -53.3165
   -53.2675 -53.2674 -53.2662 -53.2661 -53.2360 -53.2358 -53.2093 -53.2092
   -53.1990 -53.1988 -53.1838 -53.1837 -53.1796 -53.1795 -53.1609 -53.1608
   -53.1525 -53.1523 -53.1519 -53.1518 -53.1487 -53.1485 -53.1420 -53.1419
   -53.1401 -53.1399 -53.1375 -53.1373 -53.1270 -53.1269 -53.1234 -53.1233
   -53.1199 -53.1197 -53.1174 -53.1173 -53.1153 -53.1152 -53.0971 -53.0970
   -53.0959 -53.0958 -53.0947 -53.0944 -53.0910 -53.0909 -53.0793 -53.0792
   -53.0743 -53.0742 -53.0717 -53.0716 -53.0573 -53.0569 -53.0555 -53.0551
   -53.0499 -53.0496 -53.0488 -53.0481 -53.0461 -53.0455 -53.0441 -53.0438
   -53.0404 -53.0403 -53.0258 -53.0256 -53.0191 -53.0190 -53.0172 -53.0172
   -53.0122 -53.0119 -53.0044 -53.0043 -52.9988 -52.9987 -52.9957 -52.9955
   -52.9922 -52.9919 -52.9817 -52.9817 -52.9778 -52.9776 -52.9707 -52.9707
   -52.9587 -52.9586 -52.9545 -52.9543 -52.9522 -52.9519 -52.9494 -52.9492
   -52.9472 -52.9466 -52.9458 -52.9455 -52.9444 -52.9442 -52.9433 -52.9429
   -52.9424 -52.9420 -52.9340 -52.9337 -52.9300 -52.9296 -52.9277 -52.9274
   -52.9263 -52.9260 -52.9257 -52.9253 -52.9247 -52.9244 -52.9220 -52.9219
   -52.9136 -52.9134 -52.9103 -52.9103 -52.9081 -52.9080 -52.9026 -52.9025
   -52.8950 -52.8949 -52.8934 -52.8932 -52.8911 -52.8908 -52.8894 -52.8894
   -52.8862 -52.8860 -52.8821 -52.8819 -52.8815 -52.8808 -52.8806 -52.8798
   -52.8784 -52.8782 -52.8769 -52.8768 -52.8727 -52.8725 -52.8716 -52.8712
   -52.8695 -52.8692 -52.8687 -52.8684 -52.8655 -52.8654 -52.8646 -52.8645
   -52.8635 -52.8632 -52.8616 -52.8611 -52.8607 -52.8606 -52.8537 -52.8535
   -52.8452 -52.8450 -52.8430 -52.8429 -52.8419 -52.8414 -52.8364 -52.8362
   -52.8353 -52.8352 -52.8293 -52.8290 -52.8283 -52.8280 -52.8251 -52.8249
   -52.8240 -52.8238 -52.8233 -52.8231 -52.8223 -52.8221 -52.8210 -52.8208
   -52.8174 -52.8171 -52.8130 -52.8128 -52.8079 -52.8077 -52.8055 -52.8052
   -52.8046 -52.8042 -52.8005 -52.8004 -52.7977 -52.7975 -52.7941 -52.7938
   -52.7912 -52.7911 -52.7798 -52.7797 -52.7743 -52.7742 -52.7738 -52.7738
   -52.7626 -52.7625 -52.7615 -52.7613 -52.7591 -52.7588 -52.7573 -52.7571
   -52.7568 -52.7565 -52.7428 -52.7426 -52.7406 -52.7403 -52.7383 -52.7382
   -52.7302 -52.7301 -52.7278 -52.7274 -52.7266 -52.7264 -52.7253 -52.7252
   -52.7217 -52.7214 -52.7178 -52.7176 -52.7159 -52.7158 -52.7130 -52.7130
   -52.7110 -52.7108 -52.7049 -52.7047 -52.7033 -52.7030 -52.7025 -52.7022
   -52.6906 -52.6906 -52.6895 -52.6894 -52.6845 -52.6843 -52.6768 -52.6766
   -52.6737 -52.6737 -52.6685 -52.6684 -52.6647 -52.6643 -52.6634 -52.6632
   -52.6595 -52.6593 -52.6568 -52.6564 -52.6447 -52.6445 -52.6415 -52.6414
   -52.6391 -52.6388 -52.6376 -52.6376 -52.6174 -52.6173 -52.6120 -52.6119
   -52.6082 -52.6081 -52.6070 -52.6070 -52.5981 -52.5980 -52.5865 -52.5863
   -52.5851 -52.5849 -52.5598 -52.5598 -52.5559 -52.5559 -52.5441 -52.5439
   -52.5431 -52.5429 -52.5403 -52.5402 -52.5382 -52.5382 -52.5249 -52.5248
   -52.5234 -52.5233 -52.5213 -52.5212 -52.5192 -52.5191 -52.5092 -52.5091
   -52.4427 -52.4426 -52.3904 -52.3903 -20.6146 -20.6140 -20.4269 -20.4261
   -20.3611 -20.3593 -20.2025 -20.2018 -20.1819 -20.1802 -20.1276 -20.1266
   -20.0310 -20.0300 -19.9854 -19.9852 -19.9673 -19.9654 -19.9076 -19.9057
   -19.8692 -19.8673 -19.8075 -19.8046 -19.7532 -19.7514 -19.7031 -19.7007
   -19.5291 -19.5252 -19.4690 -19.4649 -19.3845 -19.3802 -19.3175 -19.3133
   -19.1697 -19.1664 -19.0197 -19.0159 -18.8760 -18.8714 -18.8360 -18.8309
   -18.7622 -18.7570 -18.6993 -18.6942 -18.3030 -18.2996 -18.1971 -18.1934
   -18.1413 -18.1371 -18.1024 -18.0981 -18.0536 -18.0492 -17.9848 -17.9805
   -17.4327 -17.4307 -17.4124 -17.4098 -17.3410 -17.3393 -17.3166 -17.3151
   -17.2799 -17.2779 -17.2155 -17.2131 -16.5674 -16.5642 -16.5194 -16.5161
   -16.4315 -16.4285 -16.4038 -16.4009 -16.2963 -16.2944 -16.1972 -16.1960
   -16.0608 -16.0548 -16.0099 -16.0039 -15.8742 -15.8685 -15.8569 -15.8512
   -15.7457 -15.7429 -15.6713 -15.6678 -15.5691 -15.5648 -15.5270 -15.5243
   -15.5110 -15.5078 -15.3294 -15.3254 -15.1163 -15.1134 -14.7780 -14.7753
   -11.3498 -11.3495 -11.2261 -11.2249 -10.7191 -10.6960 -10.6448 -10.6231
   -10.5613 -10.5408 -10.5172 -10.4937 -10.3840 -10.3445 -10.2936 -10.2701
   -10.2563 -10.2322 -10.2215 -10.2062 -10.1986 -10.1721 -10.1666 -10.1502
   -10.1424 -10.1286 -10.1133 -10.0758 -10.0600 -10.0476 -10.0135  -9.9860
    -9.9762  -9.9677  -9.9231  -9.9118  -9.8935  -9.8666  -9.8397  -9.8372
    -9.8243  -9.8092  -9.8031  -9.7946  -9.7865  -9.7826  -9.7756  -9.7545
    -9.7450  -9.7394  -9.7212  -9.7084  -9.6783  -9.6307  -9.6115  -9.5956
    -9.5871  -9.5544  -9.5184  -9.4919  -9.4731  -9.4502  -9.4412  -9.4211
    -9.4043  -9.3853  -9.3571  -9.3375  -9.3293  -9.3045  -9.2741  -9.2574
    -9.2233  -9.2015  -9.1794  -9.1733  -9.1383  -9.1196  -9.0223  -9.0130
    -8.9785  -8.9676  -8.9415  -8.9093  -8.8836  -8.8546  -8.8325  -8.8250
    -8.6758  -8.6474  -8.6249  -8.5906  -8.5703  -8.5681  -8.5317  -8.5196
    -8.4987  -8.4868  -8.4637  -8.4474  -8.3908  -8.3626  -8.3354  -8.3190
    -8.2951  -8.2827  -8.2524  -8.2408  -8.2266  -8.2205  -8.2086  -8.1922
    -8.1745  -8.1376  -8.1291  -8.1170  -8.0799  -8.0586  -7.9131  -7.8372
    -7.6991  -7.6399  -7.6082  -7.5402  -7.5174  -7.4850  -7.4489  -7.4147
    -7.4015  -7.3734  -7.3530  -7.3190  -7.2936  -7.2475  -7.2035  -7.1341
    -7.0910  -7.0397  -7.0208  -7.0045  -6.9867  -6.9623  -6.9494  -6.9276
    -6.9088  -6.9012  -6.8822  -6.8490  -6.7992  -6.7862  -6.7485  -6.7034
    -6.6952  -6.6703  -6.6523  -6.6480  -6.6209  -6.6151  -6.6033  -6.5826
    -6.5644  -6.5554  -6.5409  -6.5277  -6.5148  -6.5001  -6.4919  -6.4731
    -6.4665  -6.4518  -6.4456  -6.4362  -6.4273  -6.4164  -6.3855  -6.3741
    -6.3583  -6.3371  -6.3356  -6.2979  -6.2856  -6.2726  -6.2365  -6.2271
    -6.1978  -6.1866  -6.1706  -6.1576  -6.1478  -6.1344  -6.1278  -6.0963
    -6.0737  -6.0429  -6.0310  -6.0110  -5.9797  -5.9568  -5.9384  -5.9192
    -5.8875  -5.8648  -5.7764  -5.7605  -5.7538  -5.7052  -5.6870  -5.6704
    -5.6530  -5.6126  -5.5948  -5.5606  -5.5418  -5.5013  -5.4905  -5.4555
    -5.4480  -5.4337  -5.4226  -5.4127  -5.3576  -5.3409  -5.3209  -5.2677
    -5.1284  -5.0523  -5.0200  -4.9692  -3.7993  -3.7711  -3.7212  -3.7052
    -3.6656  -3.6579  -3.6405  -3.6117  -3.5375  -3.5336  -3.5136  -3.4865
    -3.4722  -3.4599  -3.4407  -3.4314  -3.4190  -3.3962  -3.3719  -3.3348
    -3.3118  -3.2988  -3.2876  -3.2629  -3.2562  -3.2431  -3.2246  -3.2136
    -3.1973  -3.1842  -3.1538  -3.1462  -3.1406  -3.1189  -3.0986  -3.0855
    -3.0683  -3.0526  -3.0140  -3.0064  -2.9620  -2.9354  -2.9299  -2.9127
    -2.8548  -2.8408  -2.7954  -2.7843  -2.7633  -2.7426  -2.7240  -2.7122
    -2.7032  -2.6885  -2.6620  -2.6507  -2.6410  -2.6329  -2.6069  -2.6035
    -2.5744  -2.5556  -2.5314  -2.5191  -2.5014  -2.4733  -2.4662  -2.4541
    -2.4365  -2.4238  -2.4179  -2.3984  -2.3930  -2.3821  -2.3737  -2.3642
    -2.3430  -2.3320  -2.3142  -2.3035  -2.2785  -2.2249  -2.2162  -2.1960
    -2.1732  -2.1503  -2.1320  -2.1157  -2.0987  -2.0724  -2.0332  -2.0204
    -1.9587  -1.9428  -1.9329  -1.9242  -1.8581  -1.8411  -1.7547  -1.7437
    -1.6550  -1.6497  -1.6142  -1.6065  -1.5234  -1.5137  -1.4280  -1.4201
    -0.3140  -0.3075   0.2551   0.2684   0.4515   0.4638   0.5670   0.5776
     0.5990   0.6125   0.6853   0.7020   0.7314   0.7491   0.7944   0.7971
     0.8715   0.8934   0.9254   0.9406   0.9841   0.9948   1.0291   1.0376
     1.0944   1.1030   1.1527   1.1613   1.1786   1.1973   1.2177   1.2241
     1.2412   1.2485   1.2936   1.3071   1.3423   1.3629   1.3788   1.3934
     1.4226   1.4362   1.4656   1.4732   1.4863   1.4967   1.5445   1.5525
     1.6041   1.6179   1.6926   1.7084   1.7317   1.7393   1.7838   1.7968
     1.8184   1.8247   1.8466   1.8618   1.8991   1.9053   1.9222   1.9284
     1.9674   1.9749   1.9993   2.0012

     the Fermi energy is    -4.4020 ev

!    total energy              =  -13419.00370256 Ry
     estimated scf accuracy    <          2.7E-11 Ry
     smearing contrib. (-TS)   =      -0.00023604 Ry
     internal energy E=F+TS    =  -13419.00346652 Ry

     The total energy is F=E-TS. E is the sum of the following terms:
     one-electron contribution =  -64791.87322539 Ry
     hartree contribution      =   32113.51712874 Ry
     xc contribution           =   -2663.42650798 Ry
     ewald contribution        =   21922.77913812 Ry

     convergence has been achieved in  20 iterations

     Forces acting on atoms (cartesian axes, Ry/au):

     atom    1 type  1   force =    -0.00545073    0.00219900    0.00326362
     atom    2 type  1   force =     0.00040101    0.00033561    0.00442903
     atom    3 type  1   force =     0.00803294   -0.00051249   -0.01030960
     atom    4 type  1   force =    -0.00059952   -0.00040946    0.00402346
     atom    5 type  1   force =     0.00204839   -0.00356424   -0.00485490
     atom    6 type  1   force =     0.00021469   -0.00000441    0.00250764
     atom    7 type  1   force =    -0.00641610    0.00271140   -0.00067948
     atom    8 type  1   force =     0.00045582    0.00019517    0.00444299
     atom    9 type  1   force =     0.00429158   -0.00001797   -0.00391661
     atom   10 type  1   force =    -0.00057056   -0.00042830    0.00396344
     atom   11 type  1   force =     0.00021211   -0.00279922   -0.00432065
     atom   12 type  1   force =     0.00031568    0.00006955    0.00244682
     atom   13 type  1   force =    -0.00620356    0.00427533   -0.00016233
     atom   14 type  1   force =     0.00041489    0.00040963    0.00439625
     atom   15 type  1   force =     0.00479073    0.00021710   -0.00489774
     atom   16 type  1   force =    -0.00049966   -0.00016469    0.00403344
     atom   17 type  1   force =     0.00018409   -0.00273312   -0.00388095
     atom   18 type  1   force =    -0.00000808    0.00016908    0.00226217
     atom   19 type  1   force =    -0.00670671    0.00106231    0.00162052
     atom   20 type  1   force =     0.00033990   -0.00006805    0.00435040
     atom   21 type  1   force =     0.00590733   -0.00025349   -0.00618464
     atom   22 type  1   force =    -0.00056917   -0.00026623    0.00397016
     atom   23 type  1   force =    -0.00005744   -0.00224996   -0.00479833
     atom   24 type  1   force =     0.00022137    0.00019363    0.00224001
     atom   25 type  1   force =    -0.00769388    0.00026729   -0.00367724
     atom   26 type  1   force =     0.00065816   -0.00018251    0.00415737
     atom   27 type  1   force =     0.00483679    0.00031674   -0.00399470
     atom   28 type  1   force =    -0.00077832   -0.00040391    0.00370519
     atom   29 type  1   force =     0.00203952   -0.00551439   -0.00623066
     atom   30 type  1   force =     0.00011182    0.00008662    0.00238379
     atom   31 type  1   force =    -0.00500939    0.00229142    0.00159366
     atom   32 type  1   force =     0.00041520    0.00019080    0.00453545
     atom   33 type  1   force =     0.00430946    0.00013732   -0.00487363
     atom   34 type  1   force =    -0.00026218   -0.00048485    0.00377151
     atom   35 type  1   force =    -0.00011648   -0.00400426   -0.00626556
     atom   36 type  1   force =    -0.00014951    0.00006510    0.00257396
     atom   37 type  1   force =    -0.00837359    0.00426360   -0.00018247
     atom   38 type  1   force =     0.00031393    0.00037937    0.00442598
     atom   39 type  1   force =     0.00605962    0.00269694   -0.00697275
     atom   40 type  1   force =    -0.00039043   -0.00017583    0.00388609
     atom   41 type  1   force =    -0.00126012   -0.00255127   -0.00701249
     atom   42 type  1   force =    -0.00008098    0.00005712    0.00162262
     atom   43 type  1   force =    -0.00328900    0.00197273   -0.00089460
     atom   44 type  1   force =     0.00015541   -0.00002142    0.00431587
     atom   45 type  1   force =     0.00388499   -0.00073494   -0.00334333
     atom   46 type  1   force =    -0.00079264   -0.00012631    0.00379576
     atom   47 type  1   force =     0.00006726   -0.00187673   -0.00377024
     atom   48 type  1   force =     0.00022717    0.00030301    0.00219376
     atom   49 type  1   force =    -0.00604224    0.00713711    0.00428462
     atom   50 type  1   force =     0.00037480    0.00013227    0.00444645
     atom   51 type  1   force =     0.00905686    0.00272613   -0.01106872
     atom   52 type  1   force =    -0.00024553   -0.00017236    0.00346951
     atom   53 type  1   force =     0.00094735   -0.00527730   -0.00729726
     atom   54 type  1   force =     0.00011185    0.00000976    0.00225990
     atom   55 type  2   force =     0.00016512    0.00012656    0.00421744

     Total force =     0.019448     Total SCF correction =     0.000016


     Computing stress (Cartesian axis) and pressure

          total   stress  (Ry/bohr**3)                   (kbar)     P=     -338.01
  -0.00231357   0.00000659  -0.00000407         -340.34        0.97       -0.60
   0.00000659  -0.00229015   0.00000359            0.97     -336.89        0.53
  -0.00000407   0.00000359  -0.00228946           -0.60        0.53     -336.79


     Writing all to output data dir ./tmp/ase_scf.save/ :
     XML data file, charge density, pseudopotentials, collected wavefunctions
 
     init_run     :    480.26s CPU    502.28s WALL (       1 calls)
     electrons    :  33469.46s CPU  34385.94s WALL (       1 calls)
     forces       :    335.27s CPU    338.59s WALL (       1 calls)
     stress       :   1108.57s CPU   1114.09s WALL (       1 calls)

     Called by init_run:
     wfcinit      :    479.45s CPU    501.36s WALL (       1 calls)
     potinit      :      0.19s CPU      0.22s WALL (       1 calls)
     hinit0       :      0.07s CPU      0.11s WALL (       1 calls)

     Called by electrons:
     c_bands      :  30630.72s CPU  31421.98s WALL (      21 calls)
     sum_band     :   2829.74s CPU   2951.32s WALL (      21 calls)
     v_of_rho     :      2.88s CPU      3.15s WALL (      21 calls)
     mix_rho      :      5.60s CPU      8.69s WALL (      21 calls)

     Called by c_bands:
     init_us_2    :    173.88s CPU    174.39s WALL (     450 calls)
     cegterg      :  29265.74s CPU  29505.13s WALL (     210 calls)

     Called by *egterg:
     cdiaghg      :    673.56s CPU    695.49s WALL (     909 calls)
     h_psi        :  16618.96s CPU  16732.11s WALL (     929 calls)
     g_psi        :     44.14s CPU     44.16s WALL (     709 calls)

     Called by h_psi:
     h_psi:calbec :   3757.79s CPU   3758.83s WALL (     929 calls)
     vloc_psi     :   8932.88s CPU   8948.22s WALL (     929 calls)
                                        0.00s GPU  (     929 calls)
     add_vuspsi   :   3835.22s CPU   3852.43s WALL (     929 calls)

     General routines
     calbec       :   5122.86s CPU   5123.98s WALL (    1099 calls)
     fft          :      1.95s CPU      2.22s WALL (     361 calls)
     ffts         :      0.41s CPU      0.48s WALL (      84 calls)
     fftw         :   7209.89s CPU   7224.43s WALL ( 2423248 calls)
     davcio       :      1.13s CPU    689.15s WALL (     976 calls)
 
     Parallel routines
 
     PWSCF        :      9h50m CPU     10h 6m WALL

 
   This run was terminated on:   9:39:44   1Jul2025            

=------------------------------------------------------------------------------=
   JOB DONE.
=------------------------------------------------------------------------------=
