

 Parallel Execution: Process Information
 ==============================================================================
 Rank   Node Name                              NodeID   MyNodeRank  NodeMaster
    0   ubuntu-kch                                0          0          0
    1   ubuntu-kch                                0          1         -1
    2   ubuntu-kch                                0          2         -1
    3   ubuntu-kch                                0          3         -1
 ==============================================================================


May use up to 7570MB of RAM as shared memory on node 0

 *******************************************************************************
 *                                                                             *
 *  --------------------------------                                           *
 *   Amsterdam Modeling Suite (AMS)              2020.202                      *
 *  --------------------------------                                           *
 *                                               r90167 2020-12-05             *
 *                                                                             *
 *                                                                             *
 *                              =================                              *
 *                              |               |                              *
 *                              |     A M S     |                              *
 *                              |               |                              *
 *                              =================                              *
 *                                                                             *
 *                                                                             *
 *   Online information and documentation:  https://www.scm.com/support/       *
 *   E-mail:  support@scm.com   info@scm.com                                   *
 *                                                                             *
 *   Scientific publications using AMS results must be properly referenced     *
 *   See the User Manuals (or the web site) for recommended citations          *
 *   The terms and conditions of the End User License Agreement apply to       *
 *   the use of AMS, https://www.scm.com/license-terms/                        *
 *                                                                             *
 **********************  x86_64_linux_intel / intelmpi  ************************
 
 Licensed to: Dr. Miroslav Ilias / Matej Bel University, Department Chemistry, Fac. Natural Sciences / Banska Bystrica / SLOVAKIA
 SCM User ID: u17848
  
 AMS 2020.202  RunTime: Mar08-2021 19:46:14  Nodes: 1  Procs: 4

 AMS jobname: ams
 AMS jobid  : 363658674

 Start   directory: /home/milias/work/projects/open-collection/theoretical_chemistry/projects/nmr_diplomovky/reference_compounds/phosphoric_acid/ams/b3lyp_tz2p_good/cosmo-toluene/tmp.milias.1589243.0.noindex/
 Results directory: /home/milias/work/projects/open-collection/theoretical_chemistry/projects/nmr_diplomovky/reference_compounds/phosphoric_acid/ams/b3lyp_tz2p_good/cosmo-toluene/phosporic_acid.geopt_freq_nmrshield_b3lyp_tz2p_good_cosmo-toluene.results/
 Scratch directory: /tmp/amstmp_ams_kid0.363658674/


 Communication costs MPI_COMM_WORLD:      0.291 usec per message,   0.0042 usec per 8-byte item
 Communication costs for intra-node:      0.399 usec per message,   0.0041 usec per 8-byte item

 RNG seed: -1638205678 -109946569 7751165 979575476 -1504830645 1787899534 -89213986 1825615981



                        ********************************************************************
                        *  ADF 2020.202  RunTime: Mar08-2021 19:46:15  Nodes: 1  Procs: 4  *
                        ********************************************************************
  
       ***************************
       *  GEOMETRY OPTIMIZATION  *
       ***************************

Optimization Method                    Quasi Newton
Optimization Coordinates               Delocalized Coordinates
Optimize lattice                       F
 
 ------------------------------------------------------
 Convergence criteria (Hartree,Angstrom)
 ------------------------------------------------------
 Maximum gradient               0.001000000000
 Maximum rms gradient           0.000666666667
 Maximum step allowed           0.001000000000
 Maximum rms step allowed       0.000666666667
 Maximum energy change allowe   0.000080000000
 Maximum stress energy allowe   0.000500000000
 
Initial model Hessian                  Automatic Hessian
 
------------------------------------
Quasi-Newton Optimizer Parameters
------------------------------------
Hessian Update Method                  BFGS
Maximum number of steps                  250
First GDIIS cycle                          0
Maximum GDIIS vectors                      0
Trust radius (bohr)                        0.200000
Trust radius varies                        T
Constraints converged at all steps         T
Use projector                              T
 
 Rigid motions settings for: old optimizer
 Atomic rotations (x,y,z):     T T T
 Atomic translations (x,y,z):  T T T
 Tolerance:                   1.000000000000000E-006
 
--------
Geometry
--------
Atoms
  Index Symbol   x (angstrom)   y (angstrom)   z (angstrom)
      1      P    -0.00000000     0.00000000    -0.15405099       adf.R=1.850
      2      O    -1.37885511    -0.33678031     0.53791392       adf.R=1.517
      3      O     0.98108785    -1.02573340     0.53791392       adf.R=1.517
      4      O     0.39776725     1.36251370     0.53791392       adf.R=1.517
      5      O    -0.00000000     0.00000000    -1.61795531       adf.R=1.517
      6      H    -2.13683725     0.00814492     0.05275485       adf.R=1.350
      7      H     1.06136491    -1.85462780     0.05275485       adf.R=1.350
      8      H     1.07547233     1.84648288     0.05275485       adf.R=1.350
 
Total System Charge             0.00000
Bonding info available!
 
 
----------------
ADF Engine Input
----------------
 
 Basis
 Type TZ2P
 Core None
 End
 Save TAPE10
 XC
 Hybrid B3LYP
 End
 Relativity
 Level None
 End
 Solvation
 Surf Delley
 Solv name=Toluene cav0=0.0 cav1=0.0067639
 Charged method=CONJ
 C-Mat POT
 SCF VAR ALL
 CSMRSP
 End
 NumericalQuality Good
 

 Title: *** (NO TITLE) ***

Number of symmetry operators: 3
Schoenflies symbol:           C(3)
 Using automatic Hessian for delocalized coordinates.
 *** GOStep1 ***

 SOLVATION
-------------------------------------------

  The Delley construction of COSMO surface surface is calculated

       Division Level for Surface Triangles (NDIV)                  3
       Final Division Level for Triangles (NFDIV)                   1
       Radius of the Solvent (RSOL)                           3.48000 angstr
  Dielectric Constant (EPSL)                                  2.38000

       COSMO equation is solved iteratively-               conjugate-gradient

       Maximun of Iterations for Charges (NCIX)                  1000
       Criterion for Charge convergence (CCNV)                1.0E-08

  COSMO charges included variationally in SCF

       COSMO included at every SCF cycle

  Geometry-dependent empirical factor                         0.00000

  C-Matrix calculated in cspmtx

  In cspmtx, C-Matrix calculated using fitted potential

-------------------------------------------



 -------------------------------------------
  COSMO surface
  Area             =          353.607
  Volume           =          532.292
  Number of Points =          938
 -------------------------------------------



 ======================
 RI Hartree-Fock Scheme
 ======================
  
 Fit Set Quality     : GOOD
 Integration Quality : GOOD
 Threshold Quality   : GOOD
 Response Quality    : DEFAULT
 Is Range Separated  :  F
 
 RIHartreeFock Dependency: number of modified vectors:           3
 cosmo_calcen: 0.5 (esolb+esolc) (Hartrees) =   -0.013990

 Solvation energy (screening term,uncorrected) =     -8.778995 kcal/mol

 Solvation energy (dispersion and cavitation terms) =      0.388350 kcal/mol
 Solvation Energy Contributions (Hartrees)
          esola   esolb+esolc
     0.01399022   -0.02798043
 esol last cycle   -0.01399022
  
 Hartree-Fock exchange energy:   -56.8358630972766     
 cosmo_calcen: 0.5 (esolb+esolc) (Hartrees) =   -0.013990

 Solvation energy (screening term,uncorrected) =     -8.778994 kcal/mol

 Solvation energy (dispersion and cavitation terms) =      0.388350 kcal/mol
 Solvation Energy Contributions (Hartrees)
          esola   esolb+esolc
     0.01399022   -0.02798043
 esol last cycle   -0.01399022
  pauli hf:                              0.917898152973722         24.9773           575.99          2409.94
  elstat hf:                            -0.663147480500122        -18.0452          -416.13         -1741.09

 Energy gradients wrt nuclear displacements
 ==========================================

     Atom      Cartesian (a.u./angstrom)
                 X         Y         Z
 ----------------------------------------
     1 P    -0.000091 -0.000083  0.000826
     2 O     0.007212  0.003711 -0.006080
     3 O    -0.006755  0.004391 -0.006119
     4 O    -0.000337 -0.007974 -0.006114
     5 O    -0.000015 -0.000014  0.013492
     6 H     0.005831 -0.001118  0.001315
     7 H    -0.001931  0.005609  0.001330
     8 H    -0.003915 -0.004522  0.001351
 ----------------------------------------
 Mulliken charges used for AMS results%charges...
 
----------------------------------------------------------------------
Geometry Convergence after Step   1       (Hartree/Angstrom,Angstrom)
----------------------------------------------------------------------
current energy                               -2.08429405 Hartree
energy change                      -2.08429405     0.00008000    F
constrained gradient max            0.01349183     0.00100000    F
constrained gradient rms            0.00500156     0.00066667    F
gradient max                        0.01349183
gradient rms                        0.00500156
cart. step max                      0.01368580     0.00100000    F
cart. step rms                      0.00588016     0.00066667    F
 
 
--------
Geometry
--------
Atoms
  Index Symbol   x (angstrom)   y (angstrom)   z (angstrom)
      1      P    -0.00000000    -0.00000000    -0.15607577       adf.R=1.850
      2      O    -1.38590387    -0.33700116     0.53759732       adf.R=1.517
      3      O     0.98480350    -1.03172738     0.53759732       adf.R=1.517
      4      O     0.40110037     1.36872854     0.53759732       adf.R=1.517
      5      O    -0.00000000    -0.00000000    -1.62627783       adf.R=1.517
      6      H    -2.15052304     0.00722867     0.05652056       adf.R=1.350
      7      H     1.06900131    -1.86602192     0.05652056       adf.R=1.350
      8      H     1.08152173     1.85879325     0.05652056       adf.R=1.350
 
Total System Charge             0.00000
Bonding info available!
 
 *** GOStep2 ***

 SOLVATION
-------------------------------------------

  The Delley construction of COSMO surface surface is calculated

       Division Level for Surface Triangles (NDIV)                  3
       Final Division Level for Triangles (NFDIV)                   1
       Radius of the Solvent (RSOL)                           3.48000 angstr
  Dielectric Constant (EPSL)                                  2.38000

       COSMO equation is solved iteratively-               conjugate-gradient

       Maximun of Iterations for Charges (NCIX)                  1000
       Criterion for Charge convergence (CCNV)                1.0E-08

  COSMO charges included variationally in SCF

       COSMO included at every SCF cycle

  Geometry-dependent empirical factor                         0.00000

  C-Matrix calculated in cspmtx

  In cspmtx, C-Matrix calculated using fitted potential

-------------------------------------------



 -------------------------------------------
  COSMO surface
  Area             =          354.924
  Volume           =          534.496
  Number of Points =          943
 -------------------------------------------



 ======================
 RI Hartree-Fock Scheme
 ======================
  
 Fit Set Quality     : GOOD
 Integration Quality : GOOD
 Threshold Quality   : GOOD
 Response Quality    : DEFAULT
 Is Range Separated  :  F
 
 RIHartreeFock Dependency: number of modified vectors:           3
 cosmo_calcen: 0.5 (esolb+esolc) (Hartrees) =   -0.014100

 Solvation energy (screening term,uncorrected) =     -8.848034 kcal/mol

 Solvation energy (dispersion and cavitation terms) =      0.389796 kcal/mol
 Solvation Energy Contributions (Hartrees)
          esola   esolb+esolc
     0.01410024   -0.02820048
 esol last cycle   -0.01410024
  
 Hartree-Fock exchange energy:   -56.8118397525005     
 cosmo_calcen: 0.5 (esolb+esolc) (Hartrees) =   -0.014100

 Solvation energy (screening term,uncorrected) =     -8.848034 kcal/mol

 Solvation energy (dispersion and cavitation terms) =      0.389796 kcal/mol
 Solvation Energy Contributions (Hartrees)
          esola   esolb+esolc
     0.01410024   -0.02820048
 esol last cycle   -0.01410024
  pauli hf:                              0.919460454965350         25.0198           576.97          2414.04
  elstat hf:                            -0.654405493922827        -17.8073          -410.65         -1718.14

 Energy gradients wrt nuclear displacements
 ==========================================

     Atom      Cartesian (a.u./angstrom)
                 X         Y         Z
 ----------------------------------------
     1 P    -0.000080 -0.000109  0.006960
     2 O     0.001469  0.000400 -0.001409
     3 O    -0.001004  0.001064 -0.001438
     4 O    -0.000355 -0.001330 -0.001405
     5 O    -0.000013 -0.000013 -0.002032
     6 H     0.000012  0.000140 -0.000237
     7 H    -0.000114 -0.000047 -0.000230
     8 H     0.000086 -0.000104 -0.000208
 ----------------------------------------
 Mulliken charges used for AMS results%charges...

 dE(predicted):    -0.24200E-03, dE(actual):    -0.25473E-03, Trust radius:    0.200000, all in a.u.
 
----------------------------------------------------------------------
Geometry Convergence after Step   2       (Hartree/Angstrom,Angstrom)
----------------------------------------------------------------------
current energy                               -2.08454878 Hartree
energy change                      -0.00025473     0.00008000    F
constrained gradient max            0.00695986     0.00100000    F
constrained gradient rms            0.00164692     0.00066667    F
gradient max                        0.00695986
gradient rms                        0.00164692
cart. step max                      0.00423503     0.00100000    F
cart. step rms                      0.00160745     0.00066667    F
 
 
--------
Geometry
--------
Atoms
  Index Symbol   x (angstrom)   y (angstrom)   z (angstrom)
      1      P    -0.00000000     0.00000000    -0.16031080       adf.R=1.850
      2      O    -1.38542051    -0.33735519     0.53727270       adf.R=1.517
      3      O     0.98486842    -1.03113176     0.53727270       adf.R=1.517
      4      O     0.40055208     1.36848695     0.53727270       adf.R=1.517
      5      O    -0.00000000     0.00000000    -1.62975443       adf.R=1.517
      6      H    -2.15183548     0.00753698     0.05941571       adf.R=1.350
      7      H     1.06939052    -1.86731268     0.05941571       adf.R=1.350
      8      H     1.08244495     1.85977570     0.05941571       adf.R=1.350
 
Total System Charge             0.00000
Bonding info available!
 
 *** GOStep3 ***

 SOLVATION
-------------------------------------------

  The Delley construction of COSMO surface surface is calculated

       Division Level for Surface Triangles (NDIV)                  3
       Final Division Level for Triangles (NFDIV)                   1
       Radius of the Solvent (RSOL)                           3.48000 angstr
  Dielectric Constant (EPSL)                                  2.38000

       COSMO equation is solved iteratively-               conjugate-gradient

       Maximun of Iterations for Charges (NCIX)                  1000
       Criterion for Charge convergence (CCNV)                1.0E-08

  COSMO charges included variationally in SCF

       COSMO included at every SCF cycle

  Geometry-dependent empirical factor                         0.00000

  C-Matrix calculated in cspmtx

  In cspmtx, C-Matrix calculated using fitted potential

-------------------------------------------



 -------------------------------------------
  COSMO surface
  Area             =          355.059
  Volume           =          534.702
  Number of Points =          942
 -------------------------------------------



 ======================
 RI Hartree-Fock Scheme
 ======================
  
 Fit Set Quality     : GOOD
 Integration Quality : GOOD
 Threshold Quality   : GOOD
 Response Quality    : DEFAULT
 Is Range Separated  :  F
 
 RIHartreeFock Dependency: number of modified vectors:           3
 cosmo_calcen: 0.5 (esolb+esolc) (Hartrees) =   -0.014078

 Solvation energy (screening term,uncorrected) =     -8.833988 kcal/mol

 Solvation energy (dispersion and cavitation terms) =      0.389943 kcal/mol
 Solvation Energy Contributions (Hartrees)
          esola   esolb+esolc
     0.01407785   -0.02815571
 esol last cycle   -0.01407785
  
 Hartree-Fock exchange energy:   -56.8097467571359     
 cosmo_calcen: 0.5 (esolb+esolc) (Hartrees) =   -0.014078

 Solvation energy (screening term,uncorrected) =     -8.833988 kcal/mol

 Solvation energy (dispersion and cavitation terms) =      0.389943 kcal/mol
 Solvation Energy Contributions (Hartrees)
          esola   esolb+esolc
     0.01407785   -0.02815571
 esol last cycle   -0.01407785
  pauli hf:                              0.919829036169515         25.0298           577.20          2415.01
  elstat hf:                            -0.653534071524806        -17.7836          -410.10         -1715.85

 Energy gradients wrt nuclear displacements
 ==========================================

     Atom      Cartesian (a.u./angstrom)
                 X         Y         Z
 ----------------------------------------
     1 P    -0.000079 -0.000100  0.001772
     2 O     0.000539  0.000174 -0.000066
     3 O    -0.000340  0.000360 -0.000096
     4 O    -0.000087 -0.000410 -0.000057
     5 O    -0.000013 -0.000014 -0.001022
     6 H    -0.000177  0.000141 -0.000190
     7 H    -0.000023 -0.000208 -0.000182
     8 H     0.000180  0.000058 -0.000158
 ----------------------------------------
 Mulliken charges used for AMS results%charges...

 dE(predicted):    -0.10662E-04, dE(actual):    -0.10409E-04, Trust radius:    0.200000, all in a.u.
 
----------------------------------------------------------------------
Geometry Convergence after Step   3       (Hartree/Angstrom,Angstrom)
----------------------------------------------------------------------
current energy                               -2.08455919 Hartree
energy change                      -0.00001041     0.00008000    T
constrained gradient max            0.00177231     0.00100000    F
constrained gradient rms            0.00046145     0.00066667    T
gradient max                        0.00177231
gradient rms                        0.00046145
cart. step max                      0.00116566     0.00100000    F
cart. step rms                      0.00055765     0.00066667    T
 
 
--------
Geometry
--------
Atoms
  Index Symbol   x (angstrom)   y (angstrom)   z (angstrom)
      1      P    -0.00000000     0.00000000    -0.16147645       adf.R=1.850
      2      O    -1.38534488    -0.33798054     0.53682419       adf.R=1.517
      3      O     0.98537217    -1.03075359     0.53682419       adf.R=1.517
      4      O     0.39997270     1.36873413     0.53682419       adf.R=1.517
      5      O    -0.00000000     0.00000000    -1.63036448       adf.R=1.517
      6      H    -2.15207609     0.00795230     0.06045613       adf.R=1.350
      7      H     1.06915115    -1.86772871     0.06045613       adf.R=1.350
      8      H     1.08292494     1.85977642     0.06045613       adf.R=1.350
 
Total System Charge             0.00000
Bonding info available!
 
 *** GOStep4 ***

 SOLVATION
-------------------------------------------

  The Delley construction of COSMO surface surface is calculated

       Division Level for Surface Triangles (NDIV)                  3
       Final Division Level for Triangles (NFDIV)                   1
       Radius of the Solvent (RSOL)                           3.48000 angstr
  Dielectric Constant (EPSL)                                  2.38000

       COSMO equation is solved iteratively-               conjugate-gradient

       Maximun of Iterations for Charges (NCIX)                  1000
       Criterion for Charge convergence (CCNV)                1.0E-08

  COSMO charges included variationally in SCF

       COSMO included at every SCF cycle

  Geometry-dependent empirical factor                         0.00000

  C-Matrix calculated in cspmtx

  In cspmtx, C-Matrix calculated using fitted potential

-------------------------------------------



 -------------------------------------------
  COSMO surface
  Area             =          355.081
  Volume           =          534.737
  Number of Points =          943
 -------------------------------------------



 ======================
 RI Hartree-Fock Scheme
 ======================
  
 Fit Set Quality     : GOOD
 Integration Quality : GOOD
 Threshold Quality   : GOOD
 Response Quality    : DEFAULT
 Is Range Separated  :  F
 
 RIHartreeFock Dependency: number of modified vectors:           3
 cosmo_calcen: 0.5 (esolb+esolc) (Hartrees) =   -0.014070

 Solvation energy (screening term,uncorrected) =     -8.828817 kcal/mol

 Solvation energy (dispersion and cavitation terms) =      0.389968 kcal/mol
 Solvation Energy Contributions (Hartrees)
          esola   esolb+esolc
     0.01406961   -0.02813923
 esol last cycle   -0.01406961
  
 Hartree-Fock exchange energy:   -56.8096644307483     
 cosmo_calcen: 0.5 (esolb+esolc) (Hartrees) =   -0.014070

 Solvation energy (screening term,uncorrected) =     -8.828817 kcal/mol

 Solvation energy (dispersion and cavitation terms) =      0.389968 kcal/mol
 Solvation Energy Contributions (Hartrees)
          esola   esolb+esolc
     0.01406961   -0.02813923
 esol last cycle   -0.01406961
  pauli hf:                              0.919924191113951         25.0324           577.26          2415.26
  elstat hf:                            -0.653436229430513        -17.7809          -410.04         -1715.60

 Energy gradients wrt nuclear displacements
 ==========================================

     Atom      Cartesian (a.u./angstrom)
                 X         Y         Z
 ----------------------------------------
     1 P    -0.000079 -0.000098 -0.000185
     2 O     0.000009  0.000158  0.000074
     3 O    -0.000059 -0.000093  0.000042
     4 O     0.000162  0.000052  0.000080
     5 O    -0.000013 -0.000015  0.000098
     6 H    -0.000040  0.000069 -0.000051
     7 H    -0.000029 -0.000053 -0.000043
     8 H     0.000049 -0.000021 -0.000014
 ----------------------------------------
 Mulliken charges used for AMS results%charges...
 
---------------------------------------------------------
Geometry Convergence after Step   4       ** CONVERGED **
---------------------------------------------------------
current energy                               -2.08455916 Hartree
energy change                       0.00000003     0.00008000    T
constrained gradient max            0.00018518     0.00100000    T
constrained gradient rms            0.00005893     0.00066667    T
gradient max                        0.00018518
gradient rms                        0.00005893
cart. step max                      0.00055363     0.00100000    T
cart. step rms                      0.00034627     0.00066667    T
 
Geometry optimization converged

Optimized geometry:
 
--------
Geometry
--------
Atoms
  Index Symbol   x (angstrom)   y (angstrom)   z (angstrom)
      1      P    -0.00000000     0.00000000    -0.16147645       adf.R=1.850
      2      O    -1.38534488    -0.33798054     0.53682419       adf.R=1.517
      3      O     0.98537217    -1.03075359     0.53682419       adf.R=1.517
      4      O     0.39997270     1.36873413     0.53682419       adf.R=1.517
      5      O    -0.00000000     0.00000000    -1.63036448       adf.R=1.517
      6      H    -2.15207609     0.00795230     0.06045613       adf.R=1.350
      7      H     1.06915115    -1.86772871     0.06045613       adf.R=1.350
      8      H     1.08292494     1.85977642     0.06045613       adf.R=1.350
 
Total System Charge             0.00000
Bonding info available!
 
Performing a single point calculation on the final geometry ...

 *** adf ***



 ===========================
 A T T A C H E D   F I L E S
 ===========================
  
 Restart/tmp/amstmp_ams_kid0.363658674/GOStep4.rkf*** GOStep4 ***



 ===============================
 M O D E L   P A R A M E T E R S
 ===============================
  
 DENSITY FUNCTIONAL POTENTIAL (scf)
    Hybrid:                            B3LYP                                   == Not Default ==

 SPIN  (restricted / unrestr.)
    Molecule:                          Restricted                               
    Fragments:                         Restricted                               

 OTHER ASPECTS
    Relativistic Corrections:          ---                                     == Not Default ==

    Nuclear Charge Density Model:      Point Charge Nuclei                      
    Core Treatment:                    Frozen Orbital(s)                        

    Hyperfine or Zeeman Interaction:   ---                                      

 SOLVATION
-------------------------------------------

  The Delley construction of COSMO surface surface is calculated

       Division Level for Surface Triangles (NDIV)                  3
       Final Division Level for Triangles (NFDIV)                   1
       Radius of the Solvent (RSOL)                           3.48000 angstr
  Dielectric Constant (EPSL)                                  2.38000

       COSMO equation is solved iteratively-               conjugate-gradient

       Maximun of Iterations for Charges (NCIX)                  1000
       Criterion for Charge convergence (CCNV)                1.0E-08

  COSMO charges included variationally in SCF

       COSMO included at every SCF cycle

  Geometry-dependent empirical factor                         0.00000

  C-Matrix calculated in cspmtx

  In cspmtx, C-Matrix calculated using fitted potential

-------------------------------------------




 ===============
 G E O M E T R Y  ***  3D  Molecule  ***
 ===============
  

 ATOMS
 =====                            X Y Z                    CHARGE                     RADIUS
                                (Angstrom)             Nucl     +Core       At.Mass (Angstrom)
                       --------------------------    ----------------       ------- ----------
    1  P              -0.0000    0.0000   -0.1615     15.00     15.00       30.9738    1.8500
    2  O              -1.3853   -0.3380    0.5368      8.00      8.00       15.9949    1.5170
    3  O               0.9854   -1.0308    0.5368      8.00      8.00       15.9949    1.5170
    4  O               0.4000    1.3687    0.5368      8.00      8.00       15.9949    1.5170
    5  O              -0.0000    0.0000   -1.6304      8.00      8.00       15.9949    1.5170
    6  H              -2.1521    0.0080    0.0605      1.00      1.00        1.0078    1.3500
    7  H               1.0692   -1.8677    0.0605      1.00      1.00        1.0078    1.3500
    8  H               1.0829    1.8598    0.0605      1.00      1.00        1.0078    1.3500


 FRAGMENTS
 =========                                     Atoms in this Fragment     Cart. coord.s (Angstrom)
                                               -------------------------------------------------------
    1  P                                                 1  P           -0.0000    0.0000   -0.1615
    2  O                                                 2  O           -1.3853   -0.3380    0.5368
    3  O                                                 3  O            0.9854   -1.0308    0.5368
    4  O                                                 4  O            0.4000    1.3687    0.5368
    5  O                                                 5  O           -0.0000    0.0000   -1.6304
    6  H                                                 6  H           -2.1521    0.0080    0.0605
    7  H                                                 7  H            1.0692   -1.8677    0.0605
    8  H                                                 8  H            1.0829    1.8598    0.0605


 Interatomic Distance Matrix (Angstrom)
 --------------------------------------

   1)     0.000
   2)     1.588   0.000
   3)     1.588   2.470   0.000
   4)     1.588   2.470   2.470   0.000
   5)     1.469   2.594   2.594   2.594   0.000
   6)     2.164   0.967   3.339   2.931   2.737   0.000
   7)     2.164   2.931   0.967   3.339   2.737   3.728   0.000
   8)     2.164   3.339   2.931   0.967   2.737   3.728   3.728   0.000

 Min. Distance =    0.9667
 Max. Distance =    3.7275



 =====================================
 S Y M M E T R Y ,   E L E C T R O N S
 =====================================
  
 Symmetry: NOSYM

 Irreducible Representations, including subspecies
 -------------------------------------------------
 A

 Symmetry is NOT used when fitting density


 Configuration of Valence Electrons
 ==================================
 ( determined in the SCF procedure )

 Total:   50

 Net Charge: 0 (Nuclei minus Electrons)

 Aufbau principle for MO occupations will be applied through SCF cycle no.     150
 Thereafter, the program will assign electrons to MOs that are spatially
 similar to the occupied MOs in a "reference" cycle ("KeepOrbitals").
 The reference cycle is always the PREVIOUS cycle: it will evolve with
 the SCF procedure.
1
 ***************************************************************************************************



                                      ****************************************
                                      *  B U I L D : (Fragments, Functions)  *
                                      ****************************************
  



 =======
 S F O s  ***  (Symmetrized Fragment Orbitals)  ***
 =======
  
 SFOs are linear combinations of (valence) Fragment Orbitals (FOs), such that the SFOs transform as the
 irreducible representations of the (molecular) symmetry group. Each SFO is therefore characterized by
 an irrep of the molecule and by a few (or only one) generating FOs.
 The SFOs constitute a symmetry-adapted basis for the Fock matrix. The MO eigenvector coefficients in
 this basis provide a direct interpretation of the MOs in terms of Frontier Orbital Theory.

 The SFOs are combined with auxiliary Core Functions (CFs) to ensure orthogonalization on the (frozen)
 Core Orbitals (COs). The Core-orthogonalized SFOs (CSFOs) constitute the true Fock basis.

 The FOs, and hence also the (C)SFOs are combinations of the elementary basis functions (BAS). The basis
 functions that participate in the description of the SFOs depend on the irrep. The indices of the
 involved functions are printed below for each irrep.
 (The complete list of primitive basis functions is printed in another section)

 Total nr. of (C)SFOs (summation over all irreps) :   171

 NOTE: a (C)SFO that is defined as a combination of more than one FO is usually NOT normalized.



                                       === A ===
 Nr. of SFOs :  171
 Cartesian basis functions that participate in this irrep (total number =   194) :
      1     2     3     4    11    12    13     5     8    14
     17    20     6     9    15    18    21     7    10    16
     19    22    23    24    25    26    27    28    29    30
     31    32    33    34    35    36    37    38    39    40
     41    42    43    44    47    50    45    48    51    46
     49    52    53    54    55    56    57    58    59    60
     61    62    63    64    65    66    67    68    69    70
     71    72    73    74    77    80    75    78    81    76
     79    82    83    84    85    86    87    88    89    90
     91    92    93    94    95    96    97    98    99   100
    101   102   103   104   107   110   105   108   111   106
    109   112   113   114   115   116   117   118   119   120
    121   122   123   124   125   126   127   128   129   130
    131   132   133   134   137   140   135   138   141   136
    139   142   143   144   145   146   147   148   149   150
    151   152   153   154   155   156   157   158   159   160
    161   162   163   164   165   166   167   168   169   170
    171   172   173   174   175   176   177   178   179   180
    181   182   183   184   185   186   187   188   189   190
    191   192   193   194

    SFO  (index         Fragment          Generating    Expansion in Fragment Orbitals
  indx  incl.CFs)   Occup   Orb.Energy   FragmentType  Coeff.   Orbital     on Fragment
 --------------------------------------------------------------------------------------
     1       1      2.000     -77.122 au  P             1.00      1 S               1
                        (   -2098.594 eV)
     2       2      2.000      -6.605 au  P             1.00      2 S               1
                        (    -179.735 eV)
     3       3      2.000      -0.561 au  P             1.00      3 S               1
                        (     -15.274 eV)
     4       4       --         0.131 au  P             1.00      4 S               1
                        (       3.576 eV)
     5       5       --         1.368 au  P             1.00      5 S               1
                        (      37.216 eV)
     6       6       --         9.496 au  P             1.00      6 S               1
                        (     258.396 eV)
     7       7       --       165.054 au  P             1.00      7 S               1
                        (    4491.348 eV)
     8       8      2.000      -4.762 au  P             1.00      1 P:x             1
                        (    -129.571 eV)
     9       9      1.000      -0.204 au  P             1.00      2 P:x             1
                        (      -5.555 eV)
    10      10       --         0.100 au  P             1.00      3 P:x             1
                        (       2.712 eV)
    11      11       --         0.905 au  P             1.00      4 P:x             1
                        (      24.616 eV)
    12      12       --        10.491 au  P             1.00      5 P:x             1
                        (     285.464 eV)
    13      13      2.000      -4.762 au  P             1.00      1 P:y             1
                        (    -129.571 eV)
    14      14      1.000      -0.204 au  P             1.00      2 P:y             1
                        (      -5.555 eV)
    15      15       --         0.100 au  P             1.00      3 P:y             1
                        (       2.712 eV)
    16      16       --         0.905 au  P             1.00      4 P:y             1
                        (      24.616 eV)
    17      17       --        10.491 au  P             1.00      5 P:y             1
                        (     285.464 eV)
    18      18      2.000      -4.762 au  P             1.00      1 P:z             1
                        (    -129.571 eV)
    19      19      1.000      -0.204 au  P             1.00      2 P:z             1
                        (      -5.555 eV)
    20      20       --         0.100 au  P             1.00      3 P:z             1
                        (       2.712 eV)
    21      21       --         0.905 au  P             1.00      4 P:z             1
                        (      24.616 eV)
    22      22       --        10.491 au  P             1.00      5 P:z             1
                        (     285.464 eV)
    23      23       --         0.428 au  P             1.00      1 D:z2            1
                        (      11.653 eV)
    24      24       --         0.428 au  P             1.00      1 D:x2-y2         1
                        (      11.653 eV)
    25      25       --         0.428 au  P             1.00      1 D:xy            1
                        (      11.653 eV)
    26      26       --         0.428 au  P             1.00      1 D:xz            1
                        (      11.653 eV)
    27      27       --         0.428 au  P             1.00      1 D:yz            1
                        (      11.653 eV)
    28      28       --         1.204 au  P             1.00      1 F:z3            1
                        (      32.762 eV)
    29      29       --         1.204 au  P             1.00      1 F:z             1
                        (      32.762 eV)
    30      30       --         1.204 au  P             1.00      1 F:xyz           1
                        (      32.762 eV)
    31      31       --         1.204 au  P             1.00      1 F:z2x           1
                        (      32.762 eV)
    32      32       --         1.204 au  P             1.00      1 F:z2y           1
                        (      32.762 eV)
    33      33       --         1.204 au  P             1.00      1 F:x             1
                        (      32.762 eV)
    34      34       --         1.204 au  P             1.00      1 F:y             1
                        (      32.762 eV)
    35      35      2.000     -19.301 au  O             1.00      1 S               2
                        (    -525.210 eV)
    36      36      2.000      -0.971 au  O             1.00      2 S               2
                        (     -26.409 eV)
    37      37       --         0.840 au  O             1.00      3 S               2
                        (      22.860 eV)
    38      38       --        13.636 au  O             1.00      4 S               2
                        (     371.062 eV)
    39      39       --       123.736 au  O             1.00      5 S               2
                        (    3367.024 eV)
    40      40      1.333      -0.361 au  O             1.00      1 P:x             2
                        (      -9.826 eV)
    41      41       --         0.380 au  O             1.00      2 P:x             2
                        (      10.335 eV)
    42      42       --         3.936 au  O             1.00      3 P:x             2
                        (     107.096 eV)
    43      43      1.333      -0.361 au  O             1.00      1 P:y             2
                        (      -9.826 eV)
    44      44       --         0.380 au  O             1.00      2 P:y             2
                        (      10.335 eV)
    45      45       --         3.936 au  O             1.00      3 P:y             2
                        (     107.096 eV)
    46      46      1.333      -0.361 au  O             1.00      1 P:z             2
                        (      -9.826 eV)
    47      47       --         0.380 au  O             1.00      2 P:z             2
                        (      10.335 eV)
    48      48       --         3.936 au  O             1.00      3 P:z             2
                        (     107.096 eV)
    49      49       --         1.117 au  O             1.00      1 D:z2            2
                        (      30.395 eV)
    50      50       --         1.117 au  O             1.00      1 D:x2-y2         2
                        (      30.395 eV)
    51      51       --         1.117 au  O             1.00      1 D:xy            2
                        (      30.395 eV)
    52      52       --         1.117 au  O             1.00      1 D:xz            2
                        (      30.395 eV)
    53      53       --         1.117 au  O             1.00      1 D:yz            2
                        (      30.395 eV)
    54      54       --         3.432 au  O             1.00      1 F:z3            2
                        (      93.388 eV)
    55      55       --         3.432 au  O             1.00      1 F:z             2
                        (      93.388 eV)
    56      56       --         3.432 au  O             1.00      1 F:xyz           2
                        (      93.388 eV)
    57      57       --         3.432 au  O             1.00      1 F:z2x           2
                        (      93.388 eV)
    58      58       --         3.432 au  O             1.00      1 F:z2y           2
                        (      93.388 eV)
    59      59       --         3.432 au  O             1.00      1 F:x             2
                        (      93.388 eV)
    60      60       --         3.432 au  O             1.00      1 F:y             2
                        (      93.388 eV)
    61      61      2.000     -19.301 au  O             1.00      1 S               3
                        (    -525.210 eV)
    62      62      2.000      -0.971 au  O             1.00      2 S               3
                        (     -26.409 eV)
    63      63       --         0.840 au  O             1.00      3 S               3
                        (      22.860 eV)
    64      64       --        13.636 au  O             1.00      4 S               3
                        (     371.062 eV)
    65      65       --       123.736 au  O             1.00      5 S               3
                        (    3367.024 eV)
    66      66      1.333      -0.361 au  O             1.00      1 P:x             3
                        (      -9.826 eV)
    67      67       --         0.380 au  O             1.00      2 P:x             3
                        (      10.335 eV)
    68      68       --         3.936 au  O             1.00      3 P:x             3
                        (     107.096 eV)
    69      69      1.333      -0.361 au  O             1.00      1 P:y             3
                        (      -9.826 eV)
    70      70       --         0.380 au  O             1.00      2 P:y             3
                        (      10.335 eV)
    71      71       --         3.936 au  O             1.00      3 P:y             3
                        (     107.096 eV)
    72      72      1.333      -0.361 au  O             1.00      1 P:z             3
                        (      -9.826 eV)
    73      73       --         0.380 au  O             1.00      2 P:z             3
                        (      10.335 eV)
    74      74       --         3.936 au  O             1.00      3 P:z             3
                        (     107.096 eV)
    75      75       --         1.117 au  O             1.00      1 D:z2            3
                        (      30.395 eV)
    76      76       --         1.117 au  O             1.00      1 D:x2-y2         3
                        (      30.395 eV)
    77      77       --         1.117 au  O             1.00      1 D:xy            3
                        (      30.395 eV)
    78      78       --         1.117 au  O             1.00      1 D:xz            3
                        (      30.395 eV)
    79      79       --         1.117 au  O             1.00      1 D:yz            3
                        (      30.395 eV)
    80      80       --         3.432 au  O             1.00      1 F:z3            3
                        (      93.388 eV)
    81      81       --         3.432 au  O             1.00      1 F:z             3
                        (      93.388 eV)
    82      82       --         3.432 au  O             1.00      1 F:xyz           3
                        (      93.388 eV)
    83      83       --         3.432 au  O             1.00      1 F:z2x           3
                        (      93.388 eV)
    84      84       --         3.432 au  O             1.00      1 F:z2y           3
                        (      93.388 eV)
    85      85       --         3.432 au  O             1.00      1 F:x             3
                        (      93.388 eV)
    86      86       --         3.432 au  O             1.00      1 F:y             3
                        (      93.388 eV)
    87      87      2.000     -19.301 au  O             1.00      1 S               4
                        (    -525.210 eV)
    88      88      2.000      -0.971 au  O             1.00      2 S               4
                        (     -26.409 eV)
    89      89       --         0.840 au  O             1.00      3 S               4
                        (      22.860 eV)
    90      90       --        13.636 au  O             1.00      4 S               4
                        (     371.062 eV)
    91      91       --       123.736 au  O             1.00      5 S               4
                        (    3367.024 eV)
    92      92      1.333      -0.361 au  O             1.00      1 P:x             4
                        (      -9.826 eV)
    93      93       --         0.380 au  O             1.00      2 P:x             4
                        (      10.335 eV)
    94      94       --         3.936 au  O             1.00      3 P:x             4
                        (     107.096 eV)
    95      95      1.333      -0.361 au  O             1.00      1 P:y             4
                        (      -9.826 eV)
    96      96       --         0.380 au  O             1.00      2 P:y             4
                        (      10.335 eV)
    97      97       --         3.936 au  O             1.00      3 P:y             4
                        (     107.096 eV)
    98      98      1.333      -0.361 au  O             1.00      1 P:z             4
                        (      -9.826 eV)
    99      99       --         0.380 au  O             1.00      2 P:z             4
                        (      10.335 eV)
   100     100       --         3.936 au  O             1.00      3 P:z             4
                        (     107.096 eV)
   101     101       --         1.117 au  O             1.00      1 D:z2            4
                        (      30.395 eV)
   102     102       --         1.117 au  O             1.00      1 D:x2-y2         4
                        (      30.395 eV)
   103     103       --         1.117 au  O             1.00      1 D:xy            4
                        (      30.395 eV)
   104     104       --         1.117 au  O             1.00      1 D:xz            4
                        (      30.395 eV)
   105     105       --         1.117 au  O             1.00      1 D:yz            4
                        (      30.395 eV)
   106     106       --         3.432 au  O             1.00      1 F:z3            4
                        (      93.388 eV)
   107     107       --         3.432 au  O             1.00      1 F:z             4
                        (      93.388 eV)
   108     108       --         3.432 au  O             1.00      1 F:xyz           4
                        (      93.388 eV)
   109     109       --         3.432 au  O             1.00      1 F:z2x           4
                        (      93.388 eV)
   110     110       --         3.432 au  O             1.00      1 F:z2y           4
                        (      93.388 eV)
   111     111       --         3.432 au  O             1.00      1 F:x             4
                        (      93.388 eV)
   112     112       --         3.432 au  O             1.00      1 F:y             4
                        (      93.388 eV)
   113     113      2.000     -19.301 au  O             1.00      1 S               5
                        (    -525.210 eV)
   114     114      2.000      -0.971 au  O             1.00      2 S               5
                        (     -26.409 eV)
   115     115       --         0.840 au  O             1.00      3 S               5
                        (      22.860 eV)
   116     116       --        13.636 au  O             1.00      4 S               5
                        (     371.062 eV)
   117     117       --       123.736 au  O             1.00      5 S               5
                        (    3367.024 eV)
   118     118      1.333      -0.361 au  O             1.00      1 P:x             5
                        (      -9.826 eV)
   119     119       --         0.380 au  O             1.00      2 P:x             5
                        (      10.335 eV)
   120     120       --         3.936 au  O             1.00      3 P:x             5
                        (     107.096 eV)
   121     121      1.333      -0.361 au  O             1.00      1 P:y             5
                        (      -9.826 eV)
   122     122       --         0.380 au  O             1.00      2 P:y             5
                        (      10.335 eV)
   123     123       --         3.936 au  O             1.00      3 P:y             5
                        (     107.096 eV)
   124     124      1.333      -0.361 au  O             1.00      1 P:z             5
                        (      -9.826 eV)
   125     125       --         0.380 au  O             1.00      2 P:z             5
                        (      10.335 eV)
   126     126       --         3.936 au  O             1.00      3 P:z             5
                        (     107.096 eV)
   127     127       --         1.117 au  O             1.00      1 D:z2            5
                        (      30.395 eV)
   128     128       --         1.117 au  O             1.00      1 D:x2-y2         5
                        (      30.395 eV)
   129     129       --         1.117 au  O             1.00      1 D:xy            5
                        (      30.395 eV)
   130     130       --         1.117 au  O             1.00      1 D:xz            5
                        (      30.395 eV)
   131     131       --         1.117 au  O             1.00      1 D:yz            5
                        (      30.395 eV)
   132     132       --         3.432 au  O             1.00      1 F:z3            5
                        (      93.388 eV)
   133     133       --         3.432 au  O             1.00      1 F:z             5
                        (      93.388 eV)
   134     134       --         3.432 au  O             1.00      1 F:xyz           5
                        (      93.388 eV)
   135     135       --         3.432 au  O             1.00      1 F:z2x           5
                        (      93.388 eV)
   136     136       --         3.432 au  O             1.00      1 F:z2y           5
                        (      93.388 eV)
   137     137       --         3.432 au  O             1.00      1 F:x             5
                        (      93.388 eV)
   138     138       --         3.432 au  O             1.00      1 F:y             5
                        (      93.388 eV)
   139     139      1.000      -0.244 au  H             1.00      1 S               6
                        (      -6.641 eV)
   140     140       --         0.104 au  H             1.00      2 S               6
                        (       2.836 eV)
   141     141       --         1.564 au  H             1.00      3 S               6
                        (      42.568 eV)
   142     142       --         0.436 au  H             1.00      1 P:x             6
                        (      11.864 eV)
   143     143       --         0.436 au  H             1.00      1 P:y             6
                        (      11.864 eV)
   144     144       --         0.436 au  H             1.00      1 P:z             6
                        (      11.864 eV)
   145     145       --         2.618 au  H             1.00      1 D:z2            6
                        (      71.229 eV)
   146     146       --         2.618 au  H             1.00      1 D:x2-y2         6
                        (      71.229 eV)
   147     147       --         2.618 au  H             1.00      1 D:xy            6
                        (      71.229 eV)
   148     148       --         2.618 au  H             1.00      1 D:xz            6
                        (      71.229 eV)
   149     149       --         2.618 au  H             1.00      1 D:yz            6
                        (      71.229 eV)
   150     150      1.000      -0.244 au  H             1.00      1 S               7
                        (      -6.641 eV)
   151     151       --         0.104 au  H             1.00      2 S               7
                        (       2.836 eV)
   152     152       --         1.564 au  H             1.00      3 S               7
                        (      42.568 eV)
   153     153       --         0.436 au  H             1.00      1 P:x             7
                        (      11.864 eV)
   154     154       --         0.436 au  H             1.00      1 P:y             7
                        (      11.864 eV)
   155     155       --         0.436 au  H             1.00      1 P:z             7
                        (      11.864 eV)
   156     156       --         2.618 au  H             1.00      1 D:z2            7
                        (      71.229 eV)
   157     157       --         2.618 au  H             1.00      1 D:x2-y2         7
                        (      71.229 eV)
   158     158       --         2.618 au  H             1.00      1 D:xy            7
                        (      71.229 eV)
   159     159       --         2.618 au  H             1.00      1 D:xz            7
                        (      71.229 eV)
   160     160       --         2.618 au  H             1.00      1 D:yz            7
                        (      71.229 eV)
   161     161      1.000      -0.244 au  H             1.00      1 S               8
                        (      -6.641 eV)
   162     162       --         0.104 au  H             1.00      2 S               8
                        (       2.836 eV)
   163     163       --         1.564 au  H             1.00      3 S               8
                        (      42.568 eV)
   164     164       --         0.436 au  H             1.00      1 P:x             8
                        (      11.864 eV)
   165     165       --         0.436 au  H             1.00      1 P:y             8
                        (      11.864 eV)
   166     166       --         0.436 au  H             1.00      1 P:z             8
                        (      11.864 eV)
   167     167       --         2.618 au  H             1.00      1 D:z2            8
                        (      71.229 eV)
   168     168       --         2.618 au  H             1.00      1 D:x2-y2         8
                        (      71.229 eV)
   169     169       --         2.618 au  H             1.00      1 D:xy            8
                        (      71.229 eV)
   170     170       --         2.618 au  H             1.00      1 D:xz            8
                        (      71.229 eV)
   171     171       --         2.618 au  H             1.00      1 D:yz            8
                        (      71.229 eV)



 ================================
 (Slater-type)  F U N C T I O N S  ***  (Basis and Fit)  ***
 ================================
  

 Atom Type    1  (P)
 ==============

 Valence Basis Sets:  14
 -----------------------
   1 S   18.000000
   1 S   13.350000
   2 S    5.600000
   2 S    4.050000
   2 P    7.450000
   2 P    4.100000
   3 S    2.700000
   3 S    1.850000
   3 S    1.300000
   3 P    2.300000
   3 P    1.350000
   3 P    0.850000
   3 D    1.900000
   4 F    2.000000

 Charge Fitting Sets (for the computation of the Coulomb Potential):  30
 -----------------------------------------------------------------------
   1 S   36.000000
   1 S   21.450000
   2 S   23.670000
   2 S   15.860000
   3 S   15.600000
   3 S   11.130000
   3 S    7.940000
   4 S    7.490000
   4 S    5.560000
   4 S    4.130000
   5 S    3.810000
   5 S    2.910000
   5 S    2.230000
   5 S    1.700000
   2 P   25.450000
   3 P   18.490000
   4 P   13.440000
   4 P    7.810000
   5 P    5.730000
   5 P    3.510000
   5 P    2.150000
   3 D   19.350000
   4 D   13.230000
   4 D    7.250000
   5 D    5.040000
   5 D    2.930000
   5 D    1.700000
   4 F    5.000000
   4 F    3.000000
   5 G    3.750000

 Atom Type    2  (O)
 ==============

 Valence Basis Sets:  10
 -----------------------
   1 S    9.800000
   1 S    6.800000
   2 S    7.580000
   2 S    2.880000
   2 S    1.720000
   2 P    4.080000
   2 P    2.080000
   2 P    1.120000
   3 D    2.000000
   4 F    3.000000

 Charge Fitting Sets (for the computation of the Coulomb Potential):  22
 -----------------------------------------------------------------------
   1 S   19.600000
   2 S   22.600000
   2 S   15.680000
   2 S   10.890000
   2 S    7.560000
   3 S    7.690000
   3 S    5.650000
   3 S    4.150000
   3 S    3.050000
   3 S    2.240000
   2 P   12.860000
   2 P    7.680000
   3 P    6.780000
   3 P    4.390000
   3 P    2.840000
   3 D    8.800000
   3 D    5.580000
   3 D    3.530000
   3 D    2.240000
   4 F    6.200000
   4 F    3.700000
   5 G    4.500000

 Atom Type    3  (H)
 ==============

 Valence Basis Sets:   5
 -----------------------
   1 S    0.690000
   1 S    0.920000
   1 S    1.580000
   2 P    1.250000
   3 D    2.500000

 Charge Fitting Sets (for the computation of the Coulomb Potential):  11
 -----------------------------------------------------------------------
   1 S    3.160000
   1 S    2.090000
   1 S    1.380000
   2 S    1.500000
   2 P    4.000000
   2 P    2.650000
   2 P    1.750000
   3 D    4.000000
   3 D    2.500000
   4 F    3.000000
   5 G    4.000000


 BAS: List of all Elementary Cartesian Basis Functions
 =====================================================

 The numbering in the list below (to the right of the function characteristics) is referred
 to in print-outs of MO eigenvectors and Mulliken populations in the BAS representation
 (as contrasted to the SFO representation).

 Notes:
 1. The functions are characterized by a polynomial prefactor (powers of x,y,z and r) and
    an exponential decay factor alpha.
 2. Since the basis sets are specific for an atom TYPE, the individual functions occur on
    all atoms of that type.
 3. The word 'Core' in the left margin signals that it is a Core Function (CF) : not a
    degree of freedom in the valence set, but only used to ensure orthogonalization of
    the other valence basis functions on the frozen Core Orbitals.


 (power of) X  Y  Z  R     Alpha  on Atom
            ==========     =====     ==========

 P                                    1
                                  ---------------------------------------------------------------------------
            0  0  0  0    18.000      1
            0  0  0  0    13.350      2
            0  0  0  1     5.600      3
            0  0  0  1     4.050      4
            1  0  0  0     7.450      5
            0  1  0  0     7.450      6
            0  0  1  0     7.450      7
            1  0  0  0     4.100      8
            0  1  0  0     4.100      9
            0  0  1  0     4.100     10
            0  0  0  2     2.700     11
            0  0  0  2     1.850     12
            0  0  0  2     1.300     13
            1  0  0  1     2.300     14
            0  1  0  1     2.300     15
            0  0  1  1     2.300     16
            1  0  0  1     1.350     17
            0  1  0  1     1.350     18
            0  0  1  1     1.350     19
            1  0  0  1     0.850     20
            0  1  0  1     0.850     21
            0  0  1  1     0.850     22
            2  0  0  0     1.900     23
            1  1  0  0     1.900     24
            1  0  1  0     1.900     25
            0  2  0  0     1.900     26
            0  1  1  0     1.900     27
            0  0  2  0     1.900     28
            3  0  0  0     2.000     29
            2  1  0  0     2.000     30
            2  0  1  0     2.000     31
            1  2  0  0     2.000     32
            1  1  1  0     2.000     33
            1  0  2  0     2.000     34
            0  3  0  0     2.000     35
            0  2  1  0     2.000     36
            0  1  2  0     2.000     37
            0  0  3  0     2.000     38

 O                                    2    3    4    5
                                  ---------------------------------------------------------------------------
            0  0  0  0     9.800     39   69   99  129
            0  0  0  0     6.800     40   70  100  130
            0  0  0  1     7.580     41   71  101  131
            0  0  0  1     2.880     42   72  102  132
            0  0  0  1     1.720     43   73  103  133
            1  0  0  0     4.080     44   74  104  134
            0  1  0  0     4.080     45   75  105  135
            0  0  1  0     4.080     46   76  106  136
            1  0  0  0     2.080     47   77  107  137
            0  1  0  0     2.080     48   78  108  138
            0  0  1  0     2.080     49   79  109  139
            1  0  0  0     1.120     50   80  110  140
            0  1  0  0     1.120     51   81  111  141
            0  0  1  0     1.120     52   82  112  142
            2  0  0  0     2.000     53   83  113  143
            1  1  0  0     2.000     54   84  114  144
            1  0  1  0     2.000     55   85  115  145
            0  2  0  0     2.000     56   86  116  146
            0  1  1  0     2.000     57   87  117  147
            0  0  2  0     2.000     58   88  118  148
            3  0  0  0     3.000     59   89  119  149
            2  1  0  0     3.000     60   90  120  150
            2  0  1  0     3.000     61   91  121  151
            1  2  0  0     3.000     62   92  122  152
            1  1  1  0     3.000     63   93  123  153
            1  0  2  0     3.000     64   94  124  154
            0  3  0  0     3.000     65   95  125  155
            0  2  1  0     3.000     66   96  126  156
            0  1  2  0     3.000     67   97  127  157
            0  0  3  0     3.000     68   98  128  158

 H                                    6    7    8
                                  ---------------------------------------------------------------------------
            0  0  0  0     0.690    159  171  183
            0  0  0  0     0.920    160  172  184
            0  0  0  0     1.580    161  173  185
            1  0  0  0     1.250    162  174  186
            0  1  0  0     1.250    163  175  187
            0  0  1  0     1.250    164  176  188
            2  0  0  0     2.500    165  177  189
            1  1  0  0     2.500    166  178  190
            1  0  1  0     2.500    167  179  191
            0  2  0  0     2.500    168  180  192
            0  1  1  0     2.500    169  181  193
            0  0  2  0     2.500    170  182  194

 Total number of charge fitting functions (nprimf)       592
 Total number of Cartesian basis functions (naos)        194
 Total number of Cartesian core functions  (ncos)          0

1
 ***************************************************************************************************



                                              ***********************
                                              *  T E C H N I C A L  *
                                              ***********************
  



 =============================================================
 P A R A L L E L I Z A T I O N  and  V E C T O R I Z A T I O N
 =============================================================
  
 Nr of parallel processes:                                4
 Maximum vector length in NumInt loops:                 128



 =====================
 S C F   U P D A T E S
 =====================
  
 Max. nr. of cycles:                               300
 Convergence criterion:                              0.0000010000
   secondary criterion:                              0.0010000000

 Mix parameter (when DIIS does not apply):           0.2000000000
 Mixed ADIIS+SDIIS will be used                  
    Max number of expansion vectors:                10
    Pure ADIIS when Max([F,P]) is above              0.1000000000
    Pure SDIIS when Max([F,P]) is below              0.0010000000
 Automatic ElectronSmearing (in case of problematic SCF convergence) disabled



 =================
 P R E C I S I O N  ***  (General: NumInt, NeglectFunctionTails, ...)  ***
 =================
  

 NumInt:           Target precision:                 6.0000000000
 -------           Initial precision:                6.0000000000
                   Min. precision (optimization):    6.0000000000

 Neglect Functions:          Basis functions:        0.1000000000E-07
 ------------------          Fit functions:          0.1000000000E-07



 ===========================
 L I N E A R   S C A L I N G
 ===========================
  

 Cut-off radii density fit:                        0.1000000000E-09
 Overlap cut-off criterion AO matrix elements:     0.1000000000E-07
 Cut-offs for Coulomb potential and fitted density:0.1000000000E-09
 Cut-off criterion for Coulomb multipole terms:    0.1000000000E-09
 Progressive Convergence parameter:                 0.000000000    

 Number of elements of the density matrix on this node (used, total):      4860     18915



 ===========================================
 Numerical Integration : Fuzzy Cells (Becke)
 ===========================================
  
 Becke grid quality: GOOD           
  
 Lebedev angular grid order:             min:  11 max:  31
 Nr. of radial points:                   min:  54 max:  76

 Total nr. of points:     101652
 Nr. of blocks:              795
 Block length:               128
 Nr. of dummy points:        108


 Test of Precision of the Numerical Integration Grid
 ===================================================

 Integral of the Total Core Density:                   0.00000000000000


 -------------------------------------------
  COSMO surface
  Area             =          355.081
  Volume           =          534.737
  Number of Points =          943
 -------------------------------------------



 ========================
 Density Fitting (zlmFit)
 ========================
  
 ZlmFit Fit Quality: GOOD           
  
 Max L-expansion:                        min:   8 max:   9
 Nr. of radial interpolation points:     min:  78 max: 126



 ======================
 RI Hartree-Fock Scheme
 ======================
  
 Fit Set Quality     : GOOD
 Integration Quality : GOOD
 Threshold Quality   : GOOD
 Response Quality    : DEFAULT
 Is Range Separated  :  F
 
 RIHartreeFock Dependency: number of modified vectors:           3



 =====
 S C F  ***  ScaSCF  ***
 =====
  
 Initial density matrix is taken from previous geometry

 CYCLE    1
  ***********************************************************
  ** : orbital data taken from :/tmp/amstmp_ams_kid0.363658674/GOStep4.rkf
  ***********************************************************
 SCF Error: norm([F,P])=      0.043687427111, max([F,P])=      0.010241456522
 orbitals (Q,E):
 ---------------
 A :16...35          ( 2.00    -0.5763)  ( 2.00    -0.4835)  ( 2.00    -0.4474)  ( 2.00    -0.4474)
                     ( 2.00    -0.3985)  ( 2.00    -0.3985)  ( 2.00    -0.3797)  ( 2.00    -0.3613)
                     ( 2.00    -0.3059)  ( 2.00    -0.3059)  ( 0.00    -0.0269)  ( 0.00     0.0134)
                     ( 0.00     0.0135)  ( 0.00     0.0950)  ( 0.00     0.1150)  ( 0.00     0.1150)
                     ( 0.00     0.1279)  ( 0.00     0.1570)  ( 0.00     0.1587)  ( 0.00     0.1587)

 CYCLE    2
  SDIIS (wt  0.000):  0.6439  0.3561
 A-DIIS (wt  1.000):  0.6688  0.3312
  DIIS coefficients:  0.6688  0.3312
 SCF Error: norm([F,P])=      0.075462815476, max([F,P])=      0.021856155823
 orbitals (Q,E):
 ---------------
 A :16...26          ( 2.00    -0.5745)  ( 2.00    -0.4869)  ( 2.00    -0.4479)  ( 2.00    -0.4478)
                     ( 2.00    -0.3983)  ( 2.00    -0.3983)  ( 2.00    -0.3863)  ( 2.00    -0.3624)
                     ( 2.00    -0.3139)  ( 2.00    -0.3139)  ( 0.00    -0.0233)

 CYCLE    3
  SDIIS (wt  0.000):  0.4545  0.1335  0.4119
 A-DIIS (wt  1.000):  0.3462  0.0000  0.6538
  DIIS coefficients:  0.3462  0.0000  0.6538
 SCF Error: norm([F,P])=      0.030441226549, max([F,P])=      0.007210686367
 orbitals (Q,E):
 ---------------
 A :16...26          ( 2.00    -0.5734)  ( 2.00    -0.4877)  ( 2.00    -0.4480)  ( 2.00    -0.4480)
                     ( 2.00    -0.3980)  ( 2.00    -0.3980)  ( 2.00    -0.3873)  ( 2.00    -0.3622)
                     ( 2.00    -0.3143)  ( 2.00    -0.3143)  ( 0.00    -0.0201)

 CYCLE    4
  SDIIS (wt  0.940): -0.3362  0.2151  1.1210
 A-DIIS (wt  0.060):  0.0000  0.0000  1.0000
  DIIS coefficients: -0.3160  0.2022  1.1137
 SCF Error: norm([F,P])=      0.022102215844, max([F,P])=      0.006939716765
 orbitals (Q,E):
 ---------------
 A :16...26          ( 2.00    -0.5715)  ( 2.00    -0.4895)  ( 2.00    -0.4476)  ( 2.00    -0.4476)
                     ( 2.00    -0.3969)  ( 2.00    -0.3969)  ( 2.00    -0.3914)  ( 2.00    -0.3614)
                     ( 2.00    -0.3194)  ( 2.00    -0.3194)  ( 0.00    -0.0169)

 CYCLE    5
  SDIIS (wt  0.992): -0.1319 -0.0328  0.5980  0.5667
 A-DIIS (wt  0.008):  0.0000  0.0000  0.0000  1.0000
  DIIS coefficients: -0.1308 -0.0326  0.5932  0.5702
 SCF Error: norm([F,P])=      0.010080785349, max([F,P])=      0.001804327019
 orbitals (Q,E):
 ---------------
 A :16...26          ( 2.00    -0.5724)  ( 2.00    -0.4897)  ( 2.00    -0.4484)  ( 2.00    -0.4484)
                     ( 2.00    -0.3979)  ( 2.00    -0.3979)  ( 2.00    -0.3912)  ( 2.00    -0.3623)
                     ( 2.00    -0.3189)  ( 2.00    -0.3189)  ( 0.00    -0.0171)

 CYCLE    6
  SDIIS (wt  1.000): -0.0110 -0.0454  0.1167  0.2886  0.6511
  DIIS coefficients: -0.0110 -0.0454  0.1167  0.2886  0.6511
 SCF Error: norm([F,P])=      0.002932076396, max([F,P])=      0.000469033726
 orbitals (Q,E):
 ---------------
 A :16...26          ( 2.00    -0.5723)  ( 2.00    -0.4896)  ( 2.00    -0.4482)  ( 2.00    -0.4482)
                     ( 2.00    -0.3977)  ( 2.00    -0.3977)  ( 2.00    -0.3911)  ( 2.00    -0.3621)
                     ( 2.00    -0.3188)  ( 2.00    -0.3188)  ( 0.00    -0.0170)

 CYCLE    7
  SDIIS (wt  1.000): -0.0001  0.0002 -0.0044  0.0277  0.0936  0.8829
  DIIS coefficients: -0.0001  0.0002 -0.0044  0.0277  0.0936  0.8829
 SCF Error: norm([F,P])=      0.000336020698, max([F,P])=      0.000084119106
 orbitals (Q,E):
 ---------------
 A :16...26          ( 2.00    -0.5723)  ( 2.00    -0.4896)  ( 2.00    -0.4482)  ( 2.00    -0.4482)
                     ( 2.00    -0.3977)  ( 2.00    -0.3977)  ( 2.00    -0.3911)  ( 2.00    -0.3621)
                     ( 2.00    -0.3188)  ( 2.00    -0.3188)  ( 0.00    -0.0170)

 CYCLE    8
  SDIIS (wt  1.000):  0.0000  0.0016 -0.0044  0.0033  0.0190  0.3639  0.6166
  DIIS coefficients:  0.0000  0.0016 -0.0044  0.0033  0.0190  0.3639  0.6166
 SCF Error: norm([F,P])=      0.000089276898, max([F,P])=      0.000015724079
 orbitals (Q,E):
 ---------------
 A :16...26          ( 2.00    -0.5723)  ( 2.00    -0.4896)  ( 2.00    -0.4482)  ( 2.00    -0.4482)
                     ( 2.00    -0.3977)  ( 2.00    -0.3977)  ( 2.00    -0.3911)  ( 2.00    -0.3621)
                     ( 2.00    -0.3188)  ( 2.00    -0.3188)  ( 0.00    -0.0170)

 CYCLE    9
  SDIIS (wt  1.000):  0.0000  0.0001 -0.0004 -0.0005 -0.0001  0.0309  0.1559  0.8140
  DIIS coefficients:  0.0000  0.0001 -0.0004 -0.0005 -0.0001  0.0309  0.1559  0.8140
 SCF Error: norm([F,P])=      0.000015407774, max([F,P])=      0.000003611118
 orbitals (Q,E):
 ---------------
 A :16...26          ( 2.00    -0.5723)  ( 2.00    -0.4896)  ( 2.00    -0.4482)  ( 2.00    -0.4482)
                     ( 2.00    -0.3977)  ( 2.00    -0.3977)  ( 2.00    -0.3911)  ( 2.00    -0.3621)
                     ( 2.00    -0.3188)  ( 2.00    -0.3188)  ( 0.00    -0.0170)

 CYCLE   10
  SDIIS (wt  1.000):  0.0000 -0.0000  0.0000 -0.0002 -0.0006 -0.0030  0.0198  0.1654  0.8186
  DIIS coefficients:  0.0000 -0.0000  0.0000 -0.0002 -0.0006 -0.0030  0.0198  0.1654  0.8186
 SCF Error: norm([F,P])=      0.000001577219, max([F,P])=      0.000000408157
 orbitals (Q,E):
 ---------------
 A :16...26          ( 2.00    -0.5723)  ( 2.00    -0.4896)  ( 2.00    -0.4482)  ( 2.00    -0.4482)
                     ( 2.00    -0.3977)  ( 2.00    -0.3977)  ( 2.00    -0.3911)  ( 2.00    -0.3621)
                     ( 2.00    -0.3188)  ( 2.00    -0.3188)  ( 0.00    -0.0170)

 SCF CONVERGED
 cosmo_calcen: 0.5 (esolb+esolc) (Hartrees) =   -0.014070

 Solvation energy (screening term,uncorrected) =     -8.828817 kcal/mol

 Solvation energy (dispersion and cavitation terms) =      0.389968 kcal/mol
 Solvation Energy Contributions (Hartrees)
          esola   esolb+esolc
     0.01406961   -0.02813923
 esol last cycle   -0.01406961

 CYCLE   11
1
 ***************************************************************************************************



                                                *******************
                                                *  R E S U L T S  *
                                                *******************
  
  
 Hartree-Fock exchange energy:   -56.8096644242135     
 *** Using FIT density in Focky
  SDIIS (wt  1.000):  0.0000 -0.0000  0.0000 -0.0001 -0.0002 -0.0014  0.0023  0.0329  0.2231  0.7433
  DIIS coefficients:  0.0000 -0.0000  0.0000 -0.0001 -0.0002 -0.0014  0.0023  0.0329  0.2231  0.7433
 SCF Error: norm([F,P])=      0.000000371677, max([F,P])=      0.000000078003

 Orbital Energies, per Irrep and Spin:
 ======================================
                        Occup              E (au)              E (eV)       Diff (eV) with prev. cycle
                        -----      --------------------        ------       --------------------------
 A
              16        2.000     -0.57230069278338E+00       -15.573              -9.87E-07
              17        2.000     -0.48963186145647E+00       -13.324              -3.17E-07
              18        2.000     -0.44819582978588E+00       -12.196               5.43E-07
              19        2.000     -0.44818806596001E+00       -12.196              -9.97E-07
              20        2.000     -0.39767545635935E+00       -10.821               5.02E-07
              21        2.000     -0.39766294438893E+00       -10.821              -9.70E-07
              22        2.000     -0.39113229060984E+00       -10.643              -3.86E-07
              23        2.000     -0.36210244619783E+00        -9.853              -2.27E-07
              24        2.000     -0.31878255716296E+00        -8.675              -2.38E-07
              25        2.000     -0.31878009066468E+00        -8.674              -6.49E-07
              26        0.000     -0.16992895328340E-01        -0.462
              27        0.000      0.26930779578751E-01         0.733
              28        0.000      0.26940453969035E-01         0.733
              29        0.000      0.88895010705002E-01         2.419
              30        0.000      0.11916875257496E+00         3.243
              31        0.000      0.11917310595614E+00         3.243
              32        0.000      0.12829834075082E+00         3.491
              33        0.000      0.15819609060792E+00         4.305
              34        0.000      0.15819849480802E+00         4.305
              35        0.000      0.16079119946468E+00         4.375
  
 HOMO :       25 A                -0.31878009066468E+00
 LUMO :       26 A                -0.16992895328340E-01
  
 cosmo_calcen: 0.5 (esolb+esolc) (Hartrees) =   -0.014070

 Solvation energy (screening term,uncorrected) =     -8.828817 kcal/mol

 Solvation energy (dispersion and cavitation terms) =      0.389968 kcal/mol
 Solvation Energy Contributions (Hartrees)
          esola   esolb+esolc
     0.01406961   -0.02813923
 esol last cycle   -0.01406961


 All Electron Calculation, thus no Orbital Energies of the Core Orbitals are calculated


 Fit test: (difference of exact and fit density, squared integrated, result summed over spins)
         Sum-of-Fragments:                             0.00000000403197
         Orthogonalized Fragments:                     0.00003202100330
         SCF:                                          0.00001844940978



 ==========================
 Electron Density at Nuclei
 ==========================
  
 The electron density is calculated at points on a small sphere around the center of a nucleus.
 The printed electron density is the average electron density on these points.
 The radius of the sphere is the printed approximate finite nuclear radius.

         Atom        Nuclear Radius (Angstrom)             Electron Density (a.u.)
         ----        -------------------------             -----------------------
     1)   P                 0.0000412627                             2176.16058
     2)   O                 0.0000345546                              310.17052
     3)   O                 0.0000345546                              310.17104
     4)   O                 0.0000345546                              310.17041
     5)   O                 0.0000345546                              310.50631
     6)   H                 0.0000181514                                0.45557
     7)   H                 0.0000181514                                0.45557
     8)   H                 0.0000181514                                0.45558



 =======================================
 M U L L I K E N   P O P U L A T I O N S
 =======================================
  
 The survey below gives for each atom:
 a) the total charge (Z minus electrons)
 b) the net spin polarization (nr of electrons spin-A minus spin-B)
 c) for each spin the atomic electron valence density (integrated) per L-value.

 Atom              Charge    Spin density          S         P         D         F
 ----              ------    ------------       ------    ------    ------    ------
 1 P               1.6504                       4.7591    7.5942    0.8370    0.1593
 2 O              -0.5333                       3.7405    4.7464    0.0423    0.0041
 3 O              -0.5333                       3.7405    4.7465    0.0423    0.0041
 4 O              -0.5335                       3.7405    4.7466    0.0423    0.0041
 5 O              -0.7572                       3.8155    4.8924    0.0452    0.0040
 6 H               0.2355                       0.6346    0.1172    0.0127    0.0000
 7 H               0.2356                       0.6345    0.1172    0.0127    0.0000
 8 H               0.2357                       0.6345    0.1172    0.0127    0.0000

 Populations of individual BAS functions
 ----------------------------------------
 1 P            0.5110  1.4531  1.3779  0.6440  0.7903  0.7903  0.7932  1.2121  1.2121  1.2088
                0.3572  0.6057 -0.1896  0.3540  0.3540  0.3895  0.2354  0.2354  0.1648 -0.0619
               -0.0619 -0.0219  0.0894  0.1403  0.1958  0.0894  0.1958  0.1263  0.0056  0.0174
                0.0075  0.0114  0.0202  0.0329  0.0076  0.0075  0.0329  0.0163
 2 O            0.6150  1.3680 -0.0112  0.9972  0.7716  0.2366  0.3042  0.2931  0.8827  0.9701
                0.9445  0.1699  0.4889  0.4564  0.0307  0.0089  0.0150 -0.0132  0.0072 -0.0064
                0.0097  0.0108  0.0108 -0.0067  0.0007 -0.0019 -0.0099 -0.0041  0.0002 -0.0054
 3 O            0.6150  1.3679 -0.0112  0.9972  0.7716  0.2936  0.2472  0.2931  0.9569  0.8959
[...]
    0   ubuntu-kch                                0          0          0
    1   ubuntu-kch                                0          1         -1
    2   ubuntu-kch                                0          2         -1
    3   ubuntu-kch                                0          3         -1
 ==============================================================================


May use up to 7570MB of RAM as shared memory on node 0
 
NMR
    out    iso    tens
    adfgui
    Atoms 1
    u1k best
    calc all
End

 *******************************************************************************
 *                                                                             *
 *  --------------------------------                                           *
 *   Amsterdam Modeling Suite (AMS)              2020.202                      *
 *  --------------------------------                                           *
 *                                               r90167 2020-12-05             *
 *                                                                             *
 *                                                                             *
 *                              =================                              *
 *                              |               |                              *
 *                              |     N M R     |                              *
 *                              |               |                              *
 *                              =================                              *
 *                                                                             *
 *                                                                             *
 *   Online information and documentation:  https://www.scm.com/support/       *
 *   E-mail:  support@scm.com   info@scm.com                                   *
 *                                                                             *
 *   Scientific publications using AMS results must be properly referenced     *
 *   See the User Manuals (or the web site) for recommended citations          *
 *   The terms and conditions of the End User License Agreement apply to       *
 *   the use of AMS, https://www.scm.com/license-terms/                        *
 *                                                                             *
 **********************  x86_64_linux_intel / intelmpi  ************************
 
 Licensed to: Dr. Miroslav Ilias / Matej Bel University, Department Chemistry, Fac. Natural Sciences / Banska Bystrica / SLOVAKIA
 SCM User ID: u17848
  
 NMR 2020.202  RunTime: Mar08-2021 20:10:33  Nodes: 1  Procs: 4

 Temporary files are created in /tmp/kid_0.1396237359 (0xEF53)


 Communication costs MPI_COMM_WORLD:      0.287 usec per message,   0.0033 usec per 8-byte item
 Communication costs for intra-node:      0.291 usec per message,   0.0034 usec per 8-byte item




 ======================
 RI Hartree-Fock Scheme
 ======================
  
 Fit Set Quality     : GOOD
 Integration Quality : GOOD
 Threshold Quality   : GOOD
 Response Quality    : DEFAULT
 Is Range Separated  :  F
 
 RIHartreeFock Dependency: number of modified vectors:           0
                    
                      **********************************    
                      ||******************************||    
                      ||                              ||    
                      ||  ##   ##  ###  ###  ######   ||    
                      ||  ###  ##  ########  ##   ##  ||    
                      ||  #### ##  ## ## ##  ######   ||    
                      ||  ## ####  ##    ##  ## ##    ||    
                      ||  ##  ###  ##    ##  ##  ##   ||    
                      ||  ##   ##  ##    ##  ##   ##  ||    
                      ||                              ||    
                      | ****************************** |    
                      **********************************    
                    
                            Written for ADF by              
                    
                    Stephen K. Wolff & Georg Schreckenbach  
                    
                      The research group of Tom Ziegler     
                            University of Calgary           
                               Alberta, Canada              
                    
                      Speedups, NBO analysis, g-tensors,    
                       full ZORA SO, and other goodies by   
                         Jochen Autschbach, SUNY Buffalo
                    
 =============================
 NMR Chemical shift References
 =============================
  
 Lead:
 G. Schreckenbach, T. Ziegler, J. Phys. Chem. 99 (1995) 606
  
 Speed-ups:
 J. Autschbach, E. Zurek, J. Phys. Chem. A 107 (2003), 4967
  
 Hybrids:
 M. Krykunov, T. Ziegler, E. van Lenthe, Int. J. of Quantum Chem. 109, 1676 (2009)
  
 Spin-orbit coupling:
 S.K. Wolff, T. Ziegler, E. van Lenthe, E.J. Baerends, J. Chem. Phys. 110, 7689 (1999)
 J. Autschbach, Mol. Phys. 111 (2013), 2544
  
 Paramagnetic:
 J. Autschbach, S. Patchkovskii, B. Pritchard, J. Chem. Theory Comput. 7, 2175 (2011)
  
 NBO analysis:
 J. Autschbach, J. Chem. Phys. 128 (2008), 164112
 J. Autschbach, S. Zheng, Magn. Reson. Chem. 46 (2008), S48
  
 Suggested:
 G. Schreckenbach, T. Ziegler, Int. J. Quantum Chem. 60, 753 (1996)
 G. Schreckenbach, T. Ziegler, Int. J. Quantum Chem. 61 (1997) 899
 S.K. Wolff, T. Ziegler, J. Chem. Phys. 109 (1998) 895
  
 =======================
 ESR g-tensor References
 =======================
  
 Lead:
 J. Autschbach, B. Pritchard, Theor. Chem. Acc. 129 (2011), 453
  
 Suggested:
 G. Schreckenbach, T. Ziegler, J. Phys. Chem. A 101, 3388 (1997)
 
################################################################################
 
 
################################################################################
 
 
              <><><><><><><><><><><><><><><><><><><><><><><><><>
 
                 GENERAL ADF INFORMATION:
                 ------------------------
 
                 TITLE:    *** adf ***                                  
 JOB ID:      363658674
                 NONLXC:                                                
                 SYMMETRY: NOSYM                                        
                  
                 IOPREL:   0
                 ------>  non-rel. (Re MOs)
 
              <><><><><><><><><><><><><><><><><><><><><><><><><>
 
              ==================================================
 
                 NUCLEAR COORDINATES (ANGSTROMS):
                 --------------------------------
 
                 P  (  1):      -0.0000      0.0000     -0.1615
                 O  (  2):      -1.3853     -0.3380      0.5368
                 O  (  3):       0.9854     -1.0308      0.5368
                 O  (  4):       0.4000      1.3687      0.5368
                 O  (  5):      -0.0000      0.0000     -1.6304
                 H  (  6):      -2.1521      0.0080      0.0605
                 H  (  7):       1.0692     -1.8677      0.0605
                 H  (  8):       1.0829      1.8598      0.0605
 
              ==================================================
 
              <><><><><><><><><><><><><><><><><><><><><><><><><>
 
                 NUMBERS:
                 --------
 
                 number of electrons:     50.00
 
                 ---   AOs   ---          ---   MOs   ---
                 ncor =     0             nocc =    25
                 nval =   194             nvir =   146
                 nbas =   194             nmo  =   171
                 naos =   194             nsot =   171
              ==================================================
                  
                 --------------------------
                     ATOM TYPE: P                        
                 --------------------------
                 === BASIS
                   1S   18.00     VALENCE
                   1S   13.35     VALENCE
                   2S    5.60     VALENCE
                   2S    4.05     VALENCE
                   2P    7.45     VALENCE
                   2P    4.10     VALENCE
                   3S    2.70     VALENCE
                   3S    1.85     VALENCE
                   3S    1.30     VALENCE
                   3P    2.30     VALENCE
                   3P    1.35     VALENCE
                   3P    0.85     VALENCE
                   3D    1.90     VALENCE
                   4F    2.00     VALENCE
                  
                 --------------------------
                     ATOM TYPE: O                        
                 --------------------------
                 === BASIS
                   1S    9.80     VALENCE
                   1S    6.80     VALENCE
                   2S    7.58     VALENCE
                   2S    2.88     VALENCE
                   2S    1.72     VALENCE
                   2P    4.08     VALENCE
                   2P    2.08     VALENCE
                   2P    1.12     VALENCE
                   3D    2.00     VALENCE
                   4F    3.00     VALENCE
                  
                 --------------------------
                     ATOM TYPE: H                        
                 --------------------------
                 === BASIS
                   1S    0.69     VALENCE
                   1S    0.92     VALENCE
                   1S    1.58     VALENCE
                   2P    1.25     VALENCE
                   3D    2.50     VALENCE
                  
              ==================================================
              <><><><><><><><><><><><><><><><><><><><><><><><><>
 
                 TENSOR INFORMATION:
                 -------------------
 
                              CALC                   U1K
 
                 paramagnetic  = T     mass-velocity = F
                 diamagnetic   = T     Darwin        = F
                 Fermi-cont.   = F     Zeeman        = F
                 ZORA SO       = F     ZORA SO       = F
                 ZORA SCALE    = F     ZORA SO FULL  = F
                 ZORA SO 1C    = F     E IN U1 SCL   = F
 
              <><><><><><><><><><><><><><><><><><><><><><><><><>
 
              <><><><><><><><><><><><><><><><><><><><><><><><><>
 
                 OUTPUT SWITCHES:
                 ----------------
 
                           ISO = T                F1 = F
                          TENS = T                S1 = F
                           EIG = F                U1 = F
                           AOP = F                B1 = F
                           AOD = F                F  = F
                           AOF = F                 S = F
                          INFO = F              REFS = F
 
              <><><><><><><><><><><><><><><><><><><><><><><><><>
 
              --------------------------------------------------
 
                 CALCULATE THE POTENTIAL? F
                  
                 ---> Potential is already on TAPE10.
                      It will not be re-calculated.
 
              --------------------------------------------------



 ===========================
 L I N E A R   S C A L I N G
 ===========================
  

 Overlap cut-off criterion AO matrix elements:     0.1000000000E-07
 ========================
 STARTING A NEW SCF. Step            1
 CRIT   1.00000000000000     
 CRIT   1.00000000000000     
 CRIT   1.00000000000000     
 ========================
 STARTING A NEW SCF. Step            2
 CRIT   2.21936026850349     
 CRIT   2.22560694143160     
 CRIT   1.76900882274156     
 ========================
 STARTING A NEW SCF. Step            3
 CRIT  0.126185958496458     
 CRIT  0.126781369348268     
 CRIT  0.117700643209248     
 ========================
 STARTING A NEW SCF. Step            4
 CRIT  6.642511834768672E-003
 CRIT  6.681509922833446E-003
 CRIT  5.857822915675796E-003
 ========================
 STARTING A NEW SCF. Step            5
 CRIT  3.979970506035899E-004
 CRIT  4.002967323523704E-004
 CRIT  3.600709983833345E-004
 ========================
 STARTING A NEW SCF. Step            6
 CRIT  2.116874074553233E-005
 CRIT  2.126349520571807E-005
 CRIT  2.057845976794074E-005
 ========================
 STARTING A NEW SCF. Step            7
 CRIT  9.921570194436437E-007
 CRIT  9.952442715867912E-007
 CRIT  1.023154733485307E-006
 ========================
 STARTING A NEW SCF. Step            8
 CRIT  5.543561794237709E-008
################################################################################
********************************************************************************
****  N U C L E U S : P(1)
 
 ADF-GUI atom: P(1)
 Internal NMR numbering of atoms: P(1)
 
 
================================================================================
 
 
===  PARAMAGNETIC NMR SHIELDING TENSORS (ppm)
 
    ===     paramagnetic b^(1) tensor       ===     paramagnetic u^(1) tensor
    -----------------------------------     -----------------------------------
           0.000     0.000     0.000            -634.128    -0.016    -0.022
           0.000     0.000     0.000              -0.016  -634.152    -0.000
           0.000     0.000     0.000              -0.022    -0.000  -469.853
    -----------------------------------     -----------------------------------
              isotropic =      0.000                  isotropic =   -579.378

    ===     paramagnetic s^(1) tensor       ===     paramagnetic gauge tensor
    -----------------------------------     -----------------------------------
         -78.597     0.001     0.004              -3.879     0.000     0.000
           0.001   -78.591     0.009               0.000    -3.878     0.000
           0.004     0.009   -48.534               0.000     0.000    -2.186
    -----------------------------------     -----------------------------------
              isotropic =    -68.574                  isotropic =     -3.314

                        ***********************************
                        CARTESIAN AXIS REPRESENTATION

                        ==== total paramagnetic tensor
                        -----------------------------------
                            -716.604    -0.014    -0.017
                              -0.014  -716.621     0.009
                              -0.017     0.009  -520.573
                        -----------------------------------
                                  isotropic =   -651.266

                        ***********************************
                        -----------------------------------
                        PRINCIPAL AXIS REPRESENTATION

                        ==== Principal components:

                            -716.629  -716.596  -520.573
 
                        ==== Principal Axis System:

                               0.489     0.872    -0.000
                               0.872    -0.489     0.000
                               0.000     0.000     1.000
                        -----------------------------------
 
================================================================================
 
 
===  DIAMAGNETIC NMR SHIELDING TENSORS (ppm)
 
    ===       diamagnetic core tensor       ===    diamagnetic valence tensor
    -----------------------------------     -----------------------------------
           0.000     0.000     0.000             960.818    -0.001     0.001
           0.000     0.000     0.000              -0.001   960.816    -0.000
           0.000     0.000     0.000               0.001    -0.000   958.589
    -----------------------------------     -----------------------------------
              isotropic =      0.000                  isotropic =    960.075

                        ***********************************
                        CARTESIAN AXIS REPRESENTATION

                        ==== total diamagnetic tensor
                        -----------------------------------
                             960.818    -0.001     0.001
                              -0.001   960.816    -0.000
                               0.001    -0.000   958.589
                        -----------------------------------
                                  isotropic =    960.075

                        ***********************************
                        -----------------------------------
                        PRINCIPAL AXIS REPRESENTATION

                        ==== Principal components:

                             958.589   960.816   960.819
 
                        ==== Principal Axis System:

                              -0.000     0.387     0.922
                               0.000     0.922    -0.387
                               1.000    -0.000     0.000
                        -----------------------------------
 
================================================================================
 
 
===  TOTAL NMR SHIELDING TENSOR (ppm)
 
                        ***********************************
                        CARTESIAN AXIS REPRESENTATION

                        ==== total shielding tensor
                        -----------------------------------
                             244.214    -0.015    -0.016
                              -0.015   244.195     0.008
                              -0.016     0.008   438.016
                        -----------------------------------
                                  isotropic =    308.809

                        ***********************************
                        -----------------------------------
                        PRINCIPAL AXIS REPRESENTATION

                        ==== Principal components:

                             244.187   244.222   438.016
 
                        ==== Principal Axis System:

                               0.482     0.876    -0.000
                               0.876    -0.482     0.000
                               0.000     0.000     1.000
                        -----------------------------------
 *******************************************************************************

                             N M R   E X I T
 NORMAL TERMINATION



 =================
 Timing Statistics
 =================
  
 Total Used :                     CPU=       30.19      System=        0.75     Elapsed=       32.71

 Calls  Section                     ( Mean, Percentage )
 ---------------------------------------------------------------------------------------------------
     3  ><      ................      0.01    0.05             0.00    0.00             0.01    0.05
     1  INIT    ................      0.47    1.57             0.01    1.07             0.49    1.49
     1  RDEIGX  ................     16.56   54.85             0.23   30.28            17.55   53.64
     1  AOF1K   ................      0.75    2.50             0.00    0.01             0.88    2.70
     1  AOPKK   ................     11.26   37.30             0.50   66.68            12.62   38.58
     1  XSIGP   ................      0.00    0.00             0.00    0.00             0.00    0.00
     1  AODKKK  ................      1.12    3.72             0.01    1.06             1.15    3.51
     1  XDV     ................      0.00    0.00             0.00    0.00             0.00    0.00
     1  XSIGD   ................      0.00    0.00             0.00    0.00             0.00    0.00
     1  EXIT PROCEDURE .........      0.00    0.00             0.01    0.90             0.01    0.03


 Currently Open Files (EXIT00)
 ====================

 Unit    Access Format  Status   Type       Ident (file)
 -------------------------------------------------------
   3      SEQ    FORM   TRANSP  NORMAL      LOGFILE
                                          ( /home/milias/work/projects/open-collection/theoretical_chemistry/projects/nmr_diplomovky/reference_compounds/phosphoric_acid/ams/b3lyp_tz2p_good/cosmo-toluene/phosporic_acid.geopt_freq_nmrshield_b3lyp_tz2p_good_cosmo-toluene.logfile )
