
     Program PWSCF v.7.4.1 starts on 18Feb2026 at 11:48:46 

     This program is part of the open-source Quantum ESPRESSO suite
     for quantum simulation of materials; please cite
         "P. Giannozzi et al., J. Phys.:Condens. Matter 21 395502 (2009);
         "P. Giannozzi et al., J. Phys.:Condens. Matter 29 465901 (2017);
         "P. Giannozzi et al., J. Chem. Phys. 152 154105 (2020);
          URL http://www.quantum-espresso.org", 
     in publications or presentations arising from this work. More details at
     http://www.quantum-espresso.org/quote

     Parallel version (MPI), running on     4 processors

     MPI processes distributed on     1 nodes
     15133 MiB available memory on the printing compute node when the environment starts

     Reading input from espresso.pwi
Warning: card &IONS ignored
Warning: card / ignored
Warning: card &CELL ignored
Warning: card / ignored
Warning: card &FCP ignored
Warning: card / ignored
Warning: card &RISM ignored
Warning: card / ignored

     Current dimensions of program PWSCF are:
     Max number of different atomic species (ntypx) = 10
     Max number of k-points (npk) =  40000
     Max angular momentum in pseudopotentials (lmaxx) =  4

     Atomic positions and unit cell read from directory:
     ./tmp/Si_Electronic.save/

     Message from routine setup:
     using ibrav=0 with symmetry is DISCOURAGED, use correct ibrav instead

     R & G space division:  proc/nbgrp/npool/nimage =       4
     Subspace diagonalization in iterative solution of the eigenvalue problem:
     a serial algorithm will be used


     Parallelization info
     --------------------
     sticks:   dense  smooth     PW     G-vecs:    dense   smooth      PW
     Min         238     238     73                 4892     4892     821
     Max         239     239     74                 4896     4896     823
     Sum         955     955    295                19579    19579    3287

     Using Slab Decomposition



     bravais-lattice index     =            0
     lattice parameter (alat)  =       7.3065  a.u.
     unit-cell volume          =     275.8081 (a.u.)^3
     number of atoms/cell      =            2
     number of atomic types    =            1
     number of electrons       =         8.00
     number of Kohn-Sham states=            8
     kinetic-energy cutoff     =      65.0000  Ry
     charge density cutoff     =     260.0000  Ry
     Exchange-correlation= PBE
                           (   1   4   3   4   0   0   0)

     celldm(1)=   7.306465  celldm(2)=   0.000000  celldm(3)=   0.000000
     celldm(4)=   0.000000  celldm(5)=   0.000000  celldm(6)=   0.000000

     crystal axes: (cart. coord. in units of alat)
               a(1) = (  -0.000000   0.707107   0.707107 )  
               a(2) = (   0.707107   0.000000   0.707107 )  
               a(3) = (   0.707107   0.707107   0.000000 )  

     reciprocal axes: (cart. coord. in units 2 pi/alat)
               b(1) = ( -0.707107  0.707107  0.707107 )  
               b(2) = (  0.707107 -0.707107  0.707107 )  
               b(3) = (  0.707107  0.707107 -0.707107 )  


     PseudoPot. # 1 for Si read from file:
     ./Si.upf
     MD5 check sum: 02fab3f35e82123ef5bf1cb05d5b1a5e
     Pseudo is Norm-conserving + core correction, Zval =  4.0
     Generated using ONCVPSP code by D. R. Hamann
     Using radial grid of 1510 points,  6 beta functions with: 
                l(1) =   0
                l(2) =   0
                l(3) =   1
                l(4) =   1
                l(5) =   2
                l(6) =   2

     atomic species   valence    mass     pseudopotential
     Si                4.00    28.08500     Si( 1.00)

     48 Sym. Ops., with inversion, found (24 have fractional translation)



   Cartesian axes

     site n.     atom                  positions (alat units)
         1        Si     tau(   1) = (   0.3535534   1.0606602   1.0606602  )
         2        Si     tau(   2) = (   0.0000000   0.0000000   0.0000000  )

     number of k points=   752  Gaussian smearing, width (Ry)=  0.0100

     Number of k-points >= 100: set verbosity='high' to print them.

     Dense  grid:    19579 G-vectors     FFT dimensions: (  40,  40,  40)

     Estimated max dynamical RAM per process >       3.76 MB

     Estimated total dynamical RAM >      15.04 MB

     The potential is recalculated from file :
     ./tmp/Si_Electronic.save/charge-density

     Starting wfcs are    8 randomized atomic wfcs

     Band Structure Calculation
     Davidson diagonalization with overlap

     ethr =  1.25E-12,  avg # of iterations = 43.7

     total cpu time spent up to now is       69.6 secs

     End of band structure calculation

     Number of k-points >= 100: set verbosity='high' to print the bands.

     the Fermi energy is     6.3215 ev
     (compare with:     6.3152 eV, computed in scf)

     Writing all to output data dir ./tmp/Si_Electronic.save/ :
     XML data file, pseudopotentials, collected wavefunctions

     init_run     :      0.05s CPU      0.05s WALL (       1 calls)
     electrons    :     66.29s CPU     69.53s WALL (       1 calls)

     Called by init_run:
     wfcinit      :      0.00s CPU      0.00s WALL (       1 calls)
     potinit      :      0.01s CPU      0.01s WALL (       1 calls)
     hinit0       :      0.01s CPU      0.01s WALL (       1 calls)

     Called by electrons:
     c_bands      :     66.29s CPU     69.53s WALL (       1 calls)
     v_of_rho     :      0.01s CPU      0.01s WALL (       1 calls)

     Called by c_bands:
     init_us_2    :      0.09s CPU      0.09s WALL (     752 calls)
     cegterg      :     63.73s CPU     66.93s WALL (    1973 calls)

     Called by *egterg:
     cdiaghg      :      1.72s CPU      1.73s WALL (   33642 calls)
     h_psi        :     55.54s CPU     58.74s WALL (   35615 calls)
     g_psi        :      0.25s CPU      0.25s WALL (   32890 calls)

     Called by h_psi:
     h_psi:calbec :      4.16s CPU      4.19s WALL (   35615 calls)
     vloc_psi     :     47.85s CPU     49.52s WALL (   35615 calls)
     add_vuspsi   :      3.35s CPU      4.86s WALL (   35615 calls)

     General routines
     calbec       :      4.12s CPU      4.16s WALL (   35615 calls)
     fft          :      0.00s CPU      0.00s WALL (      11 calls)
     fftw         :     44.20s CPU     45.83s WALL (  368618 calls)
     davcio       :      0.06s CPU      0.07s WALL (    1504 calls)

     Parallel routines

     PWSCF        :   1m 6.53s CPU   1m10.01s WALL


   This run was terminated on:  11:49:56  18Feb2026            

=------------------------------------------------------------------------------=
   JOB DONE.
=------------------------------------------------------------------------------=
