
     Program PWSCF v.7.4.1 starts on 18Feb2026 at 13:48:15 

     This program is part of the open-source Quantum ESPRESSO suite
     for quantum simulation of materials; please cite
         "P. Giannozzi et al., J. Phys.:Condens. Matter 21 395502 (2009);
         "P. Giannozzi et al., J. Phys.:Condens. Matter 29 465901 (2017);
         "P. Giannozzi et al., J. Chem. Phys. 152 154105 (2020);
          URL http://www.quantum-espresso.org", 
     in publications or presentations arising from this work. More details at
     http://www.quantum-espresso.org/quote

     Parallel version (MPI), running on     4 processors

     MPI processes distributed on     1 nodes
     15112 MiB available memory on the printing compute node when the environment starts

     Reading input from espresso.pwi
Warning: card &CELL ignored
Warning: card / ignored
Warning: card &FCP ignored
Warning: card / ignored
Warning: card &RISM ignored
Warning: card / ignored

     Current dimensions of program PWSCF are:
     Max number of different atomic species (ntypx) = 10
     Max number of k-points (npk) =  40000
     Max angular momentum in pseudopotentials (lmaxx) =  4
     Message from routine setup:
     using ibrav=0 with symmetry is DISCOURAGED, use correct ibrav instead

     R & G space division:  proc/nbgrp/npool/nimage =       4
     Subspace diagonalization in iterative solution of the eigenvalue problem:
     a serial algorithm will be used


     Parallelization info
     --------------------
     sticks:   dense  smooth     PW     G-vecs:    dense   smooth      PW
     Min         148     148     44                18002    18002    2885
     Max         149     149     49                18019    18019    2886
     Sum         595     595    187                72043    72043   11541

     Using Slab Decomposition



     bravais-lattice index     =            0
     lattice parameter (alat)  =       4.6607  a.u.
     unit-cell volume          =     533.2351 (a.u.)^3
     number of atoms/cell      =            2
     number of atomic types    =            1
     number of electrons       =         8.00
     number of Kohn-Sham states=            8
     kinetic-energy cutoff     =     100.0000  Ry
     charge density cutoff     =     400.0000  Ry
     scf convergence threshold =      1.0E-10
     mixing beta               =       0.7000
     number of iterations used =            8  plain     mixing
     Exchange-correlation= PBE
                           (   1   4   3   4   0   0   0)

     celldm(1)=   4.660677  celldm(2)=   0.000000  celldm(3)=   0.000000
     celldm(4)=   0.000000  celldm(5)=   0.000000  celldm(6)=   0.000000

     crystal axes: (cart. coord. in units of alat)
               a(1) = (   1.000000   0.000000   0.000000 )  
               a(2) = (  -0.500000   0.866025   0.000000 )  
               a(3) = (   0.000000   0.000000   6.081926 )  

     reciprocal axes: (cart. coord. in units 2 pi/alat)
               b(1) = (  1.000000  0.577350 -0.000000 )  
               b(2) = (  0.000000  1.154701  0.000000 )  
               b(3) = (  0.000000 -0.000000  0.164422 )  


     PseudoPot. # 1 for C  read from file:
     ./C.upf
     MD5 check sum: 34a24e64c0a39f27c6c36b90a16ac686
     Pseudo is Norm-conserving + core correction, Zval =  4.0
     Generated using ONCVPSP code by D. R. Hamann
     Using radial grid of 1248 points,  4 beta functions with: 
                l(1) =   0
                l(2) =   0
                l(3) =   1
                l(4) =   1

     atomic species   valence    mass     pseudopotential
     C                 4.00    12.01100     C ( 1.00)

     24 Sym. Ops., with inversion, found (12 have fractional translation)



   Cartesian axes

     site n.     atom                  positions (alat units)
         1        C      tau(   1) = (   0.0000000   0.0000000   3.0409630  )
         2        C      tau(   2) = (   0.0000000   0.5773503   3.0409630  )

     number of k points=    75  Gaussian smearing, width (Ry)=  0.0100
                       cart. coord. in units 2pi/alat
        k(    1) = (   0.0000000   0.0000000   0.0000000), wk =   0.0027435
        k(    2) = (   0.0000000   0.0427667   0.0000000), wk =   0.0164609
        k(    3) = (   0.0000000   0.0855334   0.0000000), wk =   0.0164609
        k(    4) = (   0.0000000   0.1283001   0.0000000), wk =   0.0164609
        k(    5) = (   0.0000000   0.1710667   0.0000000), wk =   0.0164609
        k(    6) = (   0.0000000   0.2138334   0.0000000), wk =   0.0164609
        k(    7) = (   0.0000000   0.2566001   0.0000000), wk =   0.0164609
        k(    8) = (   0.0000000   0.2993668   0.0000000), wk =   0.0164609
        k(    9) = (   0.0000000   0.3421335   0.0000000), wk =   0.0164609
        k(   10) = (   0.0000000   0.3849002   0.0000000), wk =   0.0164609
        k(   11) = (   0.0000000   0.4276669   0.0000000), wk =   0.0164609
        k(   12) = (   0.0000000   0.4704336   0.0000000), wk =   0.0164609
        k(   13) = (   0.0000000   0.5132002   0.0000000), wk =   0.0164609
        k(   14) = (   0.0000000   0.5559669   0.0000000), wk =   0.0164609
        k(   15) = (   0.0370370   0.0641500   0.0000000), wk =   0.0164609
        k(   16) = (   0.0370370   0.1069167   0.0000000), wk =   0.0329218
        k(   17) = (   0.0370370   0.1496834   0.0000000), wk =   0.0329218
        k(   18) = (   0.0370370   0.1924501   0.0000000), wk =   0.0329218
        k(   19) = (   0.0370370   0.2352168   0.0000000), wk =   0.0329218
        k(   20) = (   0.0370370   0.2779835   0.0000000), wk =   0.0329218
        k(   21) = (   0.0370370   0.3207501   0.0000000), wk =   0.0329218
        k(   22) = (   0.0370370   0.3635168   0.0000000), wk =   0.0329218
        k(   23) = (   0.0370370   0.4062835   0.0000000), wk =   0.0329218
        k(   24) = (   0.0370370   0.4490502   0.0000000), wk =   0.0329218
        k(   25) = (   0.0370370   0.4918169   0.0000000), wk =   0.0329218
        k(   26) = (   0.0370370   0.5345836   0.0000000), wk =   0.0329218
        k(   27) = (   0.0370370   0.5773503   0.0000000), wk =   0.0164609
        k(   28) = (   0.0740741   0.1283001   0.0000000), wk =   0.0164609
        k(   29) = (   0.0740741   0.1710667   0.0000000), wk =   0.0329218
        k(   30) = (   0.0740741   0.2138334   0.0000000), wk =   0.0329218
        k(   31) = (   0.0740741   0.2566001   0.0000000), wk =   0.0329218
        k(   32) = (   0.0740741   0.2993668   0.0000000), wk =   0.0329218
        k(   33) = (   0.0740741   0.3421335   0.0000000), wk =   0.0329218
        k(   34) = (   0.0740741   0.3849002   0.0000000), wk =   0.0329218
        k(   35) = (   0.0740741   0.4276669   0.0000000), wk =   0.0329218
        k(   36) = (   0.0740741   0.4704336   0.0000000), wk =   0.0329218
        k(   37) = (   0.0740741   0.5132002   0.0000000), wk =   0.0329218
        k(   38) = (   0.0740741   0.5559669   0.0000000), wk =   0.0329218
        k(   39) = (   0.1111111   0.1924501   0.0000000), wk =   0.0164609
        k(   40) = (   0.1111111   0.2352168   0.0000000), wk =   0.0329218
        k(   41) = (   0.1111111   0.2779835   0.0000000), wk =   0.0329218
        k(   42) = (   0.1111111   0.3207501   0.0000000), wk =   0.0329218
        k(   43) = (   0.1111111   0.3635168   0.0000000), wk =   0.0329218
        k(   44) = (   0.1111111   0.4062835   0.0000000), wk =   0.0329218
        k(   45) = (   0.1111111   0.4490502   0.0000000), wk =   0.0329218
        k(   46) = (   0.1111111   0.4918169   0.0000000), wk =   0.0329218
        k(   47) = (   0.1111111   0.5345836   0.0000000), wk =   0.0329218
        k(   48) = (   0.1111111   0.5773503   0.0000000), wk =   0.0164609
        k(   49) = (   0.1481481   0.2566001   0.0000000), wk =   0.0164609
        k(   50) = (   0.1481481   0.2993668   0.0000000), wk =   0.0329218
        k(   51) = (   0.1481481   0.3421335   0.0000000), wk =   0.0329218
        k(   52) = (   0.1481481   0.3849002   0.0000000), wk =   0.0329218
        k(   53) = (   0.1481481   0.4276669   0.0000000), wk =   0.0329218
        k(   54) = (   0.1481481   0.4704336   0.0000000), wk =   0.0329218
        k(   55) = (   0.1481481   0.5132002   0.0000000), wk =   0.0329218
        k(   56) = (   0.1481481   0.5559669   0.0000000), wk =   0.0329218
        k(   57) = (   0.1851852   0.3207501   0.0000000), wk =   0.0164609
        k(   58) = (   0.1851852   0.3635168   0.0000000), wk =   0.0329218
        k(   59) = (   0.1851852   0.4062835   0.0000000), wk =   0.0329218
        k(   60) = (   0.1851852   0.4490502   0.0000000), wk =   0.0329218
        k(   61) = (   0.1851852   0.4918169   0.0000000), wk =   0.0329218
        k(   62) = (   0.1851852   0.5345836   0.0000000), wk =   0.0329218
        k(   63) = (   0.1851852   0.5773503   0.0000000), wk =   0.0164609
        k(   64) = (   0.2222222   0.3849002   0.0000000), wk =   0.0164609
        k(   65) = (   0.2222222   0.4276669   0.0000000), wk =   0.0329218
        k(   66) = (   0.2222222   0.4704336   0.0000000), wk =   0.0329218
        k(   67) = (   0.2222222   0.5132002   0.0000000), wk =   0.0329218
        k(   68) = (   0.2222222   0.5559669   0.0000000), wk =   0.0329218
        k(   69) = (   0.2592593   0.4490502   0.0000000), wk =   0.0164609
        k(   70) = (   0.2592593   0.4918169   0.0000000), wk =   0.0329218
        k(   71) = (   0.2592593   0.5345836   0.0000000), wk =   0.0329218
        k(   72) = (   0.2592593   0.5773503   0.0000000), wk =   0.0164609
        k(   73) = (   0.2962963   0.5132002   0.0000000), wk =   0.0164609
        k(   74) = (   0.2962963   0.5559669   0.0000000), wk =   0.0329218
        k(   75) = (   0.3333333   0.5773503   0.0000000), wk =   0.0054870

     Dense  grid:    72043 G-vectors     FFT dimensions: (  30,  30, 192)

     Estimated max dynamical RAM per process >       8.45 MB

     Estimated total dynamical RAM >      33.81 MB
 ----2D----2D----2D----2D----2D----2D----2D----2D----2D----2D----2D----2D
  The code is running with the 2D cutoff
  Please refer to:
  Sohier, T., Calandra, M., & Mauri, F. (2017), 
  Density functional perturbation theory for gated two-dimensional heterostructures:
  Theoretical developments and application to flexural phonons in graphene.
  Physical Review B, 96(7), 75448. https://doi.org/10.1103/PhysRevB.96.075448
 ----2D----2D----2D----2D----2D----2D----2D----2D----2D----2D----2D----2D

     Initial potential from superposition of free atoms

     starting charge       7.9999, renormalised to       8.0000

     negative rho (up, down):  1.322E-06 0.000E+00
     Starting wfcs are    8 randomized atomic wfcs

     total cpu time spent up to now is        0.8 secs

     Self-consistent Calculation

     iteration #  1     ecut=   100.00 Ry     beta= 0.70
     Davidson diagonalization with overlap
     ethr =  1.00E-02,  avg # of iterations =  6.0

     total cpu time spent up to now is        3.6 secs

     total energy              =     -24.06977133 Ry
     estimated scf accuracy    <       0.18963698 Ry

     iteration #  2     ecut=   100.00 Ry     beta= 0.70
     Davidson diagonalization with overlap
     ethr =  2.37E-03,  avg # of iterations =  4.0

     total cpu time spent up to now is        5.6 secs

     total energy              =     -24.09529673 Ry
     estimated scf accuracy    <       0.00192756 Ry

     iteration #  3     ecut=   100.00 Ry     beta= 0.70
     Davidson diagonalization with overlap
     ethr =  2.41E-05,  avg # of iterations = 10.0

     total cpu time spent up to now is        9.2 secs

     total energy              =     -24.09580829 Ry
     estimated scf accuracy    <       0.00014931 Ry

     iteration #  4     ecut=   100.00 Ry     beta= 0.70
     Davidson diagonalization with overlap
     c_bands:  1 eigenvalues not converged
     ethr =  1.87E-06,  avg # of iterations =  5.5

     total cpu time spent up to now is       12.6 secs

     total energy              =     -24.09582570 Ry
     estimated scf accuracy    <       0.00000336 Ry

     iteration #  5     ecut=   100.00 Ry     beta= 0.70
     Davidson diagonalization with overlap
     ethr =  4.20E-08,  avg # of iterations =  3.1

     total cpu time spent up to now is       14.6 secs

     total energy              =     -24.09582743 Ry
     estimated scf accuracy    <       0.00000008 Ry

     iteration #  6     ecut=   100.00 Ry     beta= 0.70
     Davidson diagonalization with overlap
     ethr =  9.54E-10,  avg # of iterations =  3.2

     total cpu time spent up to now is       16.6 secs

     total energy              =     -24.09582748 Ry
     estimated scf accuracy    <          1.2E-09 Ry

     iteration #  7     ecut=   100.00 Ry     beta= 0.70
     Davidson diagonalization with overlap
     ethr =  1.50E-11,  avg # of iterations =  3.3

     total cpu time spent up to now is       18.8 secs

     End of self-consistent calculation

          k = 0.0000 0.0000 0.0000 (  9073 PWs)   bands (ev):

   -23.7786 -11.8677  -7.3017  -7.3017  -0.9488  -0.0453   1.7545   2.6643

          k = 0.0000 0.0428 0.0000 (  9059 PWs)   bands (ev):

   -23.7463 -11.8289  -7.4359  -7.3727  -0.9049  -0.0010   1.7986   2.7082

          k = 0.0000 0.0855 0.0000 (  9059 PWs)   bands (ev):

   -23.6492 -11.7127  -7.8220  -7.5738  -0.7732   0.1320   1.9311   2.8399

          k = 0.0000 0.1283 0.0000 (  9041 PWs)   bands (ev):

   -23.4877 -11.5196  -8.4180  -7.8752  -0.5536   0.3534   2.1519   3.0591

          k = 0.0000 0.1711 0.0000 (  9047 PWs)   bands (ev):

   -23.2621 -11.2507  -9.1723  -8.2406  -0.2462   0.6628   2.4608   3.3649

          k = 0.0000 0.2138 0.0000 (  9035 PWs)   bands (ev):

   -22.9729 -10.9077 -10.0361  -8.6357   0.1489   1.0595   2.8568   3.7521

          k = 0.0000 0.2566 0.0000 (  9029 PWs)   bands (ev):

   -22.6207 -10.9687 -10.4931  -9.0331   0.6311   1.5406   3.3339   3.7282

          k = 0.0000 0.2994 0.0000 (  9019 PWs)   bands (ev):

   -22.2066 -11.9386 -10.0106  -9.4117   1.2001   2.0796   2.7899   3.7514

          k = 0.0000 0.3421 0.0000 (  9007 PWs)   bands (ev):

   -21.7318 -12.9217  -9.7565  -9.4662   1.6843   1.8544   2.8223   3.6670

          k = 0.0000 0.3849 0.0000 (  9017 PWs)   bands (ev):

   -21.1982 -13.8991 -10.0565  -8.8693   0.6725   2.5896   3.5403   3.5509

          k = 0.0000 0.4277 0.0000 (  9009 PWs)   bands (ev):

   -20.6089 -14.8558 -10.3040  -8.2366  -0.3238   3.2970   3.5402   4.3776

          k = 0.0000 0.4704 0.0000 (  9001 PWs)   bands (ev):

   -19.9697 -15.7773 -10.4937  -7.6007  -1.2461   3.2944   4.3572   5.2885

          k = 0.0000 0.5132 0.0000 (  8988 PWs)   bands (ev):

   -19.2970 -16.6413 -10.6220  -7.0292  -2.0146   3.2346   5.3410   6.2770

          k = 0.0000 0.5560 0.0000 (  8976 PWs)   bands (ev):

   -18.6769 -17.3579 -10.6867  -6.6582  -2.4858   3.2024   6.4024   7.3283

          k = 0.0370 0.0642 0.0000 (  9067 PWs)   bands (ev):

   -23.6816 -11.7514  -7.6902  -7.5146  -0.8171   0.0877   1.8869   2.7961

          k = 0.0370 0.1069 0.0000 (  9045 PWs)   bands (ev):

   -23.5523 -11.5967  -8.1673  -7.7800  -0.6414   0.2649   2.0636   2.9716

          k = 0.0370 0.1497 0.0000 (  9043 PWs)   bands (ev):

   -23.3587 -11.3657  -8.8273  -8.1289  -0.3778   0.5303   2.3287   3.2343

          k = 0.0370 0.1925 0.0000 (  9055 PWs)   bands (ev):

   -23.1013 -11.0597  -9.6232  -8.5226  -0.0266   0.8835   2.6816   3.5824

          k = 0.0370 0.2352 0.0000 (  9032 PWs)   bands (ev):

   -22.7806 -10.6807 -10.5113  -8.9292   0.4122   1.3231   3.1207   3.9759

          k = 0.0370 0.2780 0.0000 (  9027 PWs)   bands (ev):

   -22.3975 -11.4552 -10.2319  -9.3248   0.9380   1.8421   3.2201   3.6316

          k = 0.0370 0.3208 0.0000 (  9011 PWs)   bands (ev):

   -21.9530 -12.4265  -9.7179  -9.6917   1.5500   2.1162   2.5643   3.8654

          k = 0.0370 0.3635 0.0000 (  9040 PWs)   bands (ev):

   -21.4488 -13.4032 -10.0177  -9.1459   1.1599   2.2464   3.2007   3.7456

          k = 0.0370 0.4063 0.0000 (  9010 PWs)   bands (ev):

   -20.8872 -14.3680 -10.2938  -8.5285   0.1530   3.0171   3.6324   3.9823

          k = 0.0370 0.4491 0.0000 (  8999 PWs)   bands (ev):

   -20.2722 -15.3061 -10.5139  -7.8886  -0.8092   3.4680   3.9419   4.8509

          k = 0.0370 0.4918 0.0000 (  8984 PWs)   bands (ev):

   -19.6133 -16.2008 -10.6739  -7.2724  -1.6649   3.4083   4.8704   5.7992

          k = 0.0370 0.5346 0.0000 (  8971 PWs)   bands (ev):

   -18.9442 -17.0131 -10.7709  -6.7780  -2.3065   3.3615   5.8942   6.8179

          k = 0.0370 0.5774 0.0000 (  8970 PWs)   bands (ev):

   -18.5206 -17.4848 -10.8034  -6.5757  -2.5585   3.3452   6.9195   7.0713

          k = 0.0741 0.1283 0.0000 (  9023 PWs)   bands (ev):

   -23.3910 -11.4041  -8.6834  -8.1180  -0.4217   0.4861   2.2847   3.1906

          k = 0.0741 0.1711 0.0000 (  9048 PWs)   bands (ev):

   -23.1656 -11.1359  -9.3496  -8.5312  -0.1142   0.7955   2.5943   3.4965

          k = 0.0741 0.2138 0.0000 (  9039 PWs)   bands (ev):

   -22.8767 -10.7937 -10.1387  -8.9681   0.2810   1.1921   2.9915   3.8844

          k = 0.0741 0.2566 0.0000 (  9032 PWs)   bands (ev):

   -22.5251 -11.0153 -10.3802  -9.3963   0.7634   1.6735   3.4744   3.5534

          k = 0.0741 0.2994 0.0000 (  9032 PWs)   bands (ev):

   -22.1116 -11.9450  -9.8989  -9.7960   1.3326   2.2046   2.6464   4.0259

          k = 0.0741 0.3421 0.0000 (  9032 PWs)   bands (ev):

   -21.6376 -12.8995 -10.1547  -9.3557   1.5871   1.9877   2.9325   4.2159

          k = 0.0741 0.3849 0.0000 (  9024 PWs)   bands (ev):

   -21.1051 -13.8567 -10.4637  -8.7597   0.5950   2.7262   3.6678   4.1013

          k = 0.0741 0.4277 0.0000 (  9010 PWs)   bands (ev):

   -20.5172 -14.7990 -10.7169  -8.1275  -0.3797   3.5333   4.0044   4.4918

          k = 0.0741 0.4704 0.0000 (  8991 PWs)   bands (ev):

   -19.8799 -15.7100 -10.9101  -7.4906  -1.2865   3.8593   4.4923   5.3954

          k = 0.0741 0.5132 0.0000 (  8981 PWs)   bands (ev):

   -19.2096 -16.5662 -11.0404  -6.9159  -2.0471   3.8057   5.4673   6.3694

          k = 0.0741 0.5560 0.0000 (  8966 PWs)   bands (ev):

   -18.5927 -17.2772 -11.1059  -6.5404  -2.5173   3.7740   6.5230   7.3828

          k = 0.1111 0.1925 0.0000 (  9037 PWs)   bands (ev):

   -22.9088 -10.8315  -9.9766  -9.0203   0.2373   1.1483   2.9484   3.8452

          k = 0.1111 0.2352 0.0000 (  9047 PWs)   bands (ev):

   -22.5889 -10.7104 -10.4546  -9.5228   0.6762   1.5880   3.3904   3.7393

          k = 0.1111 0.2780 0.0000 (  9040 PWs)   bands (ev):

   -22.2069 -11.5374 -10.0081  -9.9908   1.2022   2.1084   2.8705   3.9185

          k = 0.1111 0.3208 0.0000 (  9024 PWs)   bands (ev):

   -21.7639 -12.4271 -10.4058  -9.4965   1.8146   1.9176   2.7448   4.5187

          k = 0.1111 0.3635 0.0000 (  9008 PWs)   bands (ev):

   -21.2616 -13.3479 -10.7620  -8.9270   0.9656   2.5123   3.4359   4.7959

          k = 0.1111 0.4063 0.0000 (  8992 PWs)   bands (ev):

   -20.7024 -14.2741 -11.0569  -8.3113   0.0077   3.2929   4.2144   4.6965

          k = 0.1111 0.4491 0.0000 (  8995 PWs)   bands (ev):

   -20.0908 -15.1852 -11.2885  -7.6712  -0.9151   4.1425   4.6103   5.0705

          k = 0.1111 0.4918 0.0000 (  8993 PWs)   bands (ev):

   -19.4362 -16.0606 -11.4552  -7.0509  -1.7462   4.4864   5.1320   5.9933

          k = 0.1111 0.5346 0.0000 (  8971 PWs)   bands (ev):

   -18.7727 -16.8590 -11.5556  -6.5475  -2.3797   4.4462   6.1414   6.9538

          k = 0.1111 0.5774 0.0000 (  8986 PWs)   bands (ev):

   -18.3543 -17.3228 -11.5892  -6.3387  -2.6324   4.4304   7.1441   7.3123

          k = 0.1481 0.2566 0.0000 (  9031 PWs)   bands (ev):

   -22.2387 -11.3537 -10.1063 -10.0445   1.1587   2.0702   2.9569   3.8772

          k = 0.1481 0.2994 0.0000 (  9027 PWs)   bands (ev):

   -21.8272 -12.0876 -10.6427  -9.5673   1.7278   2.1077   2.6403   4.4503

          k = 0.1481 0.3421 0.0000 (  9023 PWs)   bands (ev):

   -21.3557 -12.9039 -11.0952  -9.0282   1.2188   2.3828   3.2911   5.1021

          k = 0.1481 0.3849 0.0000 (  9003 PWs)   bands (ev):

   -20.8266 -13.7700 -11.4613  -8.4360   0.3086   3.1224   4.0231   5.5534

          k = 0.1481 0.4277 0.0000 (  8994 PWs)   bands (ev):

   -20.2430 -14.6523 -11.7482  -7.8056  -0.5944   3.9439   4.8291   5.4791

          k = 0.1481 0.4704 0.0000 (  8993 PWs)   bands (ev):

   -19.6114 -15.5229 -11.9609  -7.1660  -1.4498   4.8370   5.4008   5.6958

          k = 0.1481 0.5132 0.0000 (  8979 PWs)   bands (ev):

   -18.9487 -16.3515 -12.1018  -6.5805  -2.1849   5.2984   5.8518   6.5868

          k = 0.1481 0.5560 0.0000 (  8985 PWs)   bands (ev):

   -18.3408 -17.0440 -12.1720  -6.1889  -2.6530   5.2746   6.8807   7.3580

          k = 0.1852 0.3208 0.0000 (  9019 PWs)   bands (ev):

   -21.3872 -12.6971 -11.2677  -9.0621   1.3099   2.3396   3.2412   5.0685

          k = 0.1852 0.3635 0.0000 (  8997 PWs)   bands (ev):

   -20.8888 -13.3960 -11.7930  -8.4989   0.4757   3.0363   3.9243   5.7679

          k = 0.1852 0.4063 0.0000 (  9001 PWs)   bands (ev):

   -20.3350 -14.1750 -12.1948  -7.8883  -0.3730   3.8162   4.6785   6.4131

          k = 0.1852 0.4491 0.0000 (  8980 PWs)   bands (ev):

   -19.7302 -14.9941 -12.4868  -7.2490  -1.2090   4.6758   5.4854   6.3907

          k = 0.1852 0.4918 0.0000 (  8979 PWs)   bands (ev):

   -19.0846 -15.8116 -12.6860  -6.6200  -1.9854   5.6056   6.2967   6.3209

          k = 0.1852 0.5346 0.0000 (  8973 PWs)   bands (ev):

   -18.4325 -16.5736 -12.8025  -6.0937  -2.6032   6.2322   6.6427   6.9713

          k = 0.1852 0.5774 0.0000 (  8962 PWs)   bands (ev):

   -18.0222 -17.0215 -12.8408  -5.8669  -2.8611   6.2278   7.5726   7.7833

          k = 0.2222 0.3849 0.0000 (  9023 PWs)   bands (ev):

   -20.3657 -13.9457 -12.4161  -7.9162  -0.2933   3.7732   4.6270   6.5124

          k = 0.2222 0.4277 0.0000 (  9003 PWs)   bands (ev):

   -19.7901 -14.5902 -12.8949  -7.2922  -1.0727   4.5908   5.3749   7.2783

          k = 0.2222 0.4704 0.0000 (  8979 PWs)   bands (ev):

   -19.1690 -15.3131 -13.2191  -6.6502  -1.8361   5.4835   6.1053   7.3609

          k = 0.2222 0.5132 0.0000 (  8959 PWs)   bands (ev):

   -18.5195 -16.0562 -13.4162  -6.0430  -2.5272   6.4377   6.6621   7.2978

          k = 0.2222 0.5560 0.0000 (  8971 PWs)   bands (ev):

   -17.9243 -16.7053 -13.5096  -5.6107  -3.0024   6.9005   7.2058   7.4826

          k = 0.2593 0.4491 0.0000 (  8989 PWs)   bands (ev):

   -19.1975 -15.0669 -13.4781  -6.6614  -1.7806   5.4412   6.0375   8.0161

          k = 0.2593 0.4918 0.0000 (  8956 PWs)   bands (ev):

   -18.5678 -15.6433 -13.8771  -6.0223  -2.4733   6.3567   6.4896   8.2778

          k = 0.2593 0.5346 0.0000 (  8945 PWs)   bands (ev):

   -17.9330 -16.2740 -14.0929  -5.4461  -3.0813   6.6349   7.3089   8.2073

          k = 0.2593 0.5774 0.0000 (  8956 PWs)   bands (ev):

   -17.5249 -16.6864 -14.1600  -5.1649  -3.3731   6.6504   8.0850   8.1432

          k = 0.2963 0.5132 0.0000 (  8958 PWs)   bands (ev):

   -17.9438 -16.0430 -14.3681  -5.3895  -3.1061   6.5379   7.2704   8.7814

          k = 0.2963 0.5560 0.0000 (  8951 PWs)   bands (ev):

   -17.3593 -16.5139 -14.6174  -4.8415  -3.6523   6.4845   8.1418   8.6934

          k = 0.3333 0.5774 0.0000 (  8946 PWs)   bands (ev):

   -16.8642 -16.8642 -14.8269  -4.2405  -4.2405   6.4179   8.6577   8.6578

     the Fermi energy is    -4.2405 ev

!    total energy              =     -24.09582748 Ry
     estimated scf accuracy    <          1.6E-11 Ry
     smearing contrib. (-TS)   =      -0.00003096 Ry
     internal energy E=F+TS    =     -24.09579653 Ry

     The total energy is F=E-TS. E is the sum of the following terms:
     one-electron contribution =    -256.46880177 Ry
     hartree contribution      =     128.98701477 Ry
     xc contribution           =      -8.57813745 Ry
     ewald contribution        =     111.96412791 Ry

     convergence has been achieved in   7 iterations

     Forces acting on atoms (cartesian axes, Ry/au):

     atom    1 type  1   force =     0.00000000    0.00000000    0.00000000
     atom    2 type  1   force =     0.00000000   -0.00000000    0.00000000

     Total force =     0.000000     Total SCF correction =     0.000000


     Computing stress (Cartesian axis) and pressure

          total   stress  (Ry/bohr**3)                   (kbar)     P=        0.07
   0.00000073  -0.00000000   0.00000000            0.11       -0.00        0.00
  -0.00000000   0.00000073  -0.00000000           -0.00        0.11       -0.00
   0.00000000  -0.00000000  -0.00000002            0.00       -0.00       -0.00


     Writing all to output data dir ./tmp/graphene.save/ :
     XML data file, charge density, pseudopotentials, collected wavefunctions

     init_run     :      0.78s CPU      0.81s WALL (       1 calls)
     electrons    :     16.38s CPU     17.93s WALL (       1 calls)
     forces       :      0.14s CPU      0.13s WALL (       1 calls)
     stress       :      0.55s CPU      0.52s WALL (       1 calls)

     Called by init_run:
     wfcinit      :      0.62s CPU      0.64s WALL (       1 calls)
     potinit      :      0.02s CPU      0.03s WALL (       1 calls)
     hinit0       :      0.02s CPU      0.02s WALL (       1 calls)

     Called by electrons:
     c_bands      :     14.39s CPU     15.80s WALL (       7 calls)
     sum_band     :      1.86s CPU      1.96s WALL (       7 calls)
     v_of_rho     :      0.13s CPU      0.15s WALL (       8 calls)
     mix_rho      :      0.02s CPU      0.03s WALL (       7 calls)

     Called by c_bands:
     init_us_2    :      0.36s CPU      0.38s WALL (    1275 calls)
     cegterg      :     13.96s CPU     15.34s WALL (     525 calls)

     Called by *egterg:
     cdiaghg      :      0.18s CPU      0.19s WALL (    3147 calls)
     h_psi        :     12.26s CPU     12.65s WALL (    3222 calls)
     g_psi        :      0.05s CPU      0.06s WALL (    2622 calls)

     Called by h_psi:
     h_psi:calbec :      0.78s CPU      0.80s WALL (    3222 calls)
     vloc_psi     :     10.96s CPU     11.32s WALL (    3222 calls)
     add_vuspsi   :      0.44s CPU      0.45s WALL (    3222 calls)

     General routines
     calbec       :      1.15s CPU      1.14s WALL (    4497 calls)
     fft          :      0.10s CPU      0.12s WALL (     104 calls)
     ffts         :      0.01s CPU      0.01s WALL (       7 calls)
     fftw         :     11.20s CPU     11.59s WALL (   32798 calls)
     davcio       :      0.14s CPU      0.15s WALL (    1927 calls)

     Parallel routines

     PWSCF        :     17.88s CPU     19.52s WALL


   This run was terminated on:  13:48:34  18Feb2026            

=------------------------------------------------------------------------------=
   JOB DONE.
=------------------------------------------------------------------------------=
