
                                 *****************
                                 * O   R   C   A *
                                 *****************

                                            #,                                       
                                            ###                                      
                                            ####                                     
                                            #####                                    
                                            ######                                   
                                           ########,                                 
                                     ,,################,,,,,                         
                               ,,#################################,,                 
                          ,,##########################################,,             
                       ,#########################################, ''#####,          
                    ,#############################################,,   '####,        
                  ,##################################################,,,,####,       
                ,###########''''           ''''###############################       
              ,#####''   ,,,,##########,,,,          '''####'''          '####       
            ,##' ,,,,###########################,,,                        '##       
           ' ,,###''''                  '''############,,,                           
         ,,##''                                '''############,,,,        ,,,,,,###''
      ,#''                                            '''#######################'''  
     '                                                          ''''####''''         
             ,#######,   #######,   ,#######,      ##                                
            ,#'     '#,  ##    ##  ,#'     '#,    #''#        ######   ,####,        
            ##       ##  ##   ,#'  ##            #'  '#       #        #'  '#        
            ##       ##  #######   ##           ,######,      #####,   #    #        
            '#,     ,#'  ##    ##  '#,     ,#' ,#      #,         ##   #,  ,#        
             '#######'   ##     ##  '#######'  #'      '#     #####' # '####'        



                  #######################################################
                  #                        -***-                        #
                  #          Department of theory and spectroscopy      #
                  #    Directorship and core code : Frank Neese         #
                  #        Max Planck Institute fuer Kohlenforschung    #
                  #                Kaiser Wilhelm Platz 1               #
                  #                 D-45470 Muelheim/Ruhr               #
                  #                      Germany                        #
                  #                                                     #
                  #                  All rights reserved                #
                  #                        -***-                        #
                  #######################################################


                         Program Version 5.0.2 -  RELEASE  -


 With contributions from (in alphabetic order):
   Daniel Aravena         : Magnetic Suceptibility
   Michael Atanasov       : Ab Initio Ligand Field Theory (pilot matlab implementation)
   Alexander A. Auer      : GIAO ZORA, VPT2 properties, NMR spectrum
   Ute Becker             : Parallelization
   Giovanni Bistoni       : ED, misc. LED, open-shell LED, HFLD
   Martin Brehm           : Molecular dynamics
   Dmytro Bykov           : SCF Hessian
   Vijay G. Chilkuri      : MRCI spin determinant printing, contributions to CSF-ICE
   Dipayan Datta          : RHF DLPNO-CCSD density
   Achintya Kumar Dutta   : EOM-CC, STEOM-CC
   Dmitry Ganyushin       : Spin-Orbit,Spin-Spin,Magnetic field MRCI
   Miquel Garcia          : C-PCM and meta-GGA Hessian, CC/C-PCM, Gaussian charge scheme
   Yang Guo               : DLPNO-NEVPT2, F12-NEVPT2, CIM, IAO-localization
   Andreas Hansen         : Spin unrestricted coupled pair/coupled cluster methods
   Benjamin Helmich-Paris : MC-RPA, TRAH-SCF, COSX integrals
   Lee Huntington         : MR-EOM, pCC
   Robert Izsak           : Overlap fitted RIJCOSX, COSX-SCS-MP3, EOM
   Marcus Kettner         : VPT2
   Christian Kollmar      : KDIIS, OOCD, Brueckner-CCSD(T), CCSD density, CASPT2, CASPT2-K
   Simone Kossmann        : Meta GGA functionals, TD-DFT gradient, OOMP2, MP2 Hessian
   Martin Krupicka        : Initial AUTO-CI
   Lucas Lang             : DCDCAS
   Marvin Lechner         : AUTO-CI (C++ implementation), FIC-MRCC
   Dagmar Lenk            : GEPOL surface, SMD
   Dimitrios Liakos       : Extrapolation schemes; Compound Job, initial MDCI parallelization
   Dimitrios Manganas     : Further ROCIS development; embedding schemes
   Dimitrios Pantazis     : SARC Basis sets
   Anastasios Papadopoulos: AUTO-CI, single reference methods and gradients
   Taras Petrenko         : DFT Hessian,TD-DFT gradient, ASA, ECA, R-Raman, ABS, FL, XAS/XES, NRVS
   Peter Pinski           : DLPNO-MP2, DLPNO-MP2 Gradient
   Christoph Reimann      : Effective Core Potentials
   Marius Retegan         : Local ZFS, SOC
   Christoph Riplinger    : Optimizer, TS searches, QM/MM, DLPNO-CCSD(T), (RO)-DLPNO pert. Triples
   Tobias Risthaus        : Range-separated hybrids, TD-DFT gradient, RPA, STAB
   Michael Roemelt        : Original ROCIS implementation
   Masaaki Saitow         : Open-shell DLPNO-CCSD energy and density
   Barbara Sandhoefer     : DKH picture change effects
   Avijit Sen             : IP-ROCIS
   Kantharuban Sivalingam : CASSCF convergence, NEVPT2, FIC-MRCI
   Bernardo de Souza      : ESD, SOC TD-DFT
   Georgi Stoychev        : AutoAux, RI-MP2 NMR, DLPNO-MP2 response
   Willem Van den Heuvel  : Paramagnetic NMR
   Boris Wezisla          : Elementary symmetry handling
   Frank Wennmohs         : Technical directorship


 We gratefully acknowledge several colleagues who have allowed us to
 interface, adapt or use parts of their codes:
   Stefan Grimme, W. Hujo, H. Kruse, P. Pracht,  : VdW corrections, initial TS optimization,
                  C. Bannwarth, S. Ehlert          DFT functionals, gCP, sTDA/sTD-DF
   Ed Valeev, F. Pavosevic, A. Kumar             : LibInt (2-el integral package), F12 methods
   Garnet Chan, S. Sharma, J. Yang, R. Olivares  : DMRG
   Ulf Ekstrom                                   : XCFun DFT Library
   Mihaly Kallay                                 : mrcc  (arbitrary order and MRCC methods)
   Jiri Pittner, Ondrej Demel                    : Mk-CCSD
   Frank Weinhold                                : gennbo (NPA and NBO analysis)
   Christopher J. Cramer and Donald G. Truhlar   : smd solvation model
   Lars Goerigk                                  : TD-DFT with DH, B97 family of functionals
   V. Asgeirsson, H. Jonsson                     : NEB implementation
   FAccTs GmbH                                   : IRC, NEB, NEB-TS, DLPNO-Multilevel, CI-OPT
                                                   MM, QMMM, 2- and 3-layer-ONIOM, Crystal-QMMM,
                                                   LR-CPCM, SF, NACMEs, symmetry and pop. for TD-DFT,
                                                   nearIR, NL-DFT gradient (VV10), updates on ESD,
                                                   ML-optimized integration grids
   S Lehtola, MJT Oliveira, MAL Marques          : LibXC Library
   Liviu Ungur et al                             : ANISO software


 Your calculation uses the libint2 library for the computation of 2-el integrals
 For citations please refer to: http://libint.valeyev.net

 Your ORCA version has been built with support for libXC version: 5.1.0
 For citations please refer to: https://tddft.org/programs/libxc/

 This ORCA versions uses:
   CBLAS   interface :  Fast vector & matrix operations
   LAPACKE interface :  Fast linear algebra routines
   SCALAPACK package :  Parallel linear algebra routines
   Shared memory     :  Shared parallel matrices
   BLAS/LAPACK       :  OpenBLAS 0.3.15  USE64BITINT DYNAMIC_ARCH NO_AFFINITY Nehalem SINGLE_THREADED
        Core in use  :  Nehalem
   Copyright (c) 2011-2014, The OpenBLAS Project




***************************************
The coordinates will be read from file: MA.adf_geom.xyz
***************************************


================================================================================

----- Orbital basis set information -----
Your calculation utilizes the basis: def2-TZVP
   F. Weigend and R. Ahlrichs, Phys. Chem. Chem. Phys. 7, 3297 (2005).

----- AuxJ basis set information -----
Your calculation utilizes the auxiliary basis: def2/J
   F. Weigend, Phys. Chem. Chem. Phys. 8, 1057 (2006).

================================================================================
                                        WARNINGS
                       Please study these warnings very carefully!
================================================================================

INFO   : Checking CIS options ...

WARNING: CIS/ROCIS methods need fully converged wavefunctions
  ===> : Setting SCFConvForced true
         You can overwrite this default with %scf ConvForced false 


INFO   : the flag for use of the SHARK integral package has been found!

================================================================================
                                       INPUT FILE
================================================================================
NAME = MA.tddft.inp
|  1> !PAL8
|  2> !B3LYP DEF2-TZVP CPCM(WATER)
|  3> %TDDFT
|  4>    NROOTS   30
|  5> END
|  6> * XYZfile 0 1 MA.adf_geom.xyz
|  7> 
|  8>                          ****END OF INPUT****
================================================================================

                       ****************************
                       * Single Point Calculation *
                       ****************************

---------------------------------
CARTESIAN COORDINATES (ANGSTROEM)
---------------------------------
  O     -2.875699    0.557483   -0.398239
  O      0.986773    1.613535   -0.258985
  O     -1.481574    0.303679    1.329880
  O      2.539173    0.290055    0.648822
  C     -0.772184   -0.387862   -0.874299
  C      0.586061   -0.705153   -0.326254
  C     -1.712801    0.188671    0.148962
  C      1.476104    0.414984    0.079740
  C      1.047377   -1.941355   -0.211517
  H     -0.715801    0.313954   -1.706116
  H     -1.238526   -1.292480   -1.263485
  H      0.447437   -2.791448   -0.504859
  H      2.040118   -2.126682    0.172421
  H     -3.448682    0.900998    0.308986
  H      1.619522    2.290421    0.036745

----------------------------
CARTESIAN COORDINATES (A.U.)
----------------------------
  NO LB      ZA    FRAG     MASS         X           Y           Z
   0 O     8.0000    0    15.999   -5.434284    1.053490   -0.752563
   1 O     8.0000    0    15.999    1.864732    3.049140   -0.489411
   2 O     8.0000    0    15.999   -2.799769    0.573869    2.513108
   3 O     8.0000    0    15.999    4.798342    0.548125    1.226095
   4 C     6.0000    0    12.011   -1.459217   -0.732953   -1.652187
   5 C     6.0000    0    12.011    1.107495   -1.332547   -0.616531
   6 C     6.0000    0    12.011   -3.236724    0.356537    0.281498
   7 C     6.0000    0    12.011    2.789433    0.784207    0.150688
   8 C     6.0000    0    12.011    1.979256   -3.668629   -0.399709
   9 H     1.0000    0     1.008   -1.352667    0.593288   -3.224093
  10 H     1.0000    0     1.008   -2.340476   -2.442433   -2.387641
  11 H     1.0000    0     1.008    0.845534   -5.275073   -0.954046
  12 H     1.0000    0     1.008    3.855265   -4.018847    0.325829
  13 H     1.0000    0     1.008   -6.517064    1.702639    0.583898
  14 H     1.0000    0     1.008    3.060453    4.328269    0.069438

--------------------------------
INTERNAL COORDINATES (ANGSTROEM)
--------------------------------
 O      0   0   0     0.000000000000     0.00000000     0.00000000
 O      1   0   0     4.006661293734     0.00000000     0.00000000
 O      1   2   0     2.234814876515    53.25078270     0.00000000
 O      2   1   3     2.232858782208   121.87949428    42.77579040
 C      1   2   3     2.354800798671    41.55653182   269.87027635
 C      5   1   2     1.498618765729   145.15290652    55.16608459
 C      3   1   2     1.208825356766    30.23808268   312.66804929
 C      4   2   1     1.212260856201    30.49995795    28.29988926
 C      6   5   1     1.324451115417   123.02314150   117.48154705
 H      5   1   2     1.089791327051    86.67457067   290.92291646
 H      5   1   2     1.089620668185    91.32864489   184.46107609
 H      9   6   5     1.081035062859   121.14236306   359.35052792
 H      9   6   5     1.080411940250   120.72604028   178.88773126
 H      1   2   3     0.972871051317   116.70733545    53.72258577
 H      2   1   3     0.972626048380   145.19943959   278.88232500

---------------------------
INTERNAL COORDINATES (A.U.)
---------------------------
 O      0   0   0     0.000000000000     0.00000000     0.00000000
 O      1   0   0     7.571492556540     0.00000000     0.00000000
 O      1   2   0     4.223188076627    53.25078270     0.00000000
 O      2   1   3     4.219491594094   121.87949428    42.77579040
 C      1   2   3     4.449928609427    41.55653182   269.87027635
 C      5   1   2     2.831979046382   145.15290652    55.16608459
 C      3   1   2     2.284348868027    30.23808268   312.66804929
 C      4   2   1     2.290841021092    30.49995795    28.29988926
 C      6   5   1     2.502849885905   123.02314150   117.48154705
 H      5   1   2     2.059407151250    86.67457067   290.92291646
 H      5   1   2     2.059084652730    91.32864489   184.46107609
 H      9   6   5     2.042860209971   121.14236306   359.35052792
 H      9   6   5     2.041682678892   120.72604028   178.88773126
 H      1   2   3     1.838459850609   116.70733545    53.72258577
 H      2   1   3     1.837996862156   145.19943959   278.88232500

---------------------
BASIS SET INFORMATION
---------------------
There are 3 groups of distinct atoms

 Group   1 Type O   : 11s6p2d1f contracted to 5s3p2d1f pattern {62111/411/11/1}
 Group   2 Type C   : 11s6p2d1f contracted to 5s3p2d1f pattern {62111/411/11/1}
 Group   3 Type H   : 5s1p contracted to 3s1p pattern {311/1}

Atom   0O    basis set group =>   1
Atom   1O    basis set group =>   1
Atom   2O    basis set group =>   1
Atom   3O    basis set group =>   1
Atom   4C    basis set group =>   2
Atom   5C    basis set group =>   2
Atom   6C    basis set group =>   2
Atom   7C    basis set group =>   2
Atom   8C    basis set group =>   2
Atom   9H    basis set group =>   3
Atom  10H    basis set group =>   3
Atom  11H    basis set group =>   3
Atom  12H    basis set group =>   3
Atom  13H    basis set group =>   3
Atom  14H    basis set group =>   3
---------------------------------
AUXILIARY/J BASIS SET INFORMATION
---------------------------------
There are 3 groups of distinct atoms

 Group   1 Type O   : 12s5p4d2f1g contracted to 6s4p3d1f1g pattern {711111/2111/211/2/1}
 Group   2 Type C   : 12s5p4d2f1g contracted to 6s4p3d1f1g pattern {711111/2111/211/2/1}
 Group   3 Type H   : 5s2p1d contracted to 3s1p1d pattern {311/2/1}

Atom   0O    basis set group =>   1
Atom   1O    basis set group =>   1
Atom   2O    basis set group =>   1
Atom   3O    basis set group =>   1
Atom   4C    basis set group =>   2
Atom   5C    basis set group =>   2
Atom   6C    basis set group =>   2
Atom   7C    basis set group =>   2
Atom   8C    basis set group =>   2
Atom   9H    basis set group =>   3
Atom  10H    basis set group =>   3
Atom  11H    basis set group =>   3
Atom  12H    basis set group =>   3
Atom  13H    basis set group =>   3
Atom  14H    basis set group =>   3


           ************************************************************
           *        Program running with 8 parallel MPI-processes     *
           *              working on a common directory               *
           ************************************************************
------------------------------------------------------------------------------
                           ORCA GTO INTEGRAL CALCULATION
                           -- RI-GTO INTEGRALS CHOSEN --
------------------------------------------------------------------------------
------------------------------------------------------------------------------
                   ___                                                        
                  /   \      - P O W E R E D   B Y -                         
                 /     \                                                     
                 |  |  |   _    _      __       _____    __    __             
                 |  |  |  | |  | |    /  \     |  _  \  |  |  /  |          
                  \  \/   | |  | |   /    \    | | | |  |  | /  /          
                 / \  \   | |__| |  /  /\  \   | |_| |  |  |/  /          
                |  |  |   |  __  | /  /__\  \  |    /   |      \           
                |  |  |   | |  | | |   __   |  |    \   |  |\   \          
                \     /   | |  | | |  |  |  |  | |\  \  |  | \   \       
                 \___/    |_|  |_| |__|  |__|  |_| \__\ |__|  \__/        
                                                                              
                      - O R C A' S   B I G   F R I E N D -                    
                                      &                                       
                       - I N T E G R A L  F E E D E R -                       
                                                                              
 v1 FN, 2020, v2 2021                                                         
------------------------------------------------------------------------------


Reading SHARK input file MA.tddft.SHARKINP.tmp ... ok
----------------------
SHARK INTEGRAL PACKAGE
----------------------

Number of atoms                             ...     15
Number of basis functions                   ...    315
Number of shells                            ...    123
Maximum angular momentum                    ...      3
Integral batch strategy                     ... SHARK/LIBINT Hybrid
RI-J (if used) integral strategy            ... SPLIT-RIJ (Revised 2003 algorithm where possible)
Printlevel                                  ...      1
Contraction scheme used                     ... SEGMENTED contraction
Coulomb Range Separation                    ... NOT USED
Exchange Range Separation                   ... NOT USED
Finite Nucleus Model                        ... NOT USED
Auxiliary Coulomb fitting basis             ... AVAILABLE
   # of basis functions in Aux-J            ...    507
   # of shells in Aux-J                     ...    165
   Maximum angular momentum in Aux-J        ...      4
Auxiliary J/K fitting basis                 ... NOT available
Auxiliary Correlation fitting basis         ... NOT available
Auxiliary 'external' fitting basis          ... NOT available
Integral threshold                          ...     1.000000e-10
Primitive cut-off                           ...     1.000000e-11
Primitive pair pre-selection threshold      ...     1.000000e-11

Calculating pre-screening integrals         ... done (  0.1 sec) Dimension = 123
Organizing shell pair data                  ... done (  0.1 sec)
Shell pair information
Total number of shell pairs                 ...      7626
Shell pairs after pre-screening             ...      6730
Total number of primitive shell pairs       ...     23652
Primitive shell pairs kept                  ...     15228
          la=0 lb=0:   1691 shell pairs
          la=1 lb=0:   1873 shell pairs
          la=1 lb=1:    532 shell pairs
          la=2 lb=0:    985 shell pairs
          la=2 lb=1:    549 shell pairs
          la=2 lb=2:    157 shell pairs
          la=3 lb=0:    481 shell pairs
          la=3 lb=1:    273 shell pairs
          la=3 lb=2:    148 shell pairs
          la=3 lb=3:     41 shell pairs

Calculating one electron integrals          ... done (  0.0 sec)
Calculating RI/J V-Matrix + Cholesky decomp.... done (  0.0 sec)
Calculating Nuclear repulsion               ... done (  0.0 sec) ENN=    447.203036326243 Eh

SHARK setup successfully completed in   0.4 seconds

Maximum memory used throughout the entire GTOINT-calculation: 20.1 MB


           ************************************************************
           *        Program running with 8 parallel MPI-processes     *
           *              working on a common directory               *
           ************************************************************
-------------------------------------------------------------------------------
                                 ORCA SCF
-------------------------------------------------------------------------------

------------
SCF SETTINGS
------------
Hamiltonian:
 Density Functional     Method          .... DFT(GTOs)
 Exchange Functional    Exchange        .... B88
   X-Alpha parameter    XAlpha          ....  0.666667
   Becke's b parameter  XBeta           ....  0.004200
 Correlation Functional Correlation     .... LYP
 LDA part of GGA corr.  LDAOpt          .... VWN-5
 Gradients option       PostSCFGGA      .... off
 Hybrid DFT is turned on
   Fraction HF Exchange ScalHFX         ....  0.200000
   Scaling of DF-GGA-X  ScalDFX         ....  0.720000
   Scaling of DF-GGA-C  ScalDFC         ....  0.810000
   Scaling of DF-LDA-C  ScalLDAC        ....  1.000000
   Perturbative correction              ....  0.000000
   Density functional embedding theory  .... OFF
   NL short-range parameter             ....  4.800000
 RI-approximation to the Coulomb term is turned on
   Number of AuxJ basis functions       .... 507
   RIJ-COSX (HFX calculated with COS-X)).... on


General Settings:
 Integral files         IntName         .... MA.tddft
 Hartree-Fock type      HFTyp           .... RHF
 Total Charge           Charge          ....    0
 Multiplicity           Mult            ....    1
 Number of Electrons    NEL             ....   68
 Basis Dimension        Dim             ....  315
 Nuclear Repulsion      ENuc            ....    447.2030363262 Eh

Convergence Acceleration:
 DIIS                   CNVDIIS         .... on
   Start iteration      DIISMaxIt       ....    12
   Startup error        DIISStart       ....  0.200000
   # of expansion vecs  DIISMaxEq       ....     5
   Bias factor          DIISBfac        ....   1.050
   Max. coefficient     DIISMaxC        ....  10.000
 Trust-Rad. Augm. Hess. CNVTRAH         .... auto
   Auto Start mean grad. ratio tolernc. ....  1.125000
   Auto Start start iteration           ....    20
   Auto Start num. interpolation iter.  ....    10
   Max. Number of Micro iterations      ....    16
   Max. Number of Macro iterations      .... Maxiter - #DIIS iter
   Number of Davidson start vectors     ....     2
   Converg. threshold I  (grad. norm)   ....   5.000e-05
   Converg. threshold II (energy diff.) ....   1.000e-06
   Grad. Scal. Fac. for Micro threshold ....   0.100
   Minimum threshold for Micro iter.    ....   0.010
   NR start threshold (gradient norm)   ....   0.001
   Initial trust radius                 ....   0.400
   Minimum AH scaling param. (alpha)    ....   1.000
   Maximum AH scaling param. (alpha)    .... 1000.000
   Orbital update algorithm             .... Taylor
   White noise on init. David. guess    .... on
   Maximum white noise                  ....   0.010
   Quad. conv. algorithm                .... NR
 SOSCF                  CNVSOSCF        .... on
   Start iteration      SOSCFMaxIt      ....   150
   Startup grad/error   SOSCFStart      ....  0.003300
 Level Shifting         CNVShift        .... on
   Level shift para.    LevelShift      ....    0.2500
   Turn off err/grad.   ShiftErr        ....    0.0010
 Zerner damping         CNVZerner       .... off
 Static damping         CNVDamp         .... on
   Fraction old density DampFac         ....    0.7000
   Max. Damping (<1)    DampMax         ....    0.9800
   Min. Damping (>=0)   DampMin         ....    0.0000
   Turn off err/grad.   DampErr         ....    0.1000
 Fernandez-Rico         CNVRico         .... off

SCF Procedure:
 Maximum # iterations   MaxIter         ....   125
 SCF integral mode      SCFMode         .... Direct
   Integral package                     .... SHARK and LIBINT hybrid scheme
 Reset frequency        DirectResetFreq ....    20
 Integral Threshold     Thresh          ....  1.000e-10 Eh
 Primitive CutOff       TCut            ....  1.000e-11 Eh

Convergence Tolerance:
 Convergence Check Mode ConvCheckMode   .... Total+1el-Energy
 Convergence forced     ConvForced      .... 1
 Energy Change          TolE            ....  1.000e-06 Eh
 1-El. energy change                    ....  1.000e-03 Eh
 Orbital Gradient       TolG            ....  5.000e-05
 Orbital Rotation angle TolX            ....  5.000e-05
 DIIS Error             TolErr          ....  1.000e-06


Diagonalization of the overlap matrix:
Smallest eigenvalue                        ... 1.011e-04
Time for diagonalization                   ...    0.036 sec
Threshold for overlap eigenvalues          ... 1.000e-08
Number of eigenvalues below threshold      ... 0
Time for construction of square roots      ...    0.018 sec
Total time needed                          ...    0.055 sec

Time for model grid setup =    0.108 sec

------------------------------
INITIAL GUESS: MODEL POTENTIAL
------------------------------
Loading Hartree-Fock densities                     ... done
Calculating cut-offs                               ... done
Initializing the effective Hamiltonian             ... done
Setting up the integral package (SHARK)            ... done
Starting the Coulomb interaction                   ... done (   0.1 sec)
Reading the grid                                   ... done
Mapping shells                                     ... done
Starting the XC term evaluation                    ... done (   0.1 sec)
  promolecular density results
     # of electrons  =     67.996583747
     EX              =    -60.288578741
     EC              =     -2.370382994
     EX+EC           =    -62.658961736
Transforming the Hamiltonian                       ... done (   0.0 sec)
Diagonalizing the Hamiltonian                      ... done (   0.0 sec)
Back transforming the eigenvectors                 ... done (   0.0 sec)
Now organizing SCF variables                       ... done
                      ------------------
                      INITIAL GUESS DONE (   0.4 sec)
                      ------------------
-------------------
DFT GRID GENERATION
-------------------

General Integration Accuracy     IntAcc      ... 4.388
Radial Grid Type                 RadialGrid  ... OptM3 with GC (2021)
Angular Grid (max. ang.)         AngularGrid ... 4 (Lebedev-302)
Angular grid pruning method      GridPruning ... 4 (adaptive)
Weight generation scheme         WeightScheme... Becke
Basis function cutoff            BFCut       ... 1.0000e-10
Integration weight cutoff        WCut        ... 1.0000e-14
Angular grids for H and He will be reduced by one unit
Partially contracted basis set               ... off
Rotationally invariant grid construction     ... off

Total number of grid points                  ...    73873
Total number of batches                      ...     1162
Average number of points per batch           ...       63
Average number of grid points per atom       ...     4925
Time for grid setup =    0.533 sec

--------------------
COSX GRID GENERATION
--------------------

GRIDX 1
-------
General Integration Accuracy     IntAcc      ... 3.816
Radial Grid Type                 RadialGrid  ... OptM3 with GC (2021)
Angular Grid (max. ang.)         AngularGrid ... 1 (Lebedev-50)
Angular grid pruning method      GridPruning ... 4 (adaptive)
Weight generation scheme         WeightScheme... Becke
Basis function cutoff            BFCut       ... 1.0000e-10
Integration weight cutoff        WCut        ... 1.0000e-14
Angular grids for H and He will be reduced by one unit
Partially contracted basis set               ... on
Rotationally invariant grid construction     ... off

Total number of grid points                  ...     9401
Total number of batches                      ...      156
Average number of points per batch           ...       60
Average number of grid points per atom       ...      627
UseSFitting                                  ... on

GRIDX 2
-------
General Integration Accuracy     IntAcc      ... 4.020
Radial Grid Type                 RadialGrid  ... OptM3 with GC (2021)
Angular Grid (max. ang.)         AngularGrid ... 2 (Lebedev-110)
Angular grid pruning method      GridPruning ... 4 (adaptive)
Weight generation scheme         WeightScheme... Becke
Basis function cutoff            BFCut       ... 1.0000e-10
Integration weight cutoff        WCut        ... 1.0000e-14
Angular grids for H and He will be reduced by one unit
Partially contracted basis set               ... on
Rotationally invariant grid construction     ... off

Total number of grid points                  ...    20947
Total number of batches                      ...      335
Average number of points per batch           ...       62
Average number of grid points per atom       ...     1396
UseSFitting                                  ... on

GRIDX 3
-------
General Integration Accuracy     IntAcc      ... 4.338
Radial Grid Type                 RadialGrid  ... OptM3 with GC (2021)
Angular Grid (max. ang.)         AngularGrid ... 3 (Lebedev-194)
Angular grid pruning method      GridPruning ... 4 (adaptive)
Weight generation scheme         WeightScheme... Becke
Basis function cutoff            BFCut       ... 1.0000e-10
Integration weight cutoff        WCut        ... 1.0000e-14
Angular grids for H and He will be reduced by one unit
Partially contracted basis set               ... on
Rotationally invariant grid construction     ... off

Total number of grid points                  ...    46159
Total number of batches                      ...      729
Average number of points per batch           ...       63
Average number of grid points per atom       ...     3077
UseSFitting                                  ... on

Time for X-Grid setup             =    0.608 sec


--------------------
CPCM SOLVATION MODEL
--------------------
CPCM parameters:
  Epsilon                                         ...      80.4000
  Refrac                                          ...       1.3300
  Rsolv                                           ...       1.3000
  Surface type                                    ... GAUSSIAN VDW
  Epsilon function type                           ...         CPCM
Radii:
 Radius for O  used is    3.4469 Bohr (=   1.8240 Ang.)
 Radius for C  used is    3.8550 Bohr (=   2.0400 Ang.)
 Radius for H  used is    2.4944 Bohr (=   1.3200 Ang.)
Calculating surface                               ...        done! (  0.0s)
GEPOL surface points                              ...          895
GEPOL Volume                                      ...    1019.3185
GEPOL Surface-area                                ...     592.8994
Calculating surface distance matrix               ...        done! (  0.0s)
Performing Cholesky decomposition & store         ...        done! (  0.0s)
Overall time for CPCM initialization              ...                 0.1s
--------------
SCF ITERATIONS
--------------
ITER       Energy         Delta-E        Max-DP      RMS-DP      [F,P]     Damp
               ***  Starting incremental Fock matrix formation  ***
  0   -494.6768561276   0.000000000000 0.12065934  0.00139710  0.3025754 0.7000
  1   -494.8496471555  -0.172791027903 0.11688060  0.00106679  0.1192502 0.7000
                               ***Turning on DIIS***
  2   -494.9081475913  -0.058500435814 0.14101411  0.00145963  0.0353084 0.0000
  3   -495.0116224141  -0.103474822742 0.10742311  0.00085483  0.0603051 0.0000
  4   -495.0297951958  -0.018172781707 0.03515339  0.00027909  0.0150097 0.0000
                      *** Initiating the SOSCF procedure ***
                           *** Shutting down DIIS ***
                      *** Re-Reading the Fockian *** 
                      *** Removing any level shift *** 
ITER      Energy       Delta-E        Grad      Rot      Max-DP    RMS-DP
  5   -495.03124895  -0.0014537589  0.000598  0.000598  0.011099  0.000094
               *** Restarting incremental Fock matrix formation ***
  6   -495.03126605  -0.0000170965  0.000408  0.001234  0.003987  0.000051
  7   -495.03124749   0.0000185576  0.000816  0.000955  0.001438  0.000025
  8   -495.03127653  -0.0000290318  0.000097  0.000218  0.000481  0.000005
  9   -495.03127606   0.0000004702  0.000161  0.000147  0.000266  0.000003
                 **** Energy Check signals convergence ****
              ***Rediagonalizing the Fockian in SOSCF/NRSCF***

               *****************************************************
               *                     SUCCESS                       *
               *           SCF CONVERGED AFTER  10 CYCLES          *
               *****************************************************

Old exchange energy                            =    -12.199243199 Eh
New exchange energy                            =    -12.199269257 Eh
Exchange energy change after final integration =     -0.000026059 Eh
Total energy after final integration           =   -495.031302890 Eh
Final COS-X integration done in                =     4.361 sec

----------------
TOTAL SCF ENERGY
----------------

Total Energy       :         -495.03130289 Eh          -13470.48658 eV

Components:
Nuclear Repulsion  :          447.20303633 Eh           12169.01328 eV
Electronic Energy  :         -942.23433922 Eh          -25639.49986 eV
One Electron Energy:        -1563.54913489 Eh          -42546.33497 eV
Two Electron Energy:          621.31479567 Eh           16906.83512 eV
Max COSX asymmetry :            0.00000135 Eh               0.00004 eV
CPCM Dielectric    :           -0.02383130 Eh              -0.64848 eV

Virial components:
Potential Energy   :         -988.13975991 Eh          -26888.64986 eV
Kinetic Energy     :          493.10845702 Eh           13418.16328 eV
Virial Ratio       :            2.00389944


DFT components:
N(Alpha)           :       33.999987266837 electrons
N(Beta)            :       33.999987266837 electrons
N(Total)           :       67.999974533674 electrons
E(X)               :      -48.571293356658 Eh       
E(C)               :       -2.796776691683 Eh       
E(XC)              :      -51.368070048341 Eh       
DFET-embed. en.    :        0.000000000000 Eh       
CPCM Solvation Model Properties:
Surface-charge          :           -0.01710014
Charge-correction       :            0.00003976 Eh               0.00108 eV
Free-energy (cav+disp)  :  This term is not implemented in the current solvation scheme

---------------
SCF CONVERGENCE
---------------

  Last Energy change         ...   -7.7600e-07  Tolerance :   1.0000e-06
  Last MAX-Density change    ...    2.4425e-15  Tolerance :   1.0000e-05
  Last RMS-Density change    ...    2.1467e-17  Tolerance :   1.0000e-06
  Last Orbital Gradient      ...    8.8018e-06  Tolerance :   5.0000e-05
  Last Orbital Rotation      ...    2.4475e-05  Tolerance :   5.0000e-05

             **** THE GBW FILE WAS UPDATED (MA.tddft.gbw) ****
             **** DENSITY MA.tddft.scfp WAS UPDATED ****
             **** ENERGY FILE WAS UPDATED (MA.tddft.en.tmp) ****
             **** THE GBW FILE WAS UPDATED (MA.tddft.gbw) ****
             **** DENSITY MA.tddft.scfp WAS UPDATED ****
----------------
ORBITAL ENERGIES
----------------

  NO   OCC          E(Eh)            E(eV) 
   0   2.0000     -19.179046      -521.8884 
   1   2.0000     -19.178420      -521.8713 
   2   2.0000     -19.124070      -520.3924 
   3   2.0000     -19.120005      -520.2818 
   4   2.0000     -10.314277      -280.6658 
   5   2.0000     -10.312796      -280.6254 
   6   2.0000     -10.201659      -277.6013 
   7   2.0000     -10.192962      -277.3646 
   8   2.0000     -10.185771      -277.1689 
   9   2.0000      -1.119997       -30.4767 
  10   2.0000      -1.117395       -30.4059 
  11   2.0000      -1.028062       -27.9750 
  12   2.0000      -1.024879       -27.8884 
  13   2.0000      -0.834854       -22.7175 
  14   2.0000      -0.744865       -20.2688 
  15   2.0000      -0.677574       -18.4377 
  16   2.0000      -0.623790       -16.9742 
  17   2.0000      -0.564437       -15.3591 
  18   2.0000      -0.514344       -13.9960 
  19   2.0000      -0.507575       -13.8118 
  20   2.0000      -0.502983       -13.6869 
  21   2.0000      -0.486721       -13.2443 
  22   2.0000      -0.473200       -12.8764 
  23   2.0000      -0.457899       -12.4601 
  24   2.0000      -0.435821       -11.8593 
  25   2.0000      -0.425436       -11.5767 
  26   2.0000      -0.407854       -11.0983 
  27   2.0000      -0.392107       -10.6698 
  28   2.0000      -0.376102       -10.2343 
  29   2.0000      -0.340527        -9.2662 
  30   2.0000      -0.333253        -9.0683 
  31   2.0000      -0.297494        -8.0952 
  32   2.0000      -0.294024        -8.0008 
  33   2.0000      -0.285356        -7.7649 
  34   0.0000      -0.057794        -1.5727 
  35   0.0000      -0.002867        -0.0780 
  36   0.0000       0.038401         1.0449 
  37   0.0000       0.055021         1.4972 
  38   0.0000       0.060821         1.6550 
  39   0.0000       0.074992         2.0406 
  40   0.0000       0.099622         2.7109 
  41   0.0000       0.106006         2.8846 
  42   0.0000       0.130609         3.5541 
  43   0.0000       0.136743         3.7210 
  44   0.0000       0.152612         4.1528 
  45   0.0000       0.175043         4.7632 
  46   0.0000       0.181384         4.9357 
  47   0.0000       0.199723         5.4347 
  48   0.0000       0.210038         5.7154 
  49   0.0000       0.215817         5.8727 
  50   0.0000       0.230276         6.2661 
  51   0.0000       0.243557         6.6275 
  52   0.0000       0.250774         6.8239 
  53   0.0000       0.281531         7.6609 
  54   0.0000       0.283510         7.7147 
  55   0.0000       0.290095         7.8939 
  56   0.0000       0.315509         8.5854 
  57   0.0000       0.322429         8.7737 
  58   0.0000       0.339189         9.2298 
  59   0.0000       0.349697         9.5157 
  60   0.0000       0.363770         9.8987 
  61   0.0000       0.370516        10.0823 
  62   0.0000       0.375759        10.2249 
  63   0.0000       0.395490        10.7618 
  64   0.0000       0.396633        10.7929 
  65   0.0000       0.413207        11.2439 
  66   0.0000       0.417885        11.3712 
  67   0.0000       0.429007        11.6739 
  68   0.0000       0.437971        11.9178 
  69   0.0000       0.455130        12.3847 
  70   0.0000       0.465961        12.6794 
  71   0.0000       0.473961        12.8971 
  72   0.0000       0.483063        13.1448 
  73   0.0000       0.490653        13.3514 
  74   0.0000       0.502138        13.6639 
  75   0.0000       0.510415        13.8891 
  76   0.0000       0.523947        14.2573 
  77   0.0000       0.539664        14.6850 
  78   0.0000       0.561116        15.2687 
  79   0.0000       0.570643        15.5280 
  80   0.0000       0.591598        16.0982 
  81   0.0000       0.600374        16.3370 
  82   0.0000       0.607030        16.5181 
  83   0.0000       0.622867        16.9491 
  84   0.0000       0.638507        17.3747 
  85   0.0000       0.656243        17.8573 
  86   0.0000       0.688428        18.7331 
  87   0.0000       0.705294        19.1920 
  88   0.0000       0.711815        19.3695 
  89   0.0000       0.726734        19.7754 
  90   0.0000       0.767862        20.8946 
  91   0.0000       0.782938        21.3048 
  92   0.0000       0.806943        21.9580 
  93   0.0000       0.821003        22.3406 
  94   0.0000       0.832780        22.6611 
  95   0.0000       0.872027        23.7291 
  96   0.0000       0.881591        23.9893 
  97   0.0000       0.915936        24.9239 
  98   0.0000       0.929625        25.2964 
  99   0.0000       0.933310        25.3966 
 100   0.0000       0.966723        26.3059 
 101   0.0000       0.970298        26.4032 
 102   0.0000       0.997820        27.1521 
 103   0.0000       1.004192        27.3255 
 104   0.0000       1.045731        28.4558 
 105   0.0000       1.047542        28.5051 
 106   0.0000       1.067943        29.0602 
 107   0.0000       1.080715        29.4077 
 108   0.0000       1.136705        30.9313 
 109   0.0000       1.176605        32.0171 
 110   0.0000       1.190708        32.4008 
 111   0.0000       1.197849        32.5951 
 112   0.0000       1.225030        33.3348 
 113   0.0000       1.266322        34.4584 
 114   0.0000       1.309937        35.6452 
 115   0.0000       1.317650        35.8551 
 116   0.0000       1.348758        36.7016 
 117   0.0000       1.369401        37.2633 
 118   0.0000       1.376559        37.4581 
 119   0.0000       1.397364        38.0242 
 120   0.0000       1.431817        38.9617 
 121   0.0000       1.449526        39.4436 
 122   0.0000       1.463603        39.8267 
 123   0.0000       1.486175        40.4409 
 124   0.0000       1.515888        41.2494 
 125   0.0000       1.522785        41.4371 
 126   0.0000       1.563963        42.5576 
 127   0.0000       1.568039        42.6685 
 128   0.0000       1.582715        43.0679 
 129   0.0000       1.596494        43.4428 
 130   0.0000       1.607797        43.7504 
 131   0.0000       1.610037        43.8113 
 132   0.0000       1.627140        44.2767 
 133   0.0000       1.660380        45.1812 
 134   0.0000       1.680608        45.7317 
 135   0.0000       1.716554        46.7098 
 136   0.0000       1.723898        46.9096 
 137   0.0000       1.783345        48.5273 
 138   0.0000       1.794799        48.8390 
 139   0.0000       1.827548        49.7301 
 140   0.0000       1.839452        50.0540 
 141   0.0000       1.852710        50.4148 
 142   0.0000       1.874652        51.0119 
 143   0.0000       1.893119        51.5144 
 144   0.0000       1.903779        51.8045 
 145   0.0000       1.923952        52.3534 
 146   0.0000       1.941162        52.8217 
 147   0.0000       1.959668        53.3253 
 148   0.0000       1.972349        53.6703 
 149   0.0000       1.997065        54.3429 
 150   0.0000       2.001574        54.4656 
 151   0.0000       2.060950        56.0813 
 152   0.0000       2.063458        56.1496 
 153   0.0000       2.076343        56.5002 
 154   0.0000       2.117536        57.6211 
 155   0.0000       2.123511        57.7837 
 156   0.0000       2.134147        58.0731 
 157   0.0000       2.185540        59.4716 
 158   0.0000       2.193825        59.6970 
 159   0.0000       2.200234        59.8714 
 160   0.0000       2.226194        60.5778 
 161   0.0000       2.232528        60.7502 
 162   0.0000       2.261999        61.5521 
 163   0.0000       2.286589        62.2212 
 164   0.0000       2.326118        63.2969 
 165   0.0000       2.346355        63.8476 
 166   0.0000       2.375477        64.6400 
 167   0.0000       2.400517        65.3214 
 168   0.0000       2.404934        65.4416 
 169   0.0000       2.452895        66.7467 
 170   0.0000       2.477253        67.4095 
 171   0.0000       2.494003        67.8653 
 172   0.0000       2.534920        68.9787 
 173   0.0000       2.561018        69.6888 
 174   0.0000       2.580235        70.2118 
 175   0.0000       2.596533        70.6553 
 176   0.0000       2.640243        71.8447 
 177   0.0000       2.651632        72.1546 
 178   0.0000       2.684302        73.0436 
 179   0.0000       2.692554        73.2681 
 180   0.0000       2.712869        73.8209 
 181   0.0000       2.723319        74.1053 
 182   0.0000       2.748287        74.7847 
 183   0.0000       2.774500        75.4980 
 184   0.0000       2.819363        76.7188 
 185   0.0000       2.847792        77.4923 
 186   0.0000       2.856988        77.7426 
 187   0.0000       2.875939        78.2583 
 188   0.0000       2.893495        78.7360 
 189   0.0000       2.914926        79.3192 
 190   0.0000       2.921889        79.5086 
 191   0.0000       2.955538        80.4243 
 192   0.0000       2.966287        80.7168 
 193   0.0000       2.983275        81.1790 
 194   0.0000       3.021933        82.2310 
 195   0.0000       3.023953        82.2859 
 196   0.0000       3.037947        82.6667 
 197   0.0000       3.058515        83.2264 
 198   0.0000       3.075407        83.6861 
 199   0.0000       3.094260        84.1991 
 200   0.0000       3.111074        84.6566 
 201   0.0000       3.126824        85.0852 
 202   0.0000       3.141843        85.4939 
 203   0.0000       3.171200        86.2927 
 204   0.0000       3.173425        86.3533 
 205   0.0000       3.195655        86.9582 
 206   0.0000       3.210829        87.3711 
 207   0.0000       3.227188        87.8162 
 208   0.0000       3.242203        88.2248 
 209   0.0000       3.244999        88.3009 
 210   0.0000       3.272683        89.0542 
 211   0.0000       3.280780        89.2745 
 212   0.0000       3.304013        89.9068 
 213   0.0000       3.308627        90.0323 
 214   0.0000       3.311760        90.1176 
 215   0.0000       3.338999        90.8588 
 216   0.0000       3.373335        91.7931 
 217   0.0000       3.378040        91.9212 
 218   0.0000       3.398266        92.4715 
 219   0.0000       3.407112        92.7122 
 220   0.0000       3.424020        93.1723 
 221   0.0000       3.484808        94.8264 
 222   0.0000       3.519956        95.7829 
 223   0.0000       3.539660        96.3191 
 224   0.0000       3.566086        97.0381 
 225   0.0000       3.624996        98.6412 
 226   0.0000       3.648496        99.2806 
 227   0.0000       3.701450       100.7216 
 228   0.0000       3.706534       100.8599 
 229   0.0000       3.719660       101.2171 
 230   0.0000       3.780766       102.8799 
 231   0.0000       3.802611       103.4743 
 232   0.0000       3.824855       104.0796 
 233   0.0000       3.846597       104.6712 
 234   0.0000       3.885426       105.7278 
 235   0.0000       3.928158       106.8906 
 236   0.0000       3.996142       108.7406 
 237   0.0000       4.028337       109.6166 
 238   0.0000       4.057303       110.4048 
 239   0.0000       4.076953       110.9395 
 240   0.0000       4.134628       112.5090 
 241   0.0000       4.184804       113.8743 
 242   0.0000       4.246823       115.5619 
 243   0.0000       4.317137       117.4753 
 244   0.0000       4.349971       118.3687 
 245   0.0000       4.405153       119.8703 
 246   0.0000       4.426593       120.4537 
 247   0.0000       4.475512       121.7849 
 248   0.0000       4.512286       122.7855 
 249   0.0000       4.546820       123.7253 
 250   0.0000       4.555298       123.9560 
 251   0.0000       4.612676       125.5173 
 252   0.0000       4.751307       129.2896 
 253   0.0000       4.768182       129.7488 
 254   0.0000       4.875184       132.6605 
 255   0.0000       4.891784       133.1122 
 256   0.0000       5.028574       136.8344 
 257   0.0000       5.131625       139.6386 
 258   0.0000       5.135618       139.7473 
 259   0.0000       5.152487       140.2063 
 260   0.0000       5.173263       140.7716 
 261   0.0000       5.188924       141.1978 
 262   0.0000       5.198071       141.4467 
 263   0.0000       5.212959       141.8518 
 264   0.0000       5.375663       146.2792 
 265   0.0000       5.381066       146.4263 
 266   0.0000       5.397918       146.8848 
 267   0.0000       5.459122       148.5503 
 268   0.0000       5.502444       149.7291 
 269   0.0000       5.504192       149.7767 
 270   0.0000       5.603626       152.4824 
 271   0.0000       5.623304       153.0179 
 272   0.0000       5.767410       156.9392 
 273   0.0000       5.806141       157.9931 
 274   0.0000       5.868391       159.6870 
 275   0.0000       5.886713       160.1856 
 276   0.0000       5.900784       160.5685 
 277   0.0000       5.916998       161.0097 
 278   0.0000       6.154377       167.4691 
 279   0.0000       6.180865       168.1899 
 280   0.0000       6.209344       168.9648 
 281   0.0000       6.254981       170.2067 
 282   0.0000       6.307770       171.6432 
 283   0.0000       6.313319       171.7942 
 284   0.0000       6.365156       173.2047 
 285   0.0000       6.378284       173.5619 
 286   0.0000       6.432662       175.0416 
 287   0.0000       6.437143       175.1636 
 288   0.0000       6.479375       176.3128 
 289   0.0000       6.493564       176.6989 
 290   0.0000       6.660324       181.2366 
 291   0.0000       6.686789       181.9568 
 292   0.0000       6.700422       182.3278 
 293   0.0000       6.710295       182.5964 
 294   0.0000       6.780891       184.5174 
 295   0.0000       6.813549       185.4061 
 296   0.0000       6.814541       185.4331 
 297   0.0000       6.817638       185.5174 
 298   0.0000       6.897635       187.6942 
 299   0.0000       6.927816       188.5155 
 300   0.0000       7.075396       192.5313 
 301   0.0000       7.087454       192.8594 
 302   0.0000       7.127663       193.9536 
 303   0.0000       7.158153       194.7832 
 304   0.0000       7.313657       199.0147 
 305   0.0000       7.376624       200.7282 
 306   0.0000      22.276769       606.1817 
 307   0.0000      22.538687       613.3089 
 308   0.0000      22.903203       623.2278 
 309   0.0000      23.278721       633.4462 
 310   0.0000      23.344527       635.2369 
 311   0.0000      43.768285      1190.9956 
 312   0.0000      43.801187      1191.8909 
 313   0.0000      43.832952      1192.7553 
 314   0.0000      43.858418      1193.4482 

                    ********************************
                    * MULLIKEN POPULATION ANALYSIS *
                    ********************************

-----------------------
MULLIKEN ATOMIC CHARGES
-----------------------
   0 O :   -0.388057
   1 O :   -0.394544
   2 O :   -0.380256
   3 O :   -0.391941
   4 C :   -0.190144
   5 C :   -0.027879
   6 C :    0.311493
   7 C :    0.341879
   8 C :   -0.240768
   9 H :    0.152983
  10 H :    0.164360
  11 H :    0.161514
  12 H :    0.155354
  13 H :    0.363746
  14 H :    0.362260
Sum of atomic charges:    0.0000000

--------------------------------
MULLIKEN REDUCED ORBITAL CHARGES
--------------------------------
  0 O s       :     3.765329  s :     3.765329
      pz      :     1.579822  p :     4.591063
      px      :     1.331702
      py      :     1.679539
      dz2     :     0.005185  d :     0.029936
      dxz     :     0.012047
      dyz     :     0.005049
      dx2y2   :     0.003746
      dxy     :     0.003909
      f0      :     0.000033  f :     0.001730
      f+1     :     0.000324
      f-1     :     0.000089
      f+2     :     0.000245
      f-2     :     0.000345
      f+3     :     0.000321
      f-3     :     0.000373
  1 O s       :     3.773650  s :     3.773650
      pz      :     1.715044  p :     4.589045
      px      :     1.612294
      py      :     1.261707
      dz2     :     0.003773  d :     0.030114
      dxz     :     0.003979
      dyz     :     0.005699
      dx2y2   :     0.004794
      dxy     :     0.011868
      f0      :     0.000278  f :     0.001734
      f+1     :     0.000120
      f-1     :     0.000264
      f+2     :     0.000146
      f-2     :     0.000285
      f+3     :     0.000334
      f-3     :     0.000307
  2 O s       :     3.792219  s :     3.792219
      pz      :     1.348353  p :     4.557576
      px      :     1.722139
      py      :     1.487084
      dz2     :     0.009974  d :     0.028649
      dxz     :     0.007917
      dyz     :     0.009557
      dx2y2   :     0.000549
      dxy     :     0.000652
      f0      :     0.000563  f :     0.001813
      f+1     :     0.000526
      f-1     :     0.000546
      f+2     :     0.000078
      f-2     :     0.000086
      f+3     :     0.000007
      f-3     :     0.000006
  3 O s       :     3.794231  s :     3.794231
      pz      :     1.424801  p :     4.567363
      px      :     1.364096
      py      :     1.778466
      dz2     :     0.005661  d :     0.028550
      dxz     :     0.008290
      dyz     :     0.001885
      dx2y2   :     0.006762
      dxy     :     0.005953
      f0      :     0.000091  f :     0.001797
      f+1     :     0.000487
      f-1     :     0.000016
      f+2     :     0.000321
      f-2     :     0.000237
      f+3     :     0.000313
      f-3     :     0.000333
  4 C s       :     3.182657  s :     3.182657
      pz      :     0.979497  p :     2.926568
      px      :     0.890338
      py      :     1.056733
      dz2     :     0.012222  d :     0.075300
      dxz     :     0.018123
      dyz     :     0.014734
      dx2y2   :     0.013516
      dxy     :     0.016706
      f0      :     0.000443  f :     0.005619
      f+1     :     0.001022
      f-1     :     0.000627
      f+2     :     0.001246
      f-2     :     0.000885
      f+3     :     0.000829
      f-3     :     0.000567
  5 C s       :     3.244805  s :     3.244805
      pz      :     0.945800  p :     2.663379
      px      :     0.853746
      py      :     0.863832
      dz2     :     0.010182  d :     0.109925
      dxz     :     0.016615
      dyz     :     0.022666
      dx2y2   :     0.023002
      dxy     :     0.037460
      f0      :     0.001249  f :     0.009770
      f+1     :     0.001112
      f-1     :     0.000552
      f+2     :     0.001345
      f-2     :     0.001145
      f+3     :     0.001768
      f-3     :     0.002599
  6 C s       :     3.077962  s :     3.077962
      pz      :     0.819532  p :     2.324609
      px      :     0.755558
      py      :     0.749519
      dz2     :     0.050379  d :     0.260445
      dxz     :     0.094587
      dyz     :     0.059766
      dx2y2   :     0.027244
      dxy     :     0.028470
      f0      :     0.004598  f :     0.025491
      f+1     :     0.007825
      f-1     :     0.004402
      f+2     :     0.002661
      f-2     :     0.002045
      f+3     :     0.002075
      f-3     :     0.001883
  7 C s       :     3.050051  s :     3.050051
      pz      :     0.755502  p :     2.327490
      px      :     0.806669
      py      :     0.765319
      dz2     :     0.032798  d :     0.255282
      dxz     :     0.033637
      dyz     :     0.052426
      dx2y2   :     0.046869
      dxy     :     0.089552
      f0      :     0.001625  f :     0.025298
      f+1     :     0.003651
      f-1     :     0.001826
      f+2     :     0.003413
      f-2     :     0.003796
      f+3     :     0.004167
      f-3     :     0.006820
  8 C s       :     3.294704  s :     3.294704
      pz      :     0.912605  p :     2.891993
      px      :     1.032235
      py      :     0.947153
      dz2     :     0.003283  d :     0.049060
      dxz     :     0.004091
      dyz     :     0.011929
      dx2y2   :     0.014337
      dxy     :     0.015419
      f0      :     0.000993  f :     0.005012
      f+1     :     0.000327
      f-1     :     0.000258
      f+2     :     0.000809
      f-2     :     0.000535
      f+3     :     0.001069
      f-3     :     0.001020
  9 H s       :     0.824647  s :     0.824647
      pz      :     0.010214  p :     0.022370
      px      :     0.004145
      py      :     0.008011
 10 H s       :     0.813202  s :     0.813202
      pz      :     0.006031  p :     0.022438
      px      :     0.005858
      py      :     0.010550
 11 H s       :     0.816641  s :     0.816641
      pz      :     0.004878  p :     0.021845
      px      :     0.006800
      py      :     0.010167
 12 H s       :     0.822205  s :     0.822205
      pz      :     0.005588  p :     0.022442
      px      :     0.012874
      py      :     0.003980
 13 H s       :     0.593305  s :     0.593305
      pz      :     0.015240  p :     0.042949
      px      :     0.013772
      py      :     0.013937
 14 H s       :     0.594555  s :     0.594555
      pz      :     0.013126  p :     0.043185
      px      :     0.015008
      py      :     0.015051


                     *******************************
                     * LOEWDIN POPULATION ANALYSIS *
                     *******************************

----------------------
LOEWDIN ATOMIC CHARGES
----------------------
   0 O :    0.113112
   1 O :    0.126908
   2 O :    0.062226
   3 O :    0.052221
   4 C :   -0.176083
   5 C :   -0.180283
   6 C :   -0.497955
   7 C :   -0.468607
   8 C :   -0.085499
   9 H :    0.169794
  10 H :    0.173742
  11 H :    0.139219
  12 H :    0.138382
  13 H :    0.216020
  14 H :    0.216805

-------------------------------
LOEWDIN REDUCED ORBITAL CHARGES
-------------------------------
  0 O s       :     3.325764  s :     3.325764
      pz      :     1.554076  p :     4.487455
      px      :     1.353150
      py      :     1.580229
      dz2     :     0.008671  d :     0.068620
      dxz     :     0.028532
      dyz     :     0.007445
      dx2y2   :     0.012042
      dxy     :     0.011930
      f0      :     0.000322  f :     0.005050
      f+1     :     0.001617
      f-1     :     0.000301
      f+2     :     0.000716
      f-2     :     0.000765
      f+3     :     0.000536
      f-3     :     0.000792
  1 O s       :     3.320834  s :     3.320834
      pz      :     1.620113  p :     4.478561
      px      :     1.564378
      py      :     1.294071
      dz2     :     0.007928  d :     0.068610
      dxz     :     0.004813
      dyz     :     0.013408
      dx2y2   :     0.014931
      dxy     :     0.027530
      f0      :     0.000426  f :     0.005086
      f+1     :     0.000169
      f-1     :     0.000657
      f+2     :     0.000370
      f-2     :     0.001087
      f+3     :     0.000953
      f-3     :     0.001423
  2 O s       :     3.398474  s :     3.398474
      pz      :     1.494825  p :     4.467353
      px      :     1.583254
      py      :     1.389274
      dz2     :     0.030625  d :     0.065778
      dxz     :     0.019121
      dyz     :     0.013816
      dx2y2   :     0.001246
      dxy     :     0.000970
      f0      :     0.002477  f :     0.006169
      f+1     :     0.001968
      f-1     :     0.001224
      f+2     :     0.000277
      f-2     :     0.000204
      f+3     :     0.000009
      f-3     :     0.000011
  3 O s       :     3.399906  s :     3.399906
      pz      :     1.387494  p :     4.476612
      px      :     1.463347
      py      :     1.625771
      dz2     :     0.008023  d :     0.065176
      dxz     :     0.020465
      dyz     :     0.004495
      dx2y2   :     0.017526
      dxy     :     0.014667
      f0      :     0.000524  f :     0.006084
      f+1     :     0.000992
      f-1     :     0.000042
      f+2     :     0.001433
      f-2     :     0.000888
      f+3     :     0.001084
      f-3     :     0.001121
  4 C s       :     2.762011  s :     2.762011
      pz      :     1.015431  p :     3.027053
      px      :     0.985829
      py      :     1.025793
      dz2     :     0.050018  d :     0.349450
      dxz     :     0.087168
      dyz     :     0.071889
      dx2y2   :     0.066535
      dxy     :     0.073841
      f0      :     0.004692  f :     0.037569
      f+1     :     0.007743
      f-1     :     0.003903
      f+2     :     0.005598
      f-2     :     0.004856
      f+3     :     0.006112
      f-3     :     0.004664
  5 C s       :     2.731076  s :     2.731076
      pz      :     0.882493  p :     2.902674
      px      :     0.961823
      py      :     1.058357
      dz2     :     0.046685  d :     0.490478
      dxz     :     0.063581
      dyz     :     0.076005
      dx2y2   :     0.139046
      dxy     :     0.165161
      f0      :     0.004577  f :     0.056055
      f+1     :     0.005058
      f-1     :     0.004923
      f+2     :     0.006541
      f-2     :     0.006959
      f+3     :     0.011819
      f-3     :     0.016177
  6 C s       :     2.759318  s :     2.759318
      pz      :     1.013136  p :     2.640199
      px      :     0.876448
      py      :     0.750614
      dz2     :     0.220370  d :     0.942820
      dxz     :     0.323798
      dyz     :     0.186634
      dx2y2   :     0.107459
      dxy     :     0.104559
      f0      :     0.027681  f :     0.155619
      f+1     :     0.048423
      f-1     :     0.025732
      f+2     :     0.017242
      f-2     :     0.011713
      f+3     :     0.012547
      f-3     :     0.012281
  7 C s       :     2.748146  s :     2.748146
      pz      :     0.786556  p :     2.631531
      px      :     0.943991
      py      :     0.900983
      dz2     :     0.116100  d :     0.934067
      dxz     :     0.138660
      dyz     :     0.167649
      dx2y2   :     0.210029
      dxy     :     0.301630
      f0      :     0.011397  f :     0.154863
      f+1     :     0.015976
      f-1     :     0.012132
      f+2     :     0.021718
      f-2     :     0.023928
      f+3     :     0.026409
      f-3     :     0.043304
  8 C s       :     2.845353  s :     2.845353
      pz      :     0.874178  p :     2.973846
      px      :     1.016617
      py      :     1.083051
      dz2     :     0.014971  d :     0.237464
      dxz     :     0.014707
      dyz     :     0.039272
      dx2y2   :     0.081810
      dxy     :     0.086704
      f0      :     0.003460  f :     0.028836
      f+1     :     0.001011
      f-1     :     0.003492
      f+2     :     0.003576
      f-2     :     0.003057
      f+3     :     0.006691
      f-3     :     0.007548
  9 H s       :     0.769315  s :     0.769315
      pz      :     0.025901  p :     0.060890
      px      :     0.011763
      py      :     0.023226
 10 H s       :     0.765944  s :     0.765944
      pz      :     0.015745  p :     0.060314
      px      :     0.015833
      py      :     0.028736
 11 H s       :     0.798364  s :     0.798364
      pz      :     0.014395  p :     0.062418
      px      :     0.021375
      py      :     0.026647
 12 H s       :     0.798052  s :     0.798052
      pz      :     0.015962  p :     0.063567
      px      :     0.035975
      py      :     0.011630
 13 H s       :     0.638041  s :     0.638041
      pz      :     0.063096  p :     0.145939
      px      :     0.041793
      py      :     0.041051
 14 H s       :     0.637362  s :     0.637362
      pz      :     0.040768  p :     0.145833
      px      :     0.057875
      py      :     0.047191


                      *****************************
                      * MAYER POPULATION ANALYSIS *
                      *****************************

  NA   - Mulliken gross atomic population
  ZA   - Total nuclear charge
  QA   - Mulliken gross atomic charge
  VA   - Mayer's total valence
  BVA  - Mayer's bonded valence
  FA   - Mayer's free valence

  ATOM       NA         ZA         QA         VA         BVA        FA
  0 O      8.3881     8.0000    -0.3881     2.1014     2.1014    -0.0000
  1 O      8.3945     8.0000    -0.3945     2.0970     2.0970     0.0000
  2 O      8.3803     8.0000    -0.3803     2.1027     2.1027     0.0000
  3 O      8.3919     8.0000    -0.3919     2.1027     2.1027     0.0000
  4 C      6.1901     6.0000    -0.1901     3.7371     3.7371     0.0000
  5 C      6.0279     6.0000    -0.0279     3.6712     3.6712    -0.0000
  6 C      5.6885     6.0000     0.3115     4.3064     4.3064     0.0000
  7 C      5.6581     6.0000     0.3419     4.3088     4.3088     0.0000
  8 C      6.2408     6.0000    -0.2408     3.8949     3.8949    -0.0000
  9 H      0.8470     1.0000     0.1530     0.9864     0.9864     0.0000
 10 H      0.8356     1.0000     0.1644     0.9745     0.9745     0.0000
 11 H      0.8385     1.0000     0.1615     0.9644     0.9644     0.0000
 12 H      0.8446     1.0000     0.1554     0.9807     0.9807     0.0000
 13 H      0.6363     1.0000     0.3637     0.8959     0.8959    -0.0000
 14 H      0.6377     1.0000     0.3623     0.8996     0.8996     0.0000

  Mayer bond orders larger than 0.100000
B(  0-O ,  6-C ) :   1.2626 B(  0-O , 13-H ) :   0.8336 B(  1-O ,  7-C ) :   1.2476 
B(  1-O , 14-H ) :   0.8347 B(  2-O ,  6-C ) :   2.0208 B(  3-O ,  7-C ) :   2.0023 
B(  4-C ,  5-C ) :   0.9388 B(  4-C ,  6-C ) :   0.9738 B(  4-C ,  9-H ) :   0.9333 
B(  4-C , 10-H ) :   0.9358 B(  5-C ,  7-C ) :   1.0027 B(  5-C ,  8-C ) :   1.8212 
B(  8-C , 11-H ) :   0.9554 B(  8-C , 12-H ) :   0.9546 

-------
TIMINGS
-------

Total SCF time: 0 days 0 hours 0 min 31 sec 

Total time                  ....      31.534 sec
Sum of individual times     ....      31.027 sec  ( 98.4%)

Fock matrix formation       ....      28.861 sec  ( 91.5%)
  Split-RI-J                ....       2.124 sec  (  7.4% of F)
  Chain of spheres X        ....      19.746 sec  ( 68.4% of F)
  XC integration            ....       3.350 sec  ( 11.6% of F)
    Basis function eval.    ....       0.893 sec  ( 26.7% of XC)
    Density eval.           ....       1.109 sec  ( 33.1% of XC)
    XC-Functional eval.     ....       0.139 sec  (  4.2% of XC)
    XC-Potential eval.      ....       1.023 sec  ( 30.5% of XC)
Diagonalization             ....       0.325 sec  (  1.0%)
Density matrix formation    ....       0.015 sec  (  0.0%)
Population analysis         ....       0.039 sec  (  0.1%)
Initial guess               ....       0.245 sec  (  0.8%)
Orbital Transformation      ....       0.000 sec  (  0.0%)
Orbital Orthonormalization  ....       0.000 sec  (  0.0%)
DIIS solution               ....       0.122 sec  (  0.4%)
SOSCF solution              ....       0.172 sec  (  0.5%)
Grid generation             ....       1.249 sec  (  4.0%)

Maximum memory used throughout the entire SCF-calculation: 78.7 MB


           ************************************************************
           *        Program running with 8 parallel MPI-processes     *
           *              working on a common directory               *
           ************************************************************
------------------------------------------------------------------------------
                        ORCA TD-DFT/TDA CALCULATION
------------------------------------------------------------------------------

Input orbitals are from        ... MA.tddft.gbw
CI-vector output               ... MA.tddft.cis
Tamm-Dancoff approximation     ... operative
CIS-Integral strategy          ... AO-integrals
Integral handling              ... AO integral Direct
Max. core memory used          ... 512 MB
Reference state                ... RHF
Generation of triplets         ... off
Follow IRoot                   ... off
Number of operators            ... 1
Orbital ranges used for CIS calculation:
 Operator 0:  Orbitals   9... 33  to  34...314
XAS localization array:
 Operator 0:  Orbitals  -1... -1

-------------------
XC-INTEGRATION GRID
-------------------

General Integration Accuracy     IntAcc      ... 3.467
Radial Grid Type                 RadialGrid  ... OptM3 with GC (2021)
Angular Grid (max. ang.)         AngularGrid ... 1 (Lebedev-50)
Angular grid pruning method      GridPruning ... 4 (adaptive)
Weight generation scheme         WeightScheme... Becke
Basis function cutoff            BFCut       ... 1.0000e-10
Integration weight cutoff        WCut        ... 1.0000e-14
Angular grids for H and He will be reduced by one unit
Partially contracted basis set               ... off
Rotationally invariant grid construction     ... off

Total number of grid points                  ...    10951
Total number of batches                      ...      179
Average number of points per batch           ...       61
Average number of grid points per atom       ...      730

---------------------
COSX-INTEGRATION GRID
---------------------

General Integration Accuracy     IntAcc      ... 3.067
Radial Grid Type                 RadialGrid  ... OptM3 with GC (2021)
Angular Grid (max. ang.)         AngularGrid ... 1 (Lebedev-50)
Angular grid pruning method      GridPruning ... 4 (adaptive)
Weight generation scheme         WeightScheme... Becke
Basis function cutoff            BFCut       ... 1.0000e-10
Integration weight cutoff        WCut        ... 1.0000e-14
Angular grids for H and He will be reduced by one unit
Partially contracted basis set               ... on
Rotationally invariant grid construction     ... off

Total number of grid points                  ...     4993
Total number of batches                      ...       86
Average number of points per batch           ...       58
Average number of grid points per atom       ...      333

---------------
TD-DFT XC SETUP
---------------

DFT calculation                         ... on
Name of the grid file                   ... MA.tddft.grid_cis.tmp
Exchange functional (TD-DFT)            ... B88
   X-Alpha parameter    XAlpha (TD-DFT) ...  0.666667
   Becke's b parameter  XBeta (TD-DFT)  ...  0.004200
Correlation functional (TD-DFT)         ... LYP
 LDA part of GGA corr.  LDAOpt (TD-DFT) ... VWN-5
Hybrid DFT                              ... on
   Exchange mixing (TD-DFT)             ...  0.200
   GGA exch. scaling (TD-DFT)           ...  0.720
   GGA corr. scaling (TD-DFT)           ...  0.810

Building densities             ... done
Calculating rho(r) on the grid ... done
Building xc-kernel on the grid ... done
                    *** TD-DFT CALCULATION INITIALIZED ***

---------------------------------
    LR-CPCM (non-equilibrium)
---------------------------------

Setting up LR-CPCM             ... done

------------------------
DAVIDSON-DIAGONALIZATION
------------------------

Dimension of the eigenvalue problem            ...   7025
Number of roots to be determined               ...     30
Maximum size of the expansion space            ...    300
Maximum number of iterations                   ...    100
Convergence tolerance for the residual         ...    1.000e-06
Convergence tolerance for the energies         ...    1.000e-06
Orthogonality tolerance                        ...    1.000e-14
Level Shift                                    ...    0.000e+00
Constructing the preconditioner                ... o.k.
Building the initial guess                     ... o.k.
Number of trial vectors determined             ...    300


                       ****Iteration    0****

   Memory handling for direct AO based CIS:
   Memory per vector needed      ...     4 MB
   Memory needed                 ...   408 MB
   Memory available              ...   512 MB
   Number of vectors per batch   ...   112
   Number of batches             ...     1
   Time for densities:            0.257
   Time for RI-J (Direct):        1.877
   Time for K (COSX):            10.969
   Time for XC-Integration:       5.873
   Time for LR-CPCM terms:        4.663
   Time for Sigma-Completion:     0.184
   Size of expansion space: 90
   Lowest Energy          :     0.183086669644
   Maximum Energy change  :     0.349484448323 (vector 29)
   Maximum residual norm  :     0.015703595176

                       ****Iteration    1****
   Time for densities:            0.079
   Time for RI-J (Direct):        0.724
   Time for K (COSX):             3.567
   Time for XC-Integration:       2.024
   Time for LR-CPCM terms:        1.759
   Time for Sigma-Completion:     0.069
   Size of expansion space: 120
   Lowest Energy          :     0.182112387674
   Maximum Energy change  :     0.017173552519 (vector 3)
   Maximum residual norm  :     0.001734911305

                       ****Iteration    2****
   Time for densities:            0.087
   Time for RI-J (Direct):        0.740
   Time for K (COSX):             3.562
   Time for XC-Integration:       2.028
   Time for LR-CPCM terms:        1.755
   Time for Sigma-Completion:     0.063
   Size of expansion space: 150
   Lowest Energy          :     0.182096450012
   Maximum Energy change  :     0.002765986544 (vector 29)
   Maximum residual norm  :     0.000050214358

                       ****Iteration    3****
   Time for densities:            0.080
   Time for RI-J (Direct):        0.739
   Time for K (COSX):             3.572
   Time for XC-Integration:       2.044
   Time for LR-CPCM terms:        1.755
   Time for Sigma-Completion:     0.062
   Size of expansion space: 180
   Lowest Energy          :     0.182096352039
   Maximum Energy change  :     0.000064740934 (vector 29)
   Maximum residual norm  :     0.000000717195

      *** CONVERGENCE OF RESIDUAL NORM REACHED ***

Storing the converged CI vectors               ... MA.tddft.cis1

                 *** DAVIDSON DONE ***

Total time for solving the CIS problem:    50.086sec

------------------------------------
TD-DFT/TDA EXCITED STATES (SINGLETS)
------------------------------------

the weight of the individual excitations are printed if larger than 1.0e-02

STATE  1:  E=   0.182096 au      4.955 eV    39965.5 cm**-1 <S**2> =   0.000000
    31a ->  34a  :     0.039235 (c=  0.19807846)
    32a ->  34a  :     0.855604 (c= -0.92498846)
    33a ->  34a  :     0.084759 (c= -0.29113444)

STATE  2:  E=   0.203952 au      5.550 eV    44762.3 cm**-1 <S**2> =   0.000000
    31a ->  34a  :     0.549506 (c=  0.74128660)
    31a ->  35a  :     0.011280 (c= -0.10620565)
    32a ->  34a  :     0.112530 (c=  0.33545439)
    33a ->  34a  :     0.315034 (c= -0.56127902)

STATE  3:  E=   0.222745 au      6.061 eV    48886.8 cm**-1 <S**2> =   0.000000
    31a ->  34a  :     0.019708 (c=  0.14038492)
    31a ->  35a  :     0.588191 (c=  0.76693635)
    32a ->  35a  :     0.089191 (c=  0.29864844)
    33a ->  35a  :     0.291608 (c= -0.54000762)

STATE  4:  E=   0.232424 au      6.325 eV    51011.2 cm**-1 <S**2> =   0.000000
    31a ->  34a  :     0.360503 (c= -0.60041909)
    31a ->  35a  :     0.011619 (c=  0.10779042)
    32a ->  34a  :     0.010862 (c=  0.10422272)
    33a ->  34a  :     0.525493 (c= -0.72490888)
    33a ->  38a  :     0.011191 (c= -0.10578740)

STATE  5:  E=   0.249154 au      6.780 eV    54683.1 cm**-1 <S**2> =   0.000000
    29a ->  34a  :     0.151301 (c=  0.38897402)
    30a ->  34a  :     0.837571 (c=  0.91518920)

STATE  6:  E=   0.251859 au      6.853 eV    55276.7 cm**-1 <S**2> =   0.000000
    31a ->  35a  :     0.278552 (c=  0.52778067)
    32a ->  35a  :     0.014832 (c=  0.12178568)
    33a ->  35a  :     0.688245 (c=  0.82960523)

STATE  7:  E=   0.261838 au      7.125 eV    57466.7 cm**-1 <S**2> =   0.000000
    29a ->  34a  :     0.721422 (c= -0.84936555)
    30a ->  34a  :     0.110551 (c=  0.33249230)
    32a ->  35a  :     0.059186 (c= -0.24328123)
    32a ->  36a  :     0.012842 (c= -0.11332384)
    33a ->  38a  :     0.010671 (c=  0.10330020)

STATE  8:  E=   0.263732 au      7.177 eV    57882.6 cm**-1 <S**2> =   0.000000
    29a ->  34a  :     0.049837 (c=  0.22324284)
    31a ->  35a  :     0.092608 (c=  0.30431527)
    32a ->  35a  :     0.829182 (c= -0.91059435)

STATE  9:  E=   0.267982 au      7.292 eV    58815.2 cm**-1 <S**2> =   0.000000
    27a ->  34a  :     0.012090 (c=  0.10995457)
    28a ->  34a  :     0.970356 (c= -0.98506648)

STATE 10:  E=   0.290876 au      7.915 eV    63840.0 cm**-1 <S**2> =   0.000000
    30a ->  35a  :     0.020180 (c=  0.14205522)
    31a ->  36a  :     0.039531 (c=  0.19882343)
    31a ->  37a  :     0.022870 (c= -0.15122745)
    32a ->  36a  :     0.011541 (c=  0.10742750)
    33a ->  36a  :     0.873777 (c= -0.93476055)

STATE 11:  E=   0.291275 au      7.926 eV    63927.4 cm**-1 <S**2> =   0.000000
    24a ->  34a  :     0.013813 (c= -0.11752924)
    25a ->  34a  :     0.029539 (c=  0.17186855)
    27a ->  34a  :     0.799877 (c=  0.89435843)
    28a ->  34a  :     0.013294 (c=  0.11530111)
    32a ->  37a  :     0.029428 (c=  0.17154465)
    32a ->  38a  :     0.055283 (c= -0.23512255)
    32a ->  39a  :     0.012047 (c= -0.10975884)

STATE 12:  E=   0.298606 au      8.125 eV    65536.6 cm**-1 <S**2> =   0.000000
    30a ->  35a  :     0.076713 (c= -0.27697082)
    31a ->  36a  :     0.495195 (c= -0.70370078)
    31a ->  37a  :     0.059179 (c=  0.24326692)
    32a ->  36a  :     0.134310 (c= -0.36648292)
    33a ->  36a  :     0.074652 (c= -0.27322609)
    33a ->  37a  :     0.108532 (c= -0.32944210)

STATE 13:  E=   0.299966 au      8.162 eV    65834.9 cm**-1 <S**2> =   0.000000
    27a ->  34a  :     0.067185 (c=  0.25920138)
    30a ->  35a  :     0.018047 (c=  0.13433897)
    31a ->  36a  :     0.100995 (c=  0.31779635)
    32a ->  36a  :     0.331759 (c= -0.57598527)
    32a ->  37a  :     0.251955 (c= -0.50195097)
    32a ->  38a  :     0.126694 (c=  0.35594078)
    32a ->  39a  :     0.024568 (c=  0.15674149)

STATE 14:  E=   0.300975 au      8.190 eV    66056.3 cm**-1 <S**2> =   0.000000
    27a ->  34a  :     0.037024 (c=  0.19241589)
    31a ->  36a  :     0.023204 (c= -0.15232993)
    31a ->  38a  :     0.011511 (c= -0.10728903)
    32a ->  36a  :     0.327779 (c=  0.57252028)
    32a ->  38a  :     0.353396 (c=  0.59447100)
    32a ->  39a  :     0.046566 (c=  0.21579097)
    33a ->  37a  :     0.019856 (c= -0.14090955)
    33a ->  38a  :     0.106256 (c=  0.32596966)

STATE 15:  E=   0.304523 au      8.286 eV    66835.1 cm**-1 <S**2> =   0.000000
    29a ->  35a  :     0.477943 (c= -0.69133427)
    30a ->  35a  :     0.451057 (c=  0.67160779)
    31a ->  36a  :     0.050216 (c= -0.22408911)

STATE 16:  E=   0.311098 au      8.465 eV    68278.2 cm**-1 <S**2> =   0.000000
    29a ->  35a  :     0.122431 (c=  0.34990207)
    30a ->  35a  :     0.037504 (c=  0.19365989)
    31a ->  36a  :     0.250464 (c= -0.50046398)
    31a ->  37a  :     0.147525 (c= -0.38408988)
    31a ->  38a  :     0.017575 (c=  0.13256889)
    31a ->  39a  :     0.012605 (c= -0.11227161)
    32a ->  37a  :     0.045338 (c= -0.21292725)
    32a ->  38a  :     0.018061 (c=  0.13439043)
    33a ->  37a  :     0.299748 (c=  0.54749214)
    33a ->  38a  :     0.016767 (c= -0.12948916)

STATE 17:  E=   0.315252 au      8.578 eV    69189.7 cm**-1 <S**2> =   0.000000
    29a ->  35a  :     0.010189 (c= -0.10094109)
    31a ->  37a  :     0.052025 (c=  0.22809043)
    32a ->  36a  :     0.019634 (c= -0.14012291)
    32a ->  37a  :     0.015193 (c=  0.12326108)
    32a ->  38a  :     0.010361 (c= -0.10178698)
    33a ->  37a  :     0.254605 (c=  0.50458361)
    33a ->  38a  :     0.475499 (c=  0.68956455)
    33a ->  39a  :     0.105857 (c= -0.32535707)

STATE 18:  E=   0.318773 au      8.674 eV    69962.7 cm**-1 <S**2> =   0.000000
    25a ->  34a  :     0.407818 (c= -0.63860630)
    26a ->  34a  :     0.463792 (c= -0.68102294)
    27a ->  34a  :     0.019904 (c=  0.14108087)
    29a ->  35a  :     0.010665 (c=  0.10327026)
    31a ->  37a  :     0.015870 (c= -0.12597468)
    33a ->  38a  :     0.038791 (c=  0.19695384)

STATE 19:  E=   0.321981 au      8.762 eV    70666.7 cm**-1 <S**2> =   0.000000
    24a ->  34a  :     0.059617 (c=  0.24416611)
    26a ->  34a  :     0.116465 (c= -0.34126963)
    29a ->  35a  :     0.044541 (c= -0.21104844)
    30a ->  35a  :     0.025387 (c= -0.15933371)
    31a ->  37a  :     0.067212 (c=  0.25925334)
    31a ->  38a  :     0.042399 (c=  0.20590904)
    31a ->  39a  :     0.043871 (c=  0.20945491)
    32a ->  37a  :     0.076119 (c=  0.27589601)
    32a ->  38a  :     0.137866 (c=  0.37130315)
    33a ->  36a  :     0.020368 (c= -0.14271807)
    33a ->  37a  :     0.162539 (c=  0.40316078)
    33a ->  38a  :     0.091859 (c= -0.30308296)
    33a ->  39a  :     0.044753 (c=  0.21154795)

[...]
    24a ->  34a  :     0.083746 (c= -0.28938868)
    25a ->  34a  :     0.421051 (c= -0.64888462)
    26a ->  34a  :     0.243016 (c=  0.49296645)
    29a ->  35a  :     0.025027 (c= -0.15819981)
    31a ->  37a  :     0.046272 (c=  0.21511013)
    31a ->  38a  :     0.014608 (c=  0.12086338)
    32a ->  38a  :     0.010435 (c=  0.10215103)
    33a ->  37a  :     0.039778 (c=  0.19944452)
    33a ->  38a  :     0.032982 (c= -0.18161021)

STATE 21:  E=   0.323007 au      8.789 eV    70891.8 cm**-1 <S**2> =   0.000000
    25a ->  34a  :     0.012216 (c=  0.11052404)
    26a ->  34a  :     0.075102 (c= -0.27404819)
    30a ->  36a  :     0.018009 (c= -0.13419729)
    31a ->  37a  :     0.102944 (c=  0.32084855)
    31a ->  38a  :     0.030458 (c=  0.17452118)
    32a ->  36a  :     0.099954 (c=  0.31615548)
    32a ->  37a  :     0.423680 (c= -0.65090716)
    32a ->  38a  :     0.145334 (c= -0.38122633)
    32a ->  39a  :     0.013605 (c=  0.11664061)
    33a ->  37a  :     0.012455 (c=  0.11160163)
    33a ->  38a  :     0.013679 (c= -0.11695870)

STATE 22:  E=   0.324524 au      8.831 eV    71224.9 cm**-1 <S**2> =   0.000000
    24a ->  34a  :     0.240182 (c= -0.49008325)
    25a ->  34a  :     0.047993 (c=  0.21907380)
    26a ->  34a  :     0.020384 (c= -0.14277100)
    27a ->  34a  :     0.014827 (c= -0.12176678)
    31a ->  36a  :     0.011740 (c=  0.10835116)
    31a ->  37a  :     0.025302 (c= -0.15906607)
    31a ->  38a  :     0.280012 (c=  0.52916158)
    32a ->  38a  :     0.043553 (c=  0.20869348)
    33a ->  37a  :     0.017803 (c= -0.13342951)
    33a ->  38a  :     0.023093 (c= -0.15196369)
    33a ->  39a  :     0.239776 (c= -0.48966959)

STATE 23:  E=   0.325715 au      8.863 eV    71486.1 cm**-1 <S**2> =   0.000000
    24a ->  34a  :     0.549413 (c= -0.74122397)
    25a ->  34a  :     0.020328 (c=  0.14257601)
    26a ->  34a  :     0.038818 (c= -0.19702285)
    27a ->  34a  :     0.012977 (c= -0.11391493)
    31a ->  37a  :     0.023240 (c=  0.15244539)
    31a ->  38a  :     0.110261 (c= -0.33205522)
    33a ->  37a  :     0.012913 (c=  0.11363354)
    33a ->  39a  :     0.186240 (c=  0.43155485)

STATE 24:  E=   0.330938 au      9.005 eV    72632.5 cm**-1 <S**2> =   0.000000
    27a ->  35a  :     0.014370 (c=  0.11987440)
    28a ->  35a  :     0.013398 (c=  0.11574990)
    29a ->  35a  :     0.121323 (c= -0.34831383)
    29a ->  37a  :     0.029844 (c= -0.17275311)
    30a ->  35a  :     0.120048 (c= -0.34648000)
    30a ->  36a  :     0.132802 (c=  0.36442018)
    31a ->  37a  :     0.214500 (c= -0.46314133)
    31a ->  38a  :     0.108097 (c= -0.32878155)
    31a ->  39a  :     0.097131 (c=  0.31165907)
    32a ->  37a  :     0.024001 (c= -0.15492180)
    32a ->  39a  :     0.012821 (c=  0.11323197)
    33a ->  37a  :     0.021342 (c=  0.14608950)
    33a ->  39a  :     0.027157 (c= -0.16479281)

STATE 25:  E=   0.331703 au      9.026 eV    72800.5 cm**-1 <S**2> =   0.000000
    26a ->  35a  :     0.012166 (c=  0.11030072)
    28a ->  35a  :     0.036653 (c=  0.19145092)
    29a ->  35a  :     0.018023 (c= -0.13424983)
    29a ->  36a  :     0.022205 (c= -0.14901509)
    29a ->  37a  :     0.070240 (c=  0.26502896)
    30a ->  35a  :     0.019713 (c= -0.14040292)
    30a ->  36a  :     0.627090 (c= -0.79189019)
    30a ->  37a  :     0.023585 (c=  0.15357475)
    31a ->  37a  :     0.098850 (c= -0.31440379)
    31a ->  39a  :     0.010875 (c=  0.10428460)

STATE 26:  E=   0.334453 au      9.101 eV    73403.9 cm**-1 <S**2> =   0.000000
    23a ->  34a  :     0.011238 (c= -0.10600774)
    26a ->  35a  :     0.053978 (c=  0.23233091)
    27a ->  35a  :     0.011954 (c=  0.10933474)
    28a ->  35a  :     0.596367 (c=  0.77224781)
    30a ->  36a  :     0.034235 (c=  0.18502659)
    31a ->  38a  :     0.132705 (c=  0.36428731)
    33a ->  38a  :     0.025063 (c=  0.15831229)
    33a ->  39a  :     0.077909 (c=  0.27912159)

STATE 27:  E=   0.335913 au      9.141 eV    73724.4 cm**-1 <S**2> =   0.000000
    23a ->  34a  :     0.014075 (c= -0.11864002)
    26a ->  35a  :     0.013189 (c= -0.11484375)
    28a ->  35a  :     0.103483 (c= -0.32168744)
    29a ->  35a  :     0.012957 (c= -0.11382678)
    29a ->  36a  :     0.273775 (c=  0.52323487)
    30a ->  35a  :     0.018464 (c= -0.13588194)
    30a ->  37a  :     0.140769 (c= -0.37519191)
    30a ->  38a  :     0.010670 (c= -0.10329755)
    31a ->  37a  :     0.068242 (c= -0.26123257)
    31a ->  38a  :     0.059311 (c=  0.24353913)
    31a ->  39a  :     0.020123 (c=  0.14185597)
    32a ->  39a  :     0.011052 (c=  0.10512881)
    33a ->  38a  :     0.031053 (c=  0.17621723)
    33a ->  39a  :     0.123614 (c=  0.35158815)
    33a ->  41a  :     0.022628 (c=  0.15042738)

STATE 28:  E=   0.336679 au      9.161 eV    73892.4 cm**-1 <S**2> =   0.000000
    23a ->  34a  :     0.015841 (c= -0.12586283)
    28a ->  35a  :     0.112780 (c= -0.33582704)
    29a ->  36a  :     0.333990 (c= -0.57791842)
    29a ->  38a  :     0.019200 (c= -0.13856450)
    30a ->  36a  :     0.010333 (c=  0.10165067)
    30a ->  37a  :     0.110406 (c=  0.33227435)
    30a ->  38a  :     0.030317 (c=  0.17411761)
    31a ->  38a  :     0.126814 (c=  0.35610928)
    31a ->  39a  :     0.022595 (c=  0.15031642)
    33a ->  38a  :     0.054329 (c=  0.23308680)
    33a ->  39a  :     0.079380 (c=  0.28174442)

STATE 29:  E=   0.341300 au      9.287 eV    74906.6 cm**-1 <S**2> =   0.000000
    29a ->  35a  :     0.010454 (c= -0.10224303)
    30a ->  35a  :     0.010720 (c= -0.10353647)
    32a ->  37a  :     0.064768 (c= -0.25449521)
    32a ->  38a  :     0.031858 (c=  0.17848739)
    32a ->  39a  :     0.804398 (c= -0.89688236)
    33a ->  40a  :     0.014295 (c=  0.11956027)

STATE 30:  E=   0.342782 au      9.328 eV    75232.0 cm**-1 <S**2> =   0.000000
    27a ->  35a  :     0.071436 (c=  0.26727490)
    28a ->  35a  :     0.018790 (c= -0.13707589)
    29a ->  35a  :     0.048640 (c= -0.22054379)
    30a ->  35a  :     0.059872 (c= -0.24468794)
    31a ->  37a  :     0.011089 (c= -0.10530240)
    31a ->  39a  :     0.678659 (c= -0.82380757)
    33a ->  39a  :     0.013450 (c=  0.11597453)


-----------------------------
TD-DFT/TDA-EXCITATION SPECTRA
-----------------------------

Center of mass = ( -0.1032,  0.1788,  0.0574)
Calculating the Dipole integrals                  ... done
Transforming integrals                            ... done
Calculating the Linear Momentum integrals         ... done
Transforming integrals                            ... done
Calculating angular momentum integrals            ... done
Transforming integrals                            ... done

-----------------------------------------------------------------------------
         ABSORPTION SPECTRUM VIA TRANSITION ELECTRIC DIPOLE MOMENTS
-----------------------------------------------------------------------------
State   Energy    Wavelength  fosc         T2        TX        TY        TZ  
        (cm-1)      (nm)                 (au**2)    (au)      (au)      (au) 
-----------------------------------------------------------------------------
   1   39965.5    250.2   0.000458578   0.00378   0.01398  -0.05806  -0.01453
   2   44762.3    223.4   0.009757323   0.07176  -0.03545  -0.26533  -0.01037
   3   48886.8    204.6   0.000708644   0.00477  -0.05262  -0.03483   0.02810
   4   51011.2    196.0   0.327597856   2.11422  -0.11090  -1.43781  -0.18608
   5   54683.1    182.9   0.006952714   0.04186  -0.05851   0.18132  -0.07454
   6   55276.7    180.9   0.010888696   0.06485   0.08756   0.23763  -0.02669
   7   57466.7    174.0   0.101524852   0.58161  -0.33213   0.66002  -0.18886
   8   57882.6    172.8   0.012774468   0.07266   0.17631  -0.19768  -0.04995
   9   58815.2    170.0   0.002249367   0.01259  -0.06118  -0.06271  -0.07011
  10   63840.0    156.6   0.015747351   0.08121  -0.21799   0.01520   0.18291
  11   63927.4    156.4   0.003212497   0.01654   0.06692   0.10688  -0.02533
  12   65536.6    152.6   0.085549281   0.42974   0.46639  -0.37813  -0.26314
  13   65834.9    151.9   0.018145850   0.09074   0.00379  -0.27821   0.11543
  14   66056.3    151.4   0.018852119   0.09396   0.09928   0.28600  -0.04800
  15   66835.1    149.6   0.001048098   0.00516   0.06556   0.02775   0.00972
  16   68278.2    146.5   0.014821451   0.07146  -0.06449   0.21493   0.14529
  17   69189.7    144.5   0.007127892   0.03392   0.17053  -0.00435  -0.06940
  18   69962.7    142.9   0.060247297   0.28350   0.50198  -0.01102   0.17718
  19   70666.7    141.5   0.089377137   0.41638  -0.37366   0.48911  -0.19373
  20   70713.1    141.4   0.088209821   0.41067  -0.58163   0.15532  -0.21967
  21   70891.8    141.1   0.040531973   0.18823  -0.38919  -0.05802  -0.18274
  22   71224.9    140.4   0.006957350   0.03216   0.00407   0.12437  -0.12913
  23   71486.1    139.9   0.010454139   0.04814   0.05477   0.20327   0.06184
  24   72632.5    137.7   0.144802303   0.65633  -0.65988   0.35289  -0.31041
  25   72800.5    137.4   0.006928222   0.03133  -0.16142   0.06098  -0.03944
  26   73403.9    136.2   0.045464928   0.20391   0.17939  -0.38022   0.16480
  27   73724.4    135.6   0.065341361   0.29178   0.18916  -0.50557  -0.01986
  28   73892.4    135.3   0.091350910   0.40699   0.38444  -0.50911   0.00236
  29   74906.6    133.5   0.001941518   0.00853  -0.05017   0.06825  -0.03684
  30   75232.0    132.9   0.126544000   0.55375  -0.60032   0.21821  -0.38178

-----------------------------------------------------------------------------
         ABSORPTION SPECTRUM VIA TRANSITION VELOCITY DIPOLE MOMENTS
-----------------------------------------------------------------------------
State   Energy    Wavelength   fosc        P2         PX        PY        PZ  
        (cm-1)      (nm)                 (au**2)     (au)      (au)      (au) 
-----------------------------------------------------------------------------
   1   39965.5    250.2   0.001254978   0.00034   0.00459   0.00354  -0.01759
   2   44762.3    223.4   0.001941004   0.00059   0.00520   0.02360   0.00311
   3   48886.8    204.6   0.000835992   0.00028   0.00309  -0.01642  -0.00004
   4   51011.2    196.0   0.079571241   0.02774  -0.01252   0.16501   0.01884
   5   54683.1    182.9   0.001192287   0.00045  -0.01315  -0.01603  -0.00394
   6   55276.7    180.9   0.000970746   0.00037  -0.00323  -0.01744   0.00721
   7   57466.7    174.0   0.006662835   0.00262   0.00765  -0.05040  -0.00429
   8   57882.6    172.8   0.002548605   0.00101  -0.01378   0.02174   0.01859
   9   58815.2    170.0   0.001333182   0.00054   0.00384   0.01514   0.01709
  10   63840.0    156.6   0.019653304   0.00858   0.08304  -0.01235  -0.03907
  11   63927.4    156.4   0.004364034   0.00191  -0.01998  -0.02539   0.02937
  12   65536.6    152.6   0.064749914   0.02900  -0.13583   0.09451   0.04024
  13   65834.9    151.9   0.013297625   0.00598   0.01954   0.07482  -0.00171
  14   66056.3    151.4   0.017916188   0.00809  -0.03927  -0.08051   0.00802
  15   66835.1    149.6   0.001172500   0.00054  -0.01925  -0.00314   0.01246
  16   68278.2    146.5   0.005103126   0.00238   0.02406  -0.04232   0.00338
  17   69189.7    144.5   0.005047138   0.00239  -0.04839  -0.00662  -0.00108
  18   69962.7    142.9   0.027454743   0.01313  -0.11090   0.00457  -0.02841
  19   70666.7    141.5   0.033273806   0.01607   0.06622  -0.10739  -0.01239
  20   70713.1    141.4   0.035303458   0.01706   0.12440  -0.03642   0.01613
  21   70891.8    141.1   0.024592830   0.01192   0.10189   0.02979   0.02542
  22   71224.9    140.4   0.005188990   0.00253  -0.01285  -0.02556   0.04132
  23   71486.1    139.9   0.003948855   0.00193  -0.02021  -0.03897  -0.00159
  24   72632.5    137.7   0.049881499   0.02476   0.13864  -0.07418   0.00608
  25   72800.5    137.4   0.006455961   0.00321   0.03725  -0.03559  -0.02362
  26   73403.9    136.2   0.025259663   0.01267  -0.03079   0.10528  -0.02529
  27   73724.4    135.6   0.028850173   0.01454  -0.03097   0.11319  -0.02769
  28   73892.4    135.3   0.036532966   0.01845  -0.10217   0.08727   0.01986
  29   74906.6    133.5   0.001567251   0.00080   0.00195  -0.02326  -0.01605
  30   75232.0    132.9   0.042377110   0.02179   0.12978  -0.04892   0.05053

-------------------------------------------------------------------
                             CD SPECTRUM
-------------------------------------------------------------------
State  Energy     Wavelength     R         MX        MY        MZ   
       (cm-1)       (nm)     (1e40*cgs)   (au)      (au)      (au)  
-------------------------------------------------------------------
   1   39965.5    250.2     -0.18971   0.19886   0.02127   0.13397
   2   44762.3    223.4     24.10212  -0.02670  -0.19266   0.09069
   3   48886.8    204.6     -0.69861  -0.12832  -0.08368  -0.39674
   4   51011.2    196.0      2.18214  -0.05304   0.02388  -0.17779
   5   54683.1    182.9      0.23267   0.03622   0.02718   0.03107
   6   55276.7    180.9     -4.34953   0.08123  -0.07530  -0.05826
   7   57466.7    174.0    -28.52969   0.05209  -0.04127   0.08459
   8   57882.6    172.8      5.91657   0.02576  -0.06590   0.10048
   9   58815.2    170.0      4.83635   0.07543  -0.20514  -0.02865
  10   63840.0    156.6    -13.01496   0.08000  -0.03512  -0.05267
  11   63927.4    156.4     16.02421   0.36069   0.14376   0.21760
  12   65536.6    152.6     21.83196   0.19659   0.16317  -0.06201
  13   65834.9    151.9    -38.26283  -0.04192   0.09692  -0.46815
  14   66056.3    151.4     -0.81617  -0.27647   0.13983   0.29742
  15   66835.1    149.6      0.44987  -0.03388   0.06274   0.14758
  16   68278.2    146.5     19.27908   0.04898   0.21481  -0.01458
  17   69189.7    144.5      6.16998   0.09704   0.14044   0.04105
  18   69962.7    142.9     -4.45977  -0.03510  -0.43279   0.01913
  19   70666.7    141.5     38.12605  -0.03562   0.13716  -0.00244
  20   70713.1    141.4    -10.65255  -0.01186  -0.28811  -0.06944
  21   70891.8    141.1     -7.56019   0.13296   0.16360  -0.24734
  22   71224.9    140.4     -4.13436   0.33872   0.06811   0.14418
  23   71486.1    139.9     -7.63993   0.23509  -0.17532   0.10599
  24   72632.5    137.7     35.45471  -0.12507  -0.06219  -0.04710
  25   72800.5    137.4    -27.98845   0.32644  -0.19583  -0.13355
  26   73403.9    136.2     23.03659   0.13739  -0.03479   0.06667
  27   73724.4    135.6     -7.42553  -0.09602  -0.01460   0.25014
  28   73892.4    135.3     -6.06255  -0.25483  -0.16806  -0.19297
  29   74906.6    133.5     -3.55013   0.09881  -0.10058  -0.11650
  30   75232.0    132.9     -4.64472  -0.09111  -0.14495   0.08621

-------------------------------------------------------------------
         CD SPECTRUM VIA TRANSITION VELOCITY DIPOLE MOMENTS        
-------------------------------------------------------------------
State  Energy     Wavelength     R         MX        MY        MZ   
       (cm-1)       (nm)     (1e40*cgs)   (au)      (au)      (au)  
-------------------------------------------------------------------
   1   39965.5    250.2     -3.54374   0.19886   0.02127   0.13397
   2   44762.3    223.4    -10.17978  -0.02670  -0.19266   0.09069
   3   48886.8    204.6      2.09966  -0.12832  -0.08368  -0.39674
   4   51011.2    196.0      2.54710  -0.05304   0.02388  -0.17779
   5   54683.1    182.9     -1.95778   0.03622   0.02718   0.03107
   6   55276.7    180.9      1.18055   0.08123  -0.07530  -0.05826
   7   57466.7    174.0      3.80861   0.05209  -0.04127   0.08459
   8   57882.6    172.8      0.14388   0.02576  -0.06590   0.10048
   9   58815.2    170.0     -5.81422   0.07543  -0.20514  -0.02865
  10   63840.0    156.6     14.80576   0.08000  -0.03512  -0.05267
  11   63927.4    156.4     -7.22529   0.36069   0.14376   0.21760
  12   65536.6    152.6    -21.75148   0.19659   0.16317  -0.06201
  13   65834.9    151.9     11.36611  -0.04192   0.09692  -0.46815
  14   66056.3    151.4      3.10804  -0.27647   0.13983   0.29742
  15   66835.1    149.6      3.55241  -0.03388   0.06274   0.14758
  16   68278.2    146.5    -12.06507   0.04898   0.21481  -0.01458
  17   69189.7    144.5     -8.47969   0.09704   0.14044   0.04105
  18   69962.7    142.9      2.02576  -0.03510  -0.43279   0.01913
  19   70666.7    141.5    -24.97630  -0.03562   0.13716  -0.00244
  20   70713.1    141.4     11.55482  -0.01186  -0.28811  -0.06944
  21   70891.8    141.1     17.70732   0.13296   0.16360  -0.24734
  22   71224.9    140.4     -0.19644   0.33872   0.06811   0.14418
  23   71486.1    139.9      2.76614   0.23509  -0.17532   0.10599
  24   72632.5    137.7    -18.53766  -0.12507  -0.06219  -0.04710
  25   72800.5    137.4     31.67323   0.32644  -0.19583  -0.13355
  26   73403.9    136.2    -13.50327   0.13739  -0.03479   0.06667
  27   73724.4    135.6     -7.86626  -0.09602  -0.01460   0.25014
  28   73892.4    135.3     10.55464  -0.25483  -0.16806  -0.19297
  29   74906.6    133.5      6.08049   0.09881  -0.10058  -0.11650
  30   75232.0    132.9     -0.51719  -0.09111  -0.14495   0.08621

Total run time:       50.917 sec

           *** ORCA-CIS/TD-DFT FINISHED WITHOUT ERROR ***

Maximum memory used throughout the entire CIS-calculation: 373.6 MB

-----------------------
CIS/TD-DFT TOTAL ENERGY
-----------------------

    E(SCF)  =   -495.031302890 Eh
    DE(CIS) =      0.182096352 Eh (Root  1)
    ----------------------------- ---------
    E(tot)  =   -494.849206538 Eh


-------------------------   --------------------
FINAL SINGLE POINT ENERGY      -494.849206537871
-------------------------   --------------------


                            ***************************************
                            *     ORCA property calculations      *
                            ***************************************

                                    ---------------------
                                    Active property flags
                                    ---------------------
   (+) Dipole Moment


------------------------------------------------------------------------------
                       ORCA ELECTRIC PROPERTIES CALCULATION
------------------------------------------------------------------------------

Dipole Moment Calculation                       ... on
Quadrupole Moment Calculation                   ... off
Polarizability Calculation                      ... off
GBWName                                         ... MA.tddft.gbw
Electron density                                ... MA.tddft.scfp
The origin for moment calculation is the CENTER OF MASS  = (-0.103204,  0.178822  0.057359)

-------------
DIPOLE MOMENT
-------------
                                X             Y             Z
Electronic contribution:     -0.16487       2.99220       1.64359
Nuclear contribution   :     -0.91745      -3.03537      -2.92665
                        -----------------------------------------
Total Dipole Moment    :     -1.08232      -0.04317      -1.28306
                        -----------------------------------------
Magnitude (a.u.)       :      1.67915
Magnitude (Debye)      :      4.26806



--------------------
Rotational spectrum 
--------------------
 
Rotational constants in cm-1:     0.095290     0.037793     0.032398 
Rotational constants in MHz :  2856.726883  1133.013379   971.255336 

 Dipole components along the rotational axes: 
x,y,z [a.u.] :    -1.119245    -0.375412    -1.194109 
x,y,z [Debye]:    -2.844895    -0.954221    -3.035184 

 

Timings for individual modules:

Sum of individual times         ...       83.401 sec (=   1.390 min)
GTO integral calculation        ...        0.586 sec (=   0.010 min)   0.7 %
SCF iterations                  ...       31.703 sec (=   0.528 min)  38.0 %
CIS module                      ...       51.112 sec (=   0.852 min)  61.3 %
                             ****ORCA TERMINATED NORMALLY****
TOTAL RUN TIME: 0 days 0 hours 1 minutes 23 seconds 854 msec
