[Molden Format]
[Atoms] (AU)
H       1    1    -0.145235E+01   0.000000E+00   0.899624E+00
H       2    1     0.145235E+01   0.000000E+00   0.899624E+00
Se      3   34     0.000000E+00   0.000000E+00  -0.224906E+00
[GTO]
  1 0 
 s    1 1.00
  0.1225200000E+02  0.1000000000E+01
 s    1 1.00
  0.1868700000E+01  0.1000000000E+01
 s    1 1.00
  0.4182100000E+00  0.1000000000E+01
 s    1 1.00
  0.1061000000E+00  0.1000000000E+01
 p    1 1.00
  0.1000000000E+01  0.1000000000E+01
 
  2 0 
 s    1 1.00
  0.1225200000E+02  0.1000000000E+01
 s    1 1.00
  0.1868700000E+01  0.1000000000E+01
 s    1 1.00
  0.4182100000E+00  0.1000000000E+01
 s    1 1.00
  0.1061000000E+00  0.1000000000E+01
 p    1 1.00
  0.1000000000E+01  0.1000000000E+01
 
  3 0 
 s    1 1.00
  0.5989900000E+06  0.1000000000E+01
 s    1 1.00
  0.8978300000E+05  0.1000000000E+01
 s    1 1.00
  0.2043500000E+05  0.1000000000E+01
 s    1 1.00
  0.5786900000E+04  0.1000000000E+01
 s    1 1.00
  0.1887300000E+04  0.1000000000E+01
 s    1 1.00
  0.6809700000E+03  0.1000000000E+01
 s    1 1.00
  0.2653900000E+03  0.1000000000E+01
 s    1 1.00
  0.1086300000E+03  0.1000000000E+01
 s    1 1.00
  0.3376000000E+02  0.1000000000E+01
 s    1 1.00
  0.1446500000E+02  0.1000000000E+01
 s    1 1.00
  0.4389000000E+01  0.1000000000E+01
 s    1 1.00
  0.1878300000E+01  0.1000000000E+01
 s    1 1.00
  0.3585900000E+00  0.1000000000E+01
 s    1 1.00
  0.1364900000E+00  0.1000000000E+01
 p    1 1.00
  0.4135600000E+04  0.1000000000E+01
 p    1 1.00
  0.9803400000E+03  0.1000000000E+01
 p    1 1.00
  0.3163500000E+03  0.1000000000E+01
 p    1 1.00
  0.1192500000E+03  0.1000000000E+01
 p    1 1.00
  0.4906800000E+02  0.1000000000E+01
 p    1 1.00
  0.2121200000E+02  0.1000000000E+01
 p    1 1.00
  0.8946200000E+01  0.1000000000E+01
 p    1 1.00
  0.3823600000E+01  0.1000000000E+01
 p    1 1.00
  0.1588300000E+01  0.1000000000E+01
 p    1 1.00
  0.4096900000E+00  0.1000000000E+01
 p    1 1.00
  0.1245900000E+00  0.1000000000E+01
 d    1 1.00
  0.9447200000E+02  0.1000000000E+01
 d    1 1.00
  0.2718000000E+02  0.1000000000E+01
 d    1 1.00
  0.9506800000E+01  0.1000000000E+01
 d    1 1.00
  0.3416800000E+01  0.1000000000E+01
 d    1 1.00
  0.1147900000E+01  0.1000000000E+01
 d    1 1.00
  0.3682000000E+00  0.1000000000E+01
 
[5D]
[MO]
 Ene=    -467.9629
 Spin= Alpha
 Occup=   2.000000
   1   0.000002
   2   0.000010
   3   0.000054
   4  -0.000114
   5   0.000012
   6  -0.000000
   7  -0.000005
   8   0.000002
   9   0.000010
  10   0.000054
  11  -0.000114
  12  -0.000012
  13   0.000000
  14  -0.000005
  15  -0.001449
  16  -0.004563
  17  -0.014212
  18  -0.042658
  19  -0.120085
  20  -0.277498
  21  -0.412891
  22  -0.267940
  23  -0.028685
  24   0.006674
  25  -0.002464
  26   0.001247
  27  -0.000494
  28   0.000380
  29  -0.000000
  30  -0.000000
  31  -0.000000
  32   0.000000
  33   0.000000
  34  -0.000000
  35  -0.000000
  36   0.000000
  37  -0.000002
  38  -0.000000
  39  -0.000000
  40  -0.000004
  41   0.000000
  42   0.000000
  43   0.000004
  44  -0.000000
  45  -0.000000
  46  -0.000006
  47  -0.000000
  48   0.000000
  49   0.000012
  50   0.000000
  51  -0.000000
  52  -0.000018
  53  -0.000000
  54   0.000000
  55   0.000024
  56  -0.000000
  57  -0.000000
  58  -0.000070
  59  -0.000000
  60   0.000000
  61   0.000070
  62  -0.000000
  63   0.000000
  64  -0.000000
  65  -0.000000
  66  -0.000000
  67   0.000000
  68  -0.000000
  69   0.000000
  70   0.000001
  71   0.000000
  72  -0.000000
  73   0.000000
  74  -0.000000
  75  -0.000002
  76   0.000000
  77   0.000000
  78  -0.000000
  79   0.000000
  80   0.000003
  81  -0.000000
  82  -0.000000
  83  -0.000000
  84  -0.000000
  85  -0.000006
  86   0.000000
  87  -0.000001
  88  -0.000000
  89   0.000000
  90  -0.000006
  91  -0.000000
 Ene=     -62.2992
 Spin= Alpha
 Occup=   2.000000
   1  -0.000021
   2  -0.000093
   3  -0.000482
   4   0.001087
   5  -0.000088
   6  -0.000000
   7   0.000033
   8  -0.000021
   9  -0.000093
  10  -0.000482
  11   0.001087
  12   0.000088
  13  -0.000000
  14   0.000033
  15  -0.000467
  16  -0.001472
  17  -0.004667
  18  -0.014082
  19  -0.042553
  20  -0.106172
  21  -0.217717
  22  -0.160149
  23   0.499396
  24   0.608863
  25   0.072638
  26  -0.014153
  27   0.004742
  28  -0.003661
  29   0.000000
  30  -0.000000
  31   0.000001
  32   0.000000
  33   0.000000
  34   0.000005
  35   0.000000
  36   0.000000
  37   0.000018
  38   0.000000
  39   0.000000
  40   0.000067
  41   0.000000
  42   0.000000
  43   0.000117
  44   0.000000
  45   0.000000
  46   0.000158
  47   0.000000
  48   0.000000
  49   0.000004
  50   0.000000
  51   0.000000
  52   0.000189
  53  -0.000000
  54  -0.000000
  55  -0.000229
  56  -0.000000
  57   0.000000
  58   0.000611
  59   0.000000
  60   0.000000
  61  -0.000659
  62  -0.000000
  63   0.000000
  64  -0.000000
  65   0.000001
  66   0.000000
  67  -0.000002
  68   0.000000
  69  -0.000000
  70  -0.000001
  71  -0.000000
  72   0.000001
  73  -0.000000
  74  -0.000000
  75   0.000017
  76   0.000000
  77  -0.000002
  78   0.000000
  79   0.000000
  80  -0.000020
  81  -0.000000
  82   0.000003
  83  -0.000000
  84  -0.000000
  85   0.000042
  86  -0.000000
  87   0.000010
  88  -0.000000
  89   0.000000
  90   0.000053
  91   0.000000
 Ene=     -54.6197
 Spin= Alpha
 Occup=   2.000000
   1   0.000021
   2  -0.000037
   3   0.000075
   4  -0.000166
   5  -0.000087
   6   0.000000
   7   0.000059
   8  -0.000021
   9   0.000037
  10  -0.000075
  11   0.000166
  12  -0.000087
  13  -0.000000
  14  -0.000059
  15  -0.000000
  16  -0.000000
  17  -0.000000
  18  -0.000000
  19  -0.000000
  20  -0.000000
  21  -0.000000
  22  -0.000000
  23   0.000000
  24   0.000000
  25  -0.000000
  26   0.000000
  27  -0.000000
  28  -0.000000
  29  -0.002338
  30  -0.000000
  31  -0.000000
  32  -0.014025
  33  -0.000000
  34  -0.000000
  35  -0.064056
  36  -0.000000
  37  -0.000000
  38  -0.202549
  39  -0.000000
  40  -0.000000
  41  -0.401999
  42  -0.000000
  43  -0.000000
  44  -0.393451
  45  -0.000000
  46  -0.000000
  47  -0.111953
  48  -0.000000
  49  -0.000000
  50  -0.000097
  51  -0.000000
  52  -0.000000
  53  -0.002318
  54  -0.000000
  55  -0.000000
  56   0.000484
  57   0.000000
  58   0.000000
  59  -0.000217
  60  -0.000000
  61  -0.000000
  62  -0.000000
  63   0.000001
  64  -0.000000
  65   0.000000
  66   0.000000
  67  -0.000000
  68   0.000036
  69  -0.000000
  70   0.000000
  71  -0.000000
  72  -0.000000
  73  -0.000060
  74   0.000000
  75  -0.000000
  76   0.000000
  77  -0.000000
  78   0.000027
  79  -0.000000
  80   0.000000
  81   0.000000
  82  -0.000000
  83  -0.000095
  84   0.000000
  85  -0.000000
  86   0.000000
  87   0.000000
  88   0.000081
  89  -0.000000
  90   0.000000
  91   0.000000
 Ene=     -54.6191
 Spin= Alpha
 Occup=   2.000000
   1   0.000015
   2  -0.000026
   3  -0.000009
   4  -0.000038
   5  -0.000063
   6   0.000000
   7   0.000063
   8   0.000015
   9  -0.000026
  10  -0.000009
  11  -0.000038
  12   0.000063
  13   0.000000
  14   0.000063
  15   0.000000
  16   0.000001
  17   0.000002
  18   0.000006
  19   0.000017
  20   0.000044
  21   0.000084
  22   0.000073
  23  -0.000234
  24  -0.000262
  25   0.000094
  26  -0.000013
  27   0.000091
  28   0.000015
  29  -0.000000
  30   0.000000
  31   0.002338
  32  -0.000000
  33   0.000000
  34   0.014025
  35  -0.000000
  36   0.000000
  37   0.064057
  38  -0.000000
  39   0.000000
  40   0.202557
  41  -0.000000
  42   0.000000
  43   0.402004
  44  -0.000000
  45   0.000000
  46   0.393469
  47  -0.000000
  48   0.000000
  49   0.111893
  50  -0.000000
  51   0.000000
  52   0.000149
  53  -0.000000
  54   0.000000
  55   0.002252
  56   0.000000
  57  -0.000000
  58  -0.000413
  59  -0.000000
  60   0.000000
  61   0.000145
  62   0.000003
  63   0.000000
  64   0.000000
  65  -0.000003
  66   0.000000
  67   0.000006
  68   0.000000
  69   0.000000
  70  -0.000014
  71   0.000000
  72   0.000007
  73  -0.000000
  74   0.000000
  75   0.000010
  76  -0.000000
  77   0.000001
  78   0.000000
  79   0.000000
  80  -0.000009
  81   0.000000
  82   0.000003
  83  -0.000000
  84   0.000000
  85   0.000023
  86   0.000000
  87  -0.000002
  88   0.000000
  89  -0.000000
  90  -0.000009
  91  -0.000000
 Ene=     -54.6186
 Spin= Alpha
 Occup=   2.000000
   1   0.000000
   2  -0.000000
   3   0.000000
   4  -0.000000
   5   0.000000
   6   0.000015
   7  -0.000000
   8  -0.000000
   9   0.000000
  10   0.000000
  11   0.000000
  12  -0.000000
  13   0.000015
  14  -0.000000
  15  -0.000000
  16  -0.000000
  17  -0.000000
  18  -0.000000
  19  -0.000000
  20  -0.000000
  21  -0.000000
  22  -0.000000
  23   0.000000
  24   0.000000
  25  -0.000000
  26   0.000000
  27  -0.000000
  28   0.000000
  29  -0.000000
  30   0.002338
  31  -0.000000
  32  -0.000000
  33   0.014025
  34  -0.000000
  35  -0.000000
  36   0.064057
  37  -0.000000
  38  -0.000000
  39   0.202560
  40  -0.000000
  41  -0.000000
  42   0.402002
  43  -0.000000
  44  -0.000000
  45   0.393496
  46  -0.000000
  47  -0.000000
  48   0.111843
  49  -0.000000
  50  -0.000000
  51   0.000187
  52  -0.000000
  53  -0.000000
  54   0.002203
  55  -0.000000
  56   0.000000
  57  -0.000451
  58   0.000000
  59  -0.000000
  60   0.000150
  61  -0.000000
  62  -0.000000
  63   0.000000
  64   0.000010
  65   0.000000
  66   0.000000
  67  -0.000000
  68   0.000000
  69   0.000020
  70   0.000000
  71   0.000000
  72  -0.000000
  73  -0.000000
  74   0.000019
  75  -0.000000
  76   0.000000
  77   0.000000
  78   0.000000
  79   0.000006
  80   0.000000
  81   0.000000
  82  -0.000000
  83  -0.000000
  84   0.000004
  85  -0.000000
  86  -0.000000
  87  -0.000000
  88   0.000000
  89  -0.000006
  90   0.000000
  91  -0.000000
 Ene=      -9.1966
 Spin= Alpha
 Occup=   2.000000
   1  -0.000149
   2  -0.001279
   3  -0.000580
   4  -0.005474
   5  -0.001309
   6  -0.000000
   7   0.000937
   8  -0.000149
   9  -0.001279
  10  -0.000580
  11  -0.005474
  12   0.001309
  13  -0.000000
  14   0.000937
  15  -0.000184
  16  -0.000582
  17  -0.001842
  18  -0.005603
  19  -0.016891
  20  -0.043336
  21  -0.090304
  22  -0.074744
  23   0.320984
  24   0.526616
  25  -0.572150
  26  -0.689751
  27  -0.037350
  28   0.021046
  29   0.000000
  30   0.000000
  31   0.000009
  32   0.000000
  33   0.000000
  34   0.000052
  35   0.000000
  36  -0.000000
  37   0.000248
  38   0.000000
  39   0.000000
  40   0.000793
  41   0.000000
  42   0.000000
  43   0.001757
  44   0.000000
  45   0.000000
  46   0.001424
  47  -0.000000
  48   0.000000
  49  -0.001420
  50  -0.000000
  51  -0.000000
  52  -0.005637
  53  -0.000000
  54   0.000000
  55  -0.004114
  56  -0.000000
  57   0.000000
  58  -0.000102
  59  -0.000000
  60   0.000000
  61   0.003399
  62  -0.000000
  63  -0.000000
  64  -0.000000
  65  -0.000019
  66  -0.000000
  67  -0.000003
  68  -0.000000
  69  -0.000000
  70  -0.000123
  71  -0.000000
  72  -0.000003
  73  -0.000000
  74   0.000000
  75  -0.000259
  76  -0.000000
  77  -0.000015
  78   0.000000
  79   0.000000
  80  -0.000651
  81   0.000000
  82  -0.000010
  83  -0.000000
  84  -0.000000
  85  -0.000365
  86  -0.000000
  87   0.000031
  88  -0.000000
  89   0.000000
  90   0.000341
  91  -0.000000
 Ene=      -6.7206
 Spin= Alpha
 Occup=   2.000000
   1   0.000535
   2   0.003391
   3   0.001479
   4   0.002849
   5   0.001669
   6  -0.000000
   7  -0.001852
   8  -0.000535
   9  -0.003391
  10  -0.001479
  11  -0.002849
  12   0.001669
  13   0.000000
  14   0.001852
  15   0.000000
  16   0.000000
  17   0.000000
  18   0.000000
  19   0.000000
  20   0.000000
  21   0.000000
  22   0.000000
  23  -0.000000
  24  -0.000000
  25   0.000000
  26   0.000000
  27  -0.000000
  28  -0.000000
  29   0.000933
  30   0.000000
  31   0.000000
  32   0.005632
  33   0.000000
  34   0.000000
  35   0.026360
  36   0.000000
  37   0.000000
  38   0.086708
  39   0.000000
  40   0.000000
  41   0.184946
  42   0.000000
  43   0.000000
  44   0.167691
  45   0.000000
  46   0.000000
  47  -0.225506
  48  -0.000000
  49  -0.000000
  50  -0.583019
  51  -0.000000
  52  -0.000000
  53  -0.334563
  54  -0.000000
  55  -0.000000
  56  -0.017379
  57  -0.000000
  58  -0.000000
  59   0.004776
  60   0.000000
  61  -0.000000
  62  -0.000000
  63  -0.000160
  64  -0.000000
  65  -0.000000
  66   0.000000
  67  -0.000000
  68  -0.000998
  69  -0.000000
  70  -0.000000
  71  -0.000000
  72   0.000000
  73  -0.002379
  74  -0.000000
  75  -0.000000
  76  -0.000000
  77  -0.000000
  78  -0.004101
  79  -0.000000
  80  -0.000000
  81  -0.000000
  82  -0.000000
  83  -0.002077
  84  -0.000000
  85  -0.000000
  86  -0.000000
  87  -0.000000
  88   0.001300
  89   0.000000
  90  -0.000000
  91  -0.000000
 Ene=      -6.7100
 Spin= Alpha
 Occup=   2.000000
   1   0.000391
   2   0.002664
   3   0.002012
   4   0.001222
   5   0.002184
   6  -0.000000
   7  -0.001119
   8   0.000391
   9   0.002664
  10   0.002012
  11   0.001222
  12  -0.002184
  13  -0.000000
  14  -0.001119
  15  -0.000002
  16  -0.000007
  17  -0.000023
  18  -0.000069
  19  -0.000211
  20  -0.000532
  21  -0.001141
  22  -0.000888
  23   0.003896
  24   0.007277
  25  -0.010595
  26  -0.005008
  27  -0.001302
  28  -0.003129
  29   0.000000
  30   0.000000
  31  -0.000934
  32   0.000000
  33   0.000000
  34  -0.005638
  35   0.000000
  36   0.000000
  37  -0.026388
  38   0.000000
  39   0.000000
  40  -0.086791
  41   0.000000
  42   0.000000
  43  -0.185157
  44   0.000000
  45   0.000000
  46  -0.167796
  47  -0.000000
  48  -0.000000
  49   0.225746
  50  -0.000000
  51  -0.000000
  52   0.584207
  53  -0.000000
  54  -0.000000
  55   0.333611
  56   0.000000
  57  -0.000000
  58   0.016878
  59   0.000000
  60   0.000000
  61  -0.003309
  62   0.000023
  63   0.000000
  64  -0.000000
  65   0.000022
  66  -0.000000
  67   0.000145
  68   0.000000
  69  -0.000000
  70   0.000143
  71  -0.000000
  72   0.000329
  73   0.000000
  74  -0.000000
  75   0.000330
  76  -0.000000
  77   0.000795
  78   0.000000
  79  -0.000000
  80   0.000474
  81  -0.000000
  82   0.000643
  83   0.000000
  84  -0.000000
  85  -0.000120
  86  -0.000000
  87  -0.000158
  88   0.000000
  89   0.000000
  90  -0.000309
  91  -0.000000
 Ene=      -6.6973
 Spin= Alpha
 Occup=   2.000000
   1   0.000000
   2  -0.000000
   3   0.000000
   4   0.000000
   5   0.000000
   6  -0.000598
   7   0.000000
   8  -0.000000
   9  -0.000000
  10   0.000000
  11   0.000000
  12  -0.000000
  13  -0.000598
  14  -0.000000
  15  -0.000000
  16  -0.000000
  17   0.000000
  18   0.000000
  19   0.000000
  20   0.000000
  21   0.000000
  22   0.000000
  23  -0.000000
  24  -0.000000
  25   0.000000
  26   0.000000
  27  -0.000000
  28  -0.000000
  29  -0.000000
  30   0.000935
  31   0.000000
  32  -0.000000
  33   0.005644
  34   0.000000
  35  -0.000000
  36   0.026420
  37   0.000000
  38  -0.000000
  39   0.086890
  40   0.000000
  41  -0.000000
  42   0.185395
  43   0.000000
  44  -0.000000
  45   0.167951
  46   0.000000
  47   0.000000
  48  -0.226014
  49  -0.000000
  50   0.000000
  51  -0.585512
  52  -0.000000
  53   0.000000
  54  -0.332788
  55  -0.000000
  56   0.000000
  57  -0.018553
  58  -0.000000
  59  -0.000000
  60   0.002696
  61  -0.000000
  62  -0.000000
  63   0.000000
  64  -0.000068
  65  -0.000000
  66  -0.000000
  67   0.000000
  68   0.000000
  69  -0.000422
  70  -0.000000
  71  -0.000000
  72   0.000000
  73  -0.000000
  74  -0.000967
  75   0.000000
  76  -0.000000
  77   0.000000
  78   0.000000
  79  -0.002322
  80  -0.000000
  81  -0.000000
  82  -0.000000
  83  -0.000000
  84  -0.001905
  85  -0.000000
  86  -0.000000
  87  -0.000000
  88  -0.000000
  89   0.000426
  90   0.000000
  91  -0.000000
 Ene=      -2.5971
 Spin= Alpha
 Occup=   2.000000
   1  -0.002632
   2  -0.016908
   3  -0.018755
   4  -0.004784
   5  -0.003990
   6   0.000000
   7   0.000775
   8   0.002632
   9   0.016908
  10   0.018755
  11   0.004784
  12  -0.003990
  13  -0.000000
  14  -0.000775
  15   0.000000
  16  -0.000000
  17  -0.000000
  18  -0.000000
  19  -0.000000
  20  -0.000000
  21  -0.000000
  22  -0.000000
  23   0.000000
  24   0.000000
  25  -0.000000
  26  -0.000000
  27   0.000000
  28   0.000000
  29   0.000016
  30  -0.000000
  31   0.000000
  32   0.000092
  33   0.000000
  34   0.000000
  35   0.000460
  36  -0.000000
  37   0.000000
  38   0.001396
  39  -0.000000
  40   0.000000
  41   0.003362
  42  -0.000000
  43   0.000000
  44   0.002201
  45   0.000000
  46   0.000000
  47  -0.002452
  48   0.000000
  49  -0.000000
  50  -0.015112
  51   0.000000
  52  -0.000000
  53   0.000179
  54   0.000000
  55  -0.000000
  56   0.000607
  57  -0.000000
  58   0.000000
  59  -0.009930
  60  -0.000000
  61   0.000000
  62   0.000000
  63   0.023603
  64  -0.000000
  65   0.000000
  66   0.000000
  67   0.000000
  68   0.135376
  69  -0.000000
  70   0.000000
  71   0.000000
  72   0.000000
  73   0.359112
  74  -0.000000
  75   0.000000
  76   0.000000
  77   0.000000
  78   0.481863
  79  -0.000000
  80   0.000000
  81   0.000000
  82   0.000000
  83   0.276760
  84  -0.000000
  85   0.000000
  86   0.000000
  87   0.000000
  88   0.014850
  89  -0.000000
  90   0.000000
  91   0.000000
 Ene=      -2.5825
 Spin= Alpha
 Occup=   2.000000
   1  -0.001334
   2  -0.009187
   3  -0.015037
   4  -0.004077
   5  -0.001022
   6   0.000000
   7   0.005155
   8  -0.001334
   9  -0.009187
  10  -0.015037
  11  -0.004077
  12   0.001022
  13  -0.000000
  14   0.005155
  15   0.000001
  16   0.000004
  17   0.000014
  18   0.000041
  19   0.000127
  20   0.000313
  21   0.000697
  22   0.000497
  23  -0.002244
  24  -0.004859
  25   0.007404
  26   0.005748
  27  -0.006180
  28   0.017986
  29  -0.000000
  30  -0.000000
  31   0.000000
  32  -0.000000
  33   0.000000
  34   0.000001
  35  -0.000000
  36  -0.000000
  37   0.000002
  38  -0.000000
  39  -0.000000
  40   0.000020
  41  -0.000000
  42  -0.000000
  43   0.000010
  44  -0.000000
  45   0.000000
  46   0.000088
  47   0.000000
  48  -0.000000
  49  -0.000424
  50   0.000000
  51   0.000000
  52   0.000092
  53   0.000000
  54   0.000000
  55   0.001115
  56  -0.000000
  57  -0.000000
  58   0.005931
  59  -0.000000
  60   0.000000
  61   0.004946
  62   0.003643
  63   0.000000
  64  -0.000000
  65  -0.010054
  66  -0.000000
  67   0.020909
  68   0.000000
  69  -0.000000
  70  -0.057708
  71  -0.000000
  72   0.055401
  73   0.000000
  74  -0.000000
  75  -0.152923
  76  -0.000000
  77   0.074577
  78   0.000000
  79  -0.000000
  80  -0.205704
  81  -0.000000
  82   0.042068
  83   0.000000
  84  -0.000000
  85  -0.115940
  86  -0.000000
  87   0.003223
  88  -0.000000
  89  -0.000000
  90  -0.006878
  91  -0.000000
 Ene=      -2.5711
 Spin= Alpha
 Occup=   2.000000
   1   0.000000
   2   0.000000
   3   0.000000
   4   0.000000
   5   0.000000
   6   0.003899
   7  -0.000000
   8   0.000000
   9   0.000000
  10   0.000000
  11   0.000000
  12  -0.000000
  13  -0.003899
  14  -0.000000
  15  -0.000000
  16  -0.000000
  17  -0.000000
  18  -0.000000
  19  -0.000000
  20  -0.000000
  21  -0.000000
  22  -0.000000
  23   0.000000
  24   0.000000
  25  -0.000000
  26  -0.000000
  27   0.000000
  28  -0.000000
  29  -0.000000
  30  -0.000000
  31   0.000000
  32  -0.000000
  33  -0.000000
  34   0.000000
  35  -0.000000
  36  -0.000000
  37   0.000000
  38  -0.000000
  39  -0.000000
  40   0.000000
  41  -0.000000
  42  -0.000000
  43   0.000000
  44   0.000000
  45  -0.000000
  46   0.000000
  47  -0.000000
  48   0.000000
  49  -0.000000
  50   0.000000
  51   0.000000
  52  -0.000000
  53  -0.000000
  54  -0.000000
  55   0.000000
  56   0.000000
  57  -0.000000
  58   0.000000
  59   0.000000
  60   0.000000
  61  -0.000000
  62   0.000000
  63   0.000000
  64  -0.000000
  65   0.000000
  66  -0.023841
  67   0.000000
  68   0.000000
  69  -0.000000
  70   0.000000
  71  -0.136886
  72   0.000000
  73   0.000000
  74  -0.000000
  75   0.000000
  76  -0.362583
  77   0.000000
  78   0.000000
  79  -0.000000
  80   0.000000
  81  -0.487947
  82   0.000000
  83   0.000000
  84  -0.000000
  85   0.000000
  86  -0.271652
  87   0.000000
  88   0.000000
  89  -0.000000
  90   0.000000
  91  -0.020601
 Ene=      -2.5673
 Spin= Alpha
 Occup=   2.000000
   1  -0.001118
   2  -0.007149
   3  -0.007654
   4  -0.003749
   5  -0.002526
   6   0.000000
   7  -0.000554
   8  -0.001118
   9  -0.007149
  10  -0.007654
  11  -0.003749
  12   0.002526
  13  -0.000000
  14  -0.000554
  15   0.000001
  16   0.000003
  17   0.000011
  18   0.000032
  19   0.000098
  20   0.000246
  21   0.000534
  22   0.000406
  23  -0.001822
  24  -0.003599
  25   0.005109
  26   0.006206
  27  -0.010123
  28   0.013083
  29   0.000000
  30  -0.000000
  31  -0.000010
  32   0.000000
  33   0.000000
  34  -0.000056
  35   0.000000
  36   0.000000
  37  -0.000276
  38   0.000000
  39   0.000000
  40  -0.000851
  41   0.000000
  42   0.000000
  43  -0.002006
  44   0.000000
  45   0.000000
  46  -0.001405
  47  -0.000000
  48  -0.000000
  49   0.001847
  50  -0.000000
  51  -0.000000
  52   0.008858
  53   0.000000
  54  -0.000000
  55  -0.000793
  56  -0.000000
  57  -0.000000
  58  -0.002455
  59  -0.000000
  60   0.000000
  61   0.004866
  62  -0.005837
  63   0.000000
  64   0.000000
  65  -0.006313
  66  -0.000000
  67  -0.033512
  68   0.000000
  69   0.000000
  70  -0.036240
  71  -0.000000
  72  -0.088767
  73   0.000000
  74   0.000000
  75  -0.096030
  76  -0.000000
  77  -0.119417
  78   0.000000
  79   0.000000
  80  -0.129011
  81  -0.000000
  82  -0.066295
  83   0.000000
  84   0.000000
  85  -0.071829
  86  -0.000000
  87  -0.005152
  88  -0.000000
  89   0.000000
  90  -0.005163
  91  -0.000000
 Ene=      -2.5644
 Spin= Alpha
 Occup=   2.000000
   1   0.000000
   2   0.000000
   3   0.000000
   4  -0.000000
   5  -0.000000
   6  -0.002707
   7  -0.000000
   8  -0.000000
   9  -0.000000
  10  -0.000000
  11  -0.000000
  12   0.000000
  13  -0.002707
  14   0.000000
  15  -0.000000
  16   0.000000
  17  -0.000000
  18   0.000000
  19   0.000000
  20   0.000000
  21   0.000000
  22   0.000000
  23  -0.000000
  24  -0.000000
  25  -0.000000
  26   0.000000
  27  -0.000000
  28   0.000000
  29  -0.000000
  30  -0.000006
  31  -0.000000
  32  -0.000000
  33  -0.000038
  34  -0.000000
  35  -0.000000
  36  -0.000186
  37  -0.000000
  38  -0.000000
  39  -0.000581
  40  -0.000000
  41  -0.000000
  42  -0.001347
  43  -0.000000
  44  -0.000000
  45  -0.000993
  46  -0.000000
  47   0.000000
  48   0.001457
  49   0.000000
  50   0.000000
  51   0.005858
  52   0.000000
  53   0.000000
  54  -0.001178
  55  -0.000000
  56  -0.000000
  57  -0.002249
  58  -0.000000
  59   0.000000
  60   0.000881
  61   0.000000
  62  -0.000000
  63  -0.000000
  64  -0.023873
  65  -0.000000
  66   0.000000
  67  -0.000000
  68  -0.000000
  69  -0.137080
  70  -0.000000
  71   0.000000
  72  -0.000000
  73  -0.000000
  74  -0.363063
  75  -0.000000
  76   0.000000
  77  -0.000000
  78  -0.000000
  79  -0.488485
  80  -0.000000
  81   0.000000
  82  -0.000000
  83  -0.000000
  84  -0.270369
  85  -0.000000
  86   0.000000
  87  -0.000000
  88  -0.000000
  89  -0.021408
  90  -0.000000
  91   0.000000
 Ene=      -1.1090
 Spin= Alpha
 Occup=   2.000000
   1   0.012715
   2   0.096746
   3   0.200016
   4   0.017530
   5   0.025236
   6  -0.000000
   7  -0.018506
   8   0.012715
   9   0.096746
  10   0.200016
  11   0.017530
  12  -0.025236
  13  -0.000000
  14  -0.018506
  15  -0.000049
  16  -0.000155
  17  -0.000490
  18  -0.001490
  19  -0.004507
  20  -0.011539
  21  -0.024333
  22  -0.020029
  23   0.090335
  24   0.161595
  25  -0.230955
  26  -0.388700
  27   0.548465
  28   0.217299
  29  -0.000000
  30   0.000000
  31   0.000081
  32  -0.000000
  33   0.000000
  34   0.000478
  35  -0.000000
  36  -0.000000
  37   0.002314
  38  -0.000000
  39  -0.000000
  40   0.007346
  41  -0.000000
  42  -0.000000
  43   0.016749
  44  -0.000000
  45  -0.000000
  46   0.012790
  47   0.000000
  48  -0.000000
  49  -0.019526
  50   0.000000
  51   0.000000
  52  -0.074579
  53  -0.000000
  54   0.000000
  55  -0.012716
  56   0.000000
  57  -0.000000
  58   0.090645
  59  -0.000000
  60  -0.000000
  61   0.009385
  62  -0.000081
  63   0.000000
  64  -0.000000
  65  -0.000878
  66  -0.000000
  67  -0.000474
  68   0.000000
  69   0.000000
  70  -0.005101
  71  -0.000000
  72  -0.001224
  73   0.000000
  74   0.000000
  75  -0.013349
  76  -0.000000
  77  -0.001711
  78   0.000000
  79   0.000000
  80  -0.017927
  81  -0.000000
  82  -0.000214
  83   0.000000
  84   0.000000
  85  -0.003366
  86  -0.000000
  87   0.001170
  88   0.000000
  89   0.000000
  90  -0.001435
  91  -0.000000
 Ene=      -0.7068
 Spin= Alpha
 Occup=   2.000000
   1   0.016226
   2   0.120864
   3   0.331848
   4   0.078963
   5   0.025370
   6  -0.000000
   7  -0.027546
   8  -0.016226
   9  -0.120864
  10  -0.331848
  11  -0.078963
  12   0.025370
  13   0.000000
  14   0.027546
  15   0.000000
  16   0.000000
  17   0.000000
  18   0.000000
  19   0.000000
  20   0.000000
  21   0.000000
  22   0.000000
  23  -0.000000
  24  -0.000000
  25   0.000000
  26   0.000000
  27  -0.000000
  28  -0.000000
  29  -0.000225
  30   0.000000
  31   0.000000
  32  -0.001332
  33  -0.000000
  34   0.000000
  35  -0.006422
  36  -0.000000
  37   0.000000
  38  -0.020526
  39  -0.000000
  40   0.000000
  41  -0.046386
  42  -0.000000
  43   0.000000
  44  -0.036347
  45  -0.000000
  46   0.000000
  47   0.057458
  48   0.000000
  49  -0.000000
  50   0.205779
  51   0.000000
  52  -0.000000
  53   0.041916
  54   0.000000
  55   0.000000
  56  -0.356534
  57  -0.000000
  58  -0.000000
  59  -0.142685
  60  -0.000000
  61  -0.000000
  62  -0.000000
  63   0.003489
  64   0.000000
  65   0.000000
  66   0.000000
  67  -0.000000
  68   0.020171
  69   0.000000
  70   0.000000
  71   0.000000
  72  -0.000000
  73   0.053233
  74   0.000000
  75   0.000000
  76   0.000000
  77  -0.000000
  78   0.069505
  79   0.000000
  80   0.000000
  81   0.000000
  82  -0.000000
  83   0.010712
  84  -0.000000
  85  -0.000000
  86   0.000000
  87  -0.000000
  88  -0.021072
  89   0.000000
  90  -0.000000
  91  -0.000000
 Ene=      -0.4679
 Spin= Alpha
 Occup=   2.000000
   1   0.007464
   2   0.054956
   3   0.194332
   4   0.025952
   5   0.021229
   6   0.000000
   7  -0.003019
   8   0.007464
   9   0.054956
  10   0.194332
  11   0.025952
  12  -0.021229
  13   0.000000
  14  -0.003019
  15   0.000019
  16   0.000060
  17   0.000191
  18   0.000582
  19   0.001746
  20   0.004528
  21   0.009372
  22   0.008072
  23  -0.036338
  24  -0.061043
  25   0.083652
  26   0.183563
  27  -0.312704
  28  -0.422235
  29   0.000000
  30   0.000000
  31   0.000215
  32   0.000000
  33   0.000000
  34   0.001276
  35   0.000000
  36   0.000000
  37   0.006135
  38   0.000000
  39   0.000000
  40   0.019684
  41   0.000000
  42   0.000000
  43   0.044266
  44   0.000000
  45   0.000000
  46   0.035172
  47  -0.000000
  48  -0.000000
  49  -0.056604
  50  -0.000000
  51  -0.000000
  52  -0.195648
  53  -0.000000
  54  -0.000000
  55  -0.047090
  56   0.000000
  57   0.000000
  58   0.437804
  59   0.000000
  60   0.000000
  61   0.380904
  62  -0.000147
  63  -0.000000
  64  -0.000000
  65  -0.000482
  66  -0.000000
  67  -0.000851
  68  -0.000000
  69  -0.000000
  70  -0.002743
  71   0.000000
  72  -0.002241
  73  -0.000000
  74  -0.000000
  75  -0.007417
  76  -0.000000
  77  -0.002957
  78  -0.000000
  79  -0.000000
  80  -0.009045
  81   0.000000
  82  -0.000481
  83   0.000000
  84  -0.000000
  85  -0.002290
  86   0.000000
  87   0.008712
  88   0.000000
  89   0.000000
  90   0.000995
  91  -0.000000
 Ene=      -0.3646
 Spin= Alpha
 Occup=   2.000000
   1  -0.000000
   2  -0.000000
   3   0.000000
   4  -0.000000
   5  -0.000000
   6  -0.022343
   7  -0.000000
   8   0.000000
   9   0.000000
  10   0.000000
  11  -0.000000
  12  -0.000000
  13  -0.022343
  14  -0.000000
  15   0.000000
  16  -0.000000
  17   0.000000
  18   0.000000
  19   0.000000
  20   0.000000
  21   0.000000
  22   0.000000
  23  -0.000000
  24  -0.000000
  25   0.000000
  26   0.000000
  27  -0.000000
  28   0.000000
  29   0.000000
  30  -0.000224
  31   0.000000
  32  -0.000000
  33  -0.001329
  34   0.000000
  35   0.000000
  36  -0.006381
  37   0.000000
  38  -0.000000
  39  -0.020518
  40   0.000000
  41   0.000000
  42  -0.046005
  43   0.000000
  44  -0.000000
  45  -0.036853
  46   0.000000
  47   0.000000
  48   0.059794
  49  -0.000000
  50  -0.000000
  51   0.202414
  52   0.000000
  53   0.000000
  54   0.055585
  55  -0.000000
  56   0.000000
  57  -0.536362
  58  -0.000000
  59   0.000000
  60  -0.574301
  61   0.000000
  62   0.000000
  63   0.000000
  64   0.000451
  65  -0.000000
  66   0.000000
  67   0.000000
  68   0.000000
  69   0.002581
  70  -0.000000
  71   0.000000
  72   0.000000
  73  -0.000000
  74   0.006899
  75  -0.000000
  76   0.000000
  77   0.000000
  78   0.000000
  79   0.008789
  80  -0.000000
  81   0.000000
  82   0.000000
  83   0.000000
  84   0.002063
  85  -0.000000
  86   0.000000
  87   0.000000
  88  -0.000000
  89  -0.033861
  90  -0.000000
  91  -0.000000
 Ene=       0.1700
 Spin= Alpha
 Occup=   0.000000
   1   0.002443
   2   0.007895
   3   0.078449
   4  -1.806370
   5   0.026197
   6  -0.000000
   7  -0.015662
   8   0.002443
   9   0.007895
  10   0.078449
  11  -1.806370
  12  -0.026197
  13   0.000000
  14  -0.015662
  15  -0.000018
  16  -0.000056
  17  -0.000179
  18  -0.000534
  19  -0.001660
  20  -0.004086
  21  -0.009145
  22  -0.006522
  23   0.030191
  24   0.066561
  25  -0.112739
  26  -0.099931
  27  -0.124192
  28   2.759743
  29   0.000000
  30  -0.000000
  31   0.000037
  32   0.000000