
     Program PWSCF v.6.7MaX starts on 13Mar2025 at 15: 8:16 

     This program is part of the open-source Quantum ESPRESSO suite
     for quantum simulation of materials; please cite
         "P. Giannozzi et al., J. Phys.:Condens. Matter 21 395502 (2009);
         "P. Giannozzi et al., J. Phys.:Condens. Matter 29 465901 (2017);
          URL http://www.quantum-espresso.org", 
     in publications or presentations arising from this work. More details at
     http://www.quantum-espresso.org/quote

     Parallel version (MPI), running on     2 processors

     MPI processes distributed on     1 nodes
     R & G space division:  proc/nbgrp/npool/nimage =       2
     Waiting for input...
     Reading input from standard input
Warning: card &CELL ignored
Warning: card / ignored

     Current dimensions of program PWSCF are:
     Max number of different atomic species (ntypx) = 10
     Max number of k-points (npk) =  40000
     Max angular momentum in pseudopotentials (lmaxx) =  3
     Message from routine read_pp_mesh:
     mesh size missing, using the one in header

     Subspace diagonalization in iterative solution of the eigenvalue problem:
     a serial algorithm will be used


     Parallelization info
     --------------------
     sticks:   dense  smooth     PW     G-vecs:    dense   smooth      PW
     Min         522     236     75                15694     4649     827
     Max         523     239     76                15695     4650     828
     Sum        1045     475    151                31389     9299    1655



     bravais-lattice index     =            4
     lattice parameter (alat)  =       8.2509  a.u.
     unit-cell volume          =     551.8937 (a.u.)^3
     number of atoms/cell      =            3
     number of atomic types    =            1
     number of electrons       =        48.00
     number of Kohn-Sham states=           29
     kinetic-energy cutoff     =      25.0000  Ry
     charge density cutoff     =     225.0000  Ry
     scf convergence threshold =      1.0E-06
     mixing beta               =       0.7000
     number of iterations used =            8  plain     mixing
     energy convergence thresh.=      1.0E-04
     force convergence thresh. =      1.0E-03
     Exchange-correlation= PBE
                           (   1   4   3   4   0   0   0)
     nstep                     =          100


     celldm(1)=   8.250922  celldm(2)=   0.000000  celldm(3)=   1.134533
     celldm(4)=   0.000000  celldm(5)=   0.000000  celldm(6)=   0.000000

     crystal axes: (cart. coord. in units of alat)
               a(1) = (   1.000000   0.000000   0.000000 )  
               a(2) = (  -0.500000   0.866025   0.000000 )  
               a(3) = (   0.000000   0.000000   1.134533 )  

     reciprocal axes: (cart. coord. in units 2 pi/alat)
               b(1) = (  1.000000  0.577350 -0.000000 )  
               b(2) = (  0.000000  1.154701  0.000000 )  
               b(3) = (  0.000000 -0.000000  0.881420 )  


     PseudoPot. # 1 for Se read from file:
     ./Se.upf
     MD5 check sum: 3cc46b3642295b3f4fdae63b742ce36d
     Pseudo is Norm-conserving + core correction, Zval = 16.0
     Generated using ONCVPSP code by D. R. Hamann
     Using radial grid of 1214 points,  6 beta functions with: 
                l(1) =   0
                l(2) =   0
                l(3) =   1
                l(4) =   1
                l(5) =   2
                l(6) =   2

     atomic species   valence    mass     pseudopotential
        Se            16.00    78.96000     Se( 1.00)

      6 Sym. Ops. (no inversion) found ( 4 have fractional translation)



   Cartesian axes

     site n.     atom                  positions (alat units)
         1           Se  tau(   1) = (   0.2254000   0.0000000   0.3781778  )
         2           Se  tau(   2) = (  -0.1127000   0.1952021   0.7563556  )
         3           Se  tau(   3) = (   0.3873000   0.6708233   0.0000000  )

     number of k points=     6  Gaussian smearing, width (Ry)=  0.0100
                       cart. coord. in units 2pi/alat
        k(    1) = (   0.0000000   0.0000000   0.0000000), wk =   0.1111111
        k(    2) = (   0.0000000   0.0000000  -0.4407098), wk =   0.1111111
        k(    3) = (   0.0000000   0.3849002   0.0000000), wk =   0.6666667
        k(    4) = (   0.0000000   0.3849002  -0.4407098), wk =   0.6666667
        k(    5) = (   0.3333333   0.5773503   0.0000000), wk =   0.2222222
        k(    6) = (   0.3333333   0.5773503  -0.4407098), wk =   0.2222222

     Dense  grid:    31389 G-vectors     FFT dimensions: (  40,  40,  45)

     Smooth grid:     9299 G-vectors     FFT dimensions: (  27,  27,  30)

     Estimated max dynamical RAM per process >      13.66 MB

     Estimated total dynamical RAM >      27.33 MB

     Initial potential from superposition of free atoms

     starting charge   47.99979, renormalised to   48.00000
     Starting wfcs are   27 randomized atomic wfcs +    2 random wfcs

     total cpu time spent up to now is        0.1 secs

     Self-consistent Calculation

     iteration #  1     ecut=    25.00 Ry     beta= 0.70
     Davidson diagonalization with overlap
     ethr =  1.00E-02,  avg # of iterations =  5.5

     total cpu time spent up to now is        0.3 secs

     total energy              =    -652.29475959 Ry
     estimated scf accuracy    <      22.40853710 Ry

     iteration #  2     ecut=    25.00 Ry     beta= 0.70
     Davidson diagonalization with overlap
     ethr =  1.00E-02,  avg # of iterations =  2.8

     total cpu time spent up to now is        0.5 secs

     total energy              =    -654.54009100 Ry
     estimated scf accuracy    <       1.43762651 Ry

     iteration #  3     ecut=    25.00 Ry     beta= 0.70
     Davidson diagonalization with overlap
     ethr =  3.00E-03,  avg # of iterations =  2.0

     total cpu time spent up to now is        0.7 secs

     total energy              =    -654.60463349 Ry
     estimated scf accuracy    <       0.09248822 Ry

     iteration #  4     ecut=    25.00 Ry     beta= 0.70
     Davidson diagonalization with overlap
     ethr =  1.93E-04,  avg # of iterations =  2.7

     total cpu time spent up to now is        0.8 secs

     total energy              =    -654.62068389 Ry
     estimated scf accuracy    <       0.01453670 Ry

     iteration #  5     ecut=    25.00 Ry     beta= 0.70
     Davidson diagonalization with overlap
     ethr =  3.03E-05,  avg # of iterations =  2.7

     total cpu time spent up to now is        1.0 secs

     total energy              =    -654.62397514 Ry
     estimated scf accuracy    <       0.00026206 Ry

     iteration #  6     ecut=    25.00 Ry     beta= 0.70
     Davidson diagonalization with overlap
     ethr =  5.46E-07,  avg # of iterations =  5.2

     total cpu time spent up to now is        1.1 secs

     total energy              =    -654.62400470 Ry
     estimated scf accuracy    <       0.00000331 Ry

     iteration #  7     ecut=    25.00 Ry     beta= 0.70
     Davidson diagonalization with overlap
     ethr =  6.89E-09,  avg # of iterations =  2.0

     total cpu time spent up to now is        1.3 secs

     End of self-consistent calculation

          k = 0.0000 0.0000 0.0000 (  1167 PWs)   bands (ev):

   -31.2305 -31.2305 -30.5425 -30.0912 -30.0912 -29.4376 -29.3160 -29.3160
   -28.4948 -28.0395 -28.0395 -27.5936 -26.5345 -26.5345 -25.7931 -10.9805
    -7.8551  -7.8551   2.3361   2.3361   2.8060   4.6469   4.6469   5.6845
     7.4905   7.4905   8.3006  12.6409  15.8224

          k = 0.0000 0.0000-0.4407 (  1202 PWs)   bands (ev):

   -33.3005 -31.6000 -31.6000 -31.1309 -30.7985 -30.7985 -30.6678 -30.6345
   -30.6345 -29.7219 -29.7219 -29.3979 -28.3193 -28.3193 -27.6405 -10.0432
   -10.0432  -6.5355   1.7794   2.8626   2.8626   4.9974   4.9974   5.1456
     7.2434   7.3814   7.3814  15.3812  15.3813

          k = 0.0000 0.3849 0.0000 (  1158 PWs)   bands (ev):

   -30.9095 -30.3346 -30.2279 -29.6792 -29.0550 -28.9449 -28.3949 -28.2699
   -27.9450 -27.7905 -27.4249 -27.2831 -26.8193 -26.7107 -25.4545 -10.7437
    -8.0512  -7.8617   1.7696   1.9364   2.8842   4.1465   4.6619   5.3558
     7.6652   7.8601   8.8304  14.4825  15.0244

          k = 0.0000 0.3849-0.4407 (  1158 PWs)   bands (ev):

   -31.0798 -30.2670 -29.8217 -29.5921 -29.1924 -28.8652 -28.4917 -28.3173
   -28.0674 -27.8959 -27.5134 -27.0750 -26.9760 -26.4487 -26.2151  -9.9070
    -9.8349  -6.8767   1.2543   2.2559   2.3684   4.7657   5.0881   5.4569
     7.3269   8.1895   8.4269  14.9799  16.0408

          k = 0.3333 0.5774 0.0000 (  1164 PWs)   bands (ev):

   -31.7733 -31.7733 -30.0547 -29.1821 -28.8720 -28.8720 -28.1832 -28.1832
   -27.8463 -27.6429 -27.6429 -27.5365 -27.2863 -27.0456 -27.0456 -10.6182
    -8.0276  -8.0276   1.7527   1.7527   3.3799   3.7615   3.7615   4.9299
     8.3674   8.3674   9.0739  15.0881  16.2859

          k = 0.3333 0.5774-0.4407 (  1152 PWs)   bands (ev):

   -31.0132 -29.7566 -29.7566 -29.4450 -29.4450 -28.2049 -27.9217 -27.9217
   -27.7936 -27.2860 -26.8675 -26.8176 -26.8176 -26.2263 -26.2263  -9.7790
    -9.7790  -7.0522   1.1391   1.8148   1.8148   5.3225   5.7323   5.7323
     6.6383   8.4198   8.4198  15.4426  16.9091

     the Fermi energy is     6.1923 ev

!    total energy              =    -654.62400653 Ry
     estimated scf accuracy    <       0.00000013 Ry
     smearing contrib. (-TS)   =      -0.00000003 Ry
     internal energy E=F+TS    =    -654.62400650 Ry

     The total energy is F=E-TS. E is the sum of the following terms:
     one-electron contribution =    -339.90097353 Ry
     hartree contribution      =     182.97336811 Ry
     xc contribution           =    -131.55741724 Ry
     ewald contribution        =    -366.13898384 Ry

     convergence has been achieved in   7 iterations

     Forces acting on atoms (cartesian axes, Ry/au):

     atom    1 type  1   force =    -0.05497957    0.00000000    0.00000000
     atom    2 type  1   force =     0.02748978   -0.04761370    0.00000000
     atom    3 type  1   force =     0.02748978    0.04761370    0.00000000

     Total force =     0.095227     Total SCF correction =     0.001183

     BFGS Geometry Optimization
     Energy error            =      0.0E+00
     Gradient error          =      5.5E-02

     number of scf cycles    =   1
     number of bfgs steps    =   0

     energy   new            =    -654.6240065316 Ry

     new trust radius        =       0.0549795668 bohr
     new conv_thr            =       0.0000010000 Ry


ATOMIC_POSITIONS (angstrom)
Se            0.9550475462        0.0000000000        1.6512000000
Se           -0.4775237731        0.8270954368        3.3024000000
Se            1.7055762269        2.9541446812        0.0000000000



     Writing output data file ./pwscf.save/
     NEW-OLD atomic charge density approx. for the potential

     negative rho (up, down):  1.107E-02 0.000E+00

     total cpu time spent up to now is        1.4 secs

     Self-consistent Calculation

     iteration #  1     ecut=    25.00 Ry     beta= 0.70
     Davidson diagonalization with overlap
     ethr =  1.00E-06,  avg # of iterations =  7.3

     negative rho (up, down):  1.669E-04 0.000E+00

     total cpu time spent up to now is        1.8 secs

     total energy              =    -654.53863187 Ry
     estimated scf accuracy    <       0.36839978 Ry

     iteration #  2     ecut=    25.00 Ry     beta= 0.70
     Davidson diagonalization with overlap
     ethr =  7.67E-04,  avg # of iterations =  2.0

     negative rho (up, down):  1.508E-04 0.000E+00

     total cpu time spent up to now is        1.9 secs

     total energy              =    -654.60752748 Ry
     estimated scf accuracy    <       0.08844220 Ry

     iteration #  3     ecut=    25.00 Ry     beta= 0.70
     Davidson diagonalization with overlap
     ethr =  1.84E-04,  avg # of iterations =  2.0

     total cpu time spent up to now is        2.1 secs

     total energy              =    -654.63072440 Ry
     estimated scf accuracy    <       0.00504497 Ry

     iteration #  4     ecut=    25.00 Ry     beta= 0.70
     Davidson diagonalization with overlap
     ethr =  1.05E-05,  avg # of iterations =  2.0

     total cpu time spent up to now is        2.2 secs

     total energy              =    -654.63149227 Ry
     estimated scf accuracy    <       0.00007491 Ry

     iteration #  5     ecut=    25.00 Ry     beta= 0.70
     Davidson diagonalization with overlap
     ethr =  1.56E-07,  avg # of iterations =  2.5

     total cpu time spent up to now is        2.3 secs

     End of self-consistent calculation

          k = 0.0000 0.0000 0.0000 (  1167 PWs)   bands (ev):

   -31.2926 -31.2926 -30.3531 -29.9996 -29.9996 -29.3452 -29.3452 -29.2316
   -28.5203 -28.0602 -28.0602 -27.7732 -26.5643 -26.5643 -25.8687 -11.1418
    -7.8540  -7.8540   2.2129   2.2129   2.8155   4.5918   4.5918   5.7064
     7.6482   7.6482   8.6031  12.5962  15.8002

          k = 0.0000 0.0000-0.4407 (  1202 PWs)   bands (ev):

   -33.4253 -31.6502 -31.6502 -31.3490 -31.3107 -31.3107 -30.9683 -30.4163
   -30.4163 -29.6207 -29.6207 -29.5361 -27.7143 -27.7143 -27.6523 -10.1678
   -10.1678  -6.4134   1.5500   2.8010   2.8010   5.0415   5.0415   5.1177
     7.3030   7.6065   7.6065  15.3278  15.3278

          k = 0.0000 0.3849 0.0000 (  1158 PWs)   bands (ev):

   -31.0632 -30.4076 -30.2865 -29.7139 -29.0465 -28.9463 -28.4701 -28.2745
   -27.8981 -27.7582 -27.3494 -27.2423 -26.7691 -26.5788 -25.4713 -10.9239
    -8.0299  -7.8523   1.6508   1.8285   2.9151   4.1031   4.5796   5.3647
     7.8268   8.0484   9.0993  14.4342  15.0826

          k = 0.0000 0.3849-0.4407 (  1158 PWs)   bands (ev):

   -31.2148 -30.1953 -30.1604 -29.6112 -29.2214 -28.8873 -28.4737 -28.2087
   -27.9482 -27.7439 -27.5445 -27.0923 -26.8805 -26.4543 -26.2044 -10.0344
    -9.9737  -6.7383   1.0967   2.1852   2.3114   4.8439   5.0738   5.5116
     7.3381   8.3924   8.6326  14.9281  15.9757

          k = 0.3333 0.5774 0.0000 (  1164 PWs)   bands (ev):

   -32.0912 -32.0912 -30.1855 -29.3235 -28.6468 -28.6468 -28.2606 -28.2606
   -27.7110 -27.7110 -27.7081 -27.4015 -26.9990 -26.9849 -26.9849 -10.8122
    -8.0040  -8.0040   1.6247   1.6247   3.4174   3.7368   3.7368   4.9758
     8.4985   8.4985   9.3404  15.0878  16.3414

          k = 0.3333 0.5774-0.4407 (  1152 PWs)   bands (ev):

   -31.0220 -29.7905 -29.7905 -29.5377 -29.5377 -28.3062 -27.8885 -27.8885
   -27.7050 -27.1097 -26.8772 -26.8772 -26.6057 -26.2996 -26.2996  -9.9163
    -9.9163  -6.9039   0.9777   1.7907   1.7907   5.2473   5.7609   5.7609
     6.6681   8.6578   8.6578  15.3687  16.8766

     the Fermi energy is     6.2215 ev

!    total energy              =    -654.63150423 Ry
     estimated scf accuracy    <       0.00000100 Ry
     smearing contrib. (-TS)   =      -0.00000003 Ry
     internal energy E=F+TS    =    -654.63150421 Ry

     The total energy is F=E-TS. E is the sum of the following terms:
     one-electron contribution =    -344.63711959 Ry
     hartree contribution      =     185.34269326 Ry
     xc contribution           =    -131.60519802 Ry
     ewald contribution        =    -363.73187985 Ry

     convergence has been achieved in   5 iterations

     Forces acting on atoms (cartesian axes, Ry/au):

     atom    1 type  1   force =    -0.03079065   -0.00000000    0.00000000
     atom    2 type  1   force =     0.01539532   -0.02666548    0.00000000
     atom    3 type  1   force =     0.01539532    0.02666548    0.00000000

     Total force =     0.053331     Total SCF correction =     0.009106
     SCF correction compared to forces is large: reduce conv_thr to get better values
     Energy error            =      7.5E-03
     Gradient error          =      3.1E-02

     number of scf cycles    =   2
     number of bfgs steps    =   1

     energy   old            =    -654.6240065316 Ry
     energy   new            =    -654.6315042332 Ry

     CASE: energy  _new < energy  _old

     new trust radius        =       0.0604775235 bohr
     new conv_thr            =       0.0000003079 Ry


ATOMIC_POSITIONS (angstrom)
Se            0.9230442189        0.0000000000        1.6512000000
Se           -0.4615221095        0.7993797424        3.3024000000
Se            1.7215778905        2.9818603756        0.0000000000



     Writing output data file ./pwscf.save/
     NEW-OLD atomic charge density approx. for the potential

     negative rho (up, down):  1.773E-02 0.000E+00

     total cpu time spent up to now is        2.4 secs

     Self-consistent Calculation

     iteration #  1     ecut=    25.00 Ry     beta= 0.70
     Davidson diagonalization with overlap
     ethr =  1.00E-06,  avg # of iterations =  7.3

     negative rho (up, down):  4.061E-05 0.000E+00

     total cpu time spent up to now is        2.8 secs

     total energy              =    -654.52261021 Ry
     estimated scf accuracy    <       0.44425233 Ry

     iteration #  2     ecut=    25.00 Ry     beta= 0.70
     Davidson diagonalization with overlap
     ethr =  9.26E-04,  avg # of iterations =  2.0

     negative rho (up, down):  1.776E-04 0.000E+00

     total cpu time spent up to now is        2.9 secs

     total energy              =    -654.60556983 Ry
     estimated scf accuracy    <       0.10471467 Ry

     iteration #  3     ecut=    25.00 Ry     beta= 0.70
     Davidson diagonalization with overlap
     ethr =  2.18E-04,  avg # of iterations =  2.0

     total cpu time spent up to now is        3.1 secs

     total energy              =    -654.63302914 Ry
     estimated scf accuracy    <       0.00603308 Ry

     iteration #  4     ecut=    25.00 Ry     beta= 0.70
     Davidson diagonalization with overlap
     ethr =  1.26E-05,  avg # of iterations =  2.0

     total cpu time spent up to now is        3.2 secs

     total energy              =    -654.63395067 Ry
     estimated scf accuracy    <       0.00008876 Ry

     iteration #  5     ecut=    25.00 Ry     beta= 0.70
     Davidson diagonalization with overlap
     ethr =  1.85E-07,  avg # of iterations =  3.0

     total cpu time spent up to now is        3.4 secs

     total energy              =    -654.63396387 Ry
     estimated scf accuracy    <       0.00000129 Ry

     iteration #  6     ecut=    25.00 Ry     beta= 0.70
     Davidson diagonalization with overlap
     ethr =  2.70E-09,  avg # of iterations =  2.0

     total cpu time spent up to now is        3.5 secs

     End of self-consistent calculation

          k = 0.0000 0.0000 0.0000 (  1167 PWs)   bands (ev):

   -31.2620 -31.2620 -30.1512 -30.0125 -30.0125 -29.2219 -29.2219 -29.1891
   -28.5829 -28.1078 -28.1078 -27.7345 -26.6762 -26.6762 -26.1375 -11.3355
    -7.8618  -7.8618   2.0777   2.0777   2.8368   4.5192   4.5192   5.7241
     7.8334   7.8334   8.9585  12.5431  15.7791

          k = 0.0000 0.0000-0.4407 (  1202 PWs)   bands (ev):

   -33.2681 -31.9672 -31.9672 -31.6558 -31.4434 -31.4434 -31.0435 -30.3180
   -30.3180 -29.7912 -29.4914 -29.4914 -27.6903 -27.3161 -27.3161 -10.3215
   -10.3215  -6.2724   1.2902   2.7326   2.7326   5.0739   5.0959   5.0959
     7.3508   7.8668   7.8668  15.2722  15.2722

          k = 0.0000 0.3849 0.0000 (  1158 PWs)   bands (ev):

   -31.0314 -30.4633 -30.2329 -29.6997 -29.1535 -28.9097 -28.4653 -28.2964
   -27.9032 -27.6620 -27.3446 -27.1807 -26.8007 -26.5692 -25.6854 -11.1367
    -8.0161  -7.8510   1.5151   1.7102   2.9522   4.0509   4.4864   5.3742
     8.0097   8.2582   9.4201  14.3708  15.1564

          k = 0.0000 0.3849-0.4407 (  1158 PWs)   bands (ev):

   -31.2768 -30.5231 -29.9934 -29.5593 -29.2182 -28.9788 -28.5665 -28.1273
   -27.8379 -27.7917 -27.4868 -26.9933 -26.8916 -26.4285 -26.3037 -10.1902
   -10.1418  -6.5799   0.9043   2.1143   2.2500   4.9305   5.0366   5.5804
     7.3395   8.6340   8.8770  14.8776  15.9036

          k = 0.3333 0.5774 0.0000 (  1164 PWs)   bands (ev):

   -32.2377 -32.2377 -30.2539 -29.4265 -28.4783 -28.4783 -28.3501 -28.3501
   -27.9018 -27.7861 -27.7861 -27.1022 -26.9734 -26.9734 -26.8352 -11.0384
    -7.9879  -7.9879   1.4832   1.4832   3.4622   3.7028   3.7028   5.0206
     8.6511   8.6511   9.6583  15.0897  16.3875

          k = 0.3333 0.5774-0.4407 (  1152 PWs)   bands (ev):

   -30.7260 -30.0264 -30.0264 -29.3008 -29.3008 -28.4661 -28.0316 -28.0316
   -27.6564 -27.0189 -27.0104 -27.0104 -26.3802 -26.3432 -26.3432 -10.0827
   -10.0827  -6.7355   0.7869   1.7625   1.7625   5.1557   5.8003   5.8003
     6.6895   8.9341   8.9341  15.2951  16.8363

     the Fermi energy is     6.2519 ev

!    total energy              =    -654.63396540 Ry
     estimated scf accuracy    <       0.00000002 Ry
     smearing contrib. (-TS)   =      -0.00000004 Ry
     internal energy E=F+TS    =    -654.63396536 Ry

     The total energy is F=E-TS. E is the sum of the following terms:
     one-electron contribution =    -350.20450870 Ry
     hartree contribution      =     188.12411074 Ry
     xc contribution           =    -131.66137637 Ry
     ewald contribution        =    -360.89219102 Ry

     convergence has been achieved in   6 iterations

     Forces acting on atoms (cartesian axes, Ry/au):

     atom    1 type  1   force =     0.00648835    0.00000000    0.00000000
     atom    2 type  1   force =    -0.00324418    0.00561908    0.00000000
     atom    3 type  1   force =    -0.00324418   -0.00561908    0.00000000

     Total force =     0.011238     Total SCF correction =     0.000596
     Energy error            =      2.5E-03
     Gradient error          =      6.5E-03

     number of scf cycles    =   3
     number of bfgs steps    =   2

     energy   old            =    -654.6315042332 Ry
     energy   new            =    -654.6339654048 Ry

     CASE: energy  _new < energy  _old

     new trust radius        =       0.0105260171 bohr
     new conv_thr            =       0.0000000649 Ry


ATOMIC_POSITIONS (angstrom)
Se            0.9286143473        0.0000000000        1.6512000000
Se           -0.4643071737        0.8042036151        3.3024000000
Se            1.7187928263        2.9770365029        0.0000000000



     Writing output data file ./pwscf.save/
     NEW-OLD atomic charge density approx. for the potential

     total cpu time spent up to now is        3.6 secs

     Self-consistent Calculation

     iteration #  1     ecut=    25.00 Ry     beta= 0.70
     Davidson diagonalization with overlap
     ethr =  1.00E-06,  avg # of iterations =  4.0

     total cpu time spent up to now is        3.9 secs

     total energy              =    -654.63057520 Ry
     estimated scf accuracy    <       0.01363234 Ry

     iteration #  2     ecut=    25.00 Ry     beta= 0.70
     Davidson diagonalization with overlap
     ethr =  2.84E-05,  avg # of iterations =  2.0

     total cpu time spent up to now is        4.0 secs

     total energy              =    -654.63317535 Ry
     estimated scf accuracy    <       0.00331215 Ry

     iteration #  3     ecut=    25.00 Ry     beta= 0.70
     Davidson diagonalization with overlap
     ethr =  6.90E-06,  avg # of iterations =  2.0

     total cpu time spent up to now is        4.2 secs

     total energy              =    -654.63403623 Ry
     estimated scf accuracy    <       0.00017927 Ry

     iteration #  4     ecut=    25.00 Ry     beta= 0.70
     Davidson diagonalization with overlap
     ethr =  3.73E-07,  avg # of iterations =  2.0

     total cpu time spent up to now is        4.3 secs

     total energy              =    -654.63406296 Ry
     estimated scf accuracy    <       0.00000287 Ry

     iteration #  5     ecut=    25.00 Ry     beta= 0.70
     Davidson diagonalization with overlap
     ethr =  5.99E-09,  avg # of iterations =  2.0

     total cpu time spent up to now is        4.5 secs

     total energy              =    -654.63406337 Ry
     estimated scf accuracy    <       0.00000007 Ry

     iteration #  6     ecut=    25.00 Ry     beta= 0.70
     Davidson diagonalization with overlap
     ethr =  1.37E-10,  avg # of iterations =  2.0

     total cpu time spent up to now is        4.6 secs

     End of self-consistent calculation

          k = 0.0000 0.0000 0.0000 (  1167 PWs)   bands (ev):

   -31.2755 -31.2755 -30.1861 -30.0030 -30.0030 -29.2543 -29.2543 -29.1790
   -28.5684 -28.0986 -28.0986 -27.7632 -26.6510 -26.6510 -26.0801 -11.3008
    -7.8600  -7.8600   2.1010   2.1010   2.8321   4.5324   4.5324   5.7212
     7.8002   7.8002   8.8947  12.5526  15.7826

          k = 0.0000 0.0000-0.4407 (  1202 PWs)   bands (ev):

   -33.3166 -31.8989 -31.8989 -31.5983 -31.4498 -31.4498 -31.0511 -30.3254
   -30.3254 -29.7452 -29.5159 -29.5159 -27.6789 -27.3630 -27.3630 -10.2937
   -10.2937  -6.2978   1.3359   2.7442   2.7442   5.0823   5.0857   5.0857
     7.3437   7.8204   7.8204  15.2817  15.2817

          k = 0.0000 0.3849 0.0000 (  1158 PWs)   bands (ev):

   -31.0520 -30.4602 -30.2490 -29.7058 -29.1288 -28.9138 -28.4754 -28.2957
   -27.9012 -27.6797 -27.3414 -27.1931 -26.7880 -26.5597 -25.6349 -11.0987
    -8.0180  -7.8508   1.5388   1.7305   2.9453   4.0601   4.5025   5.3723
     7.9773   8.2214   9.3621  14.3825  15.1431

          k = 0.0000 0.3849-0.4407 (  1158 PWs)   bands (ev):

   -31.2716 -30.4821 -30.0262 -29.5682 -29.2217 -28.9635 -28.5437 -28.1352
   -27.8530 -27.7857 -27.4760 -27.0363 -26.8827 -26.4302 -26.2774 -10.1621
   -10.1115  -6.6083   0.9391   2.1260   2.2604   4.9154   5.0440   5.5676
     7.3400   8.5904   8.8329  14.8859  15.9162

          k = 0.3333 0.5774 0.0000 (  1164 PWs)   bands (ev):

   -32.2296 -32.2296 -30.2481 -29.4140 -28.4981 -28.4981 -28.3370 -28.3370
   -27.8702 -27.7748 -27.7748 -27.1383 -26.9720 -26.9720 -26.8513 -10.9982
    -7.9902  -7.9902   1.5076   1.5076   3.4538   3.7091   3.7091   5.0130
     8.6237   8.6237   9.6008  15.0893  16.3807

          k = 0.3333 0.5774-0.4407 (  1152 PWs)   bands (ev):

   -30.7986 -29.9889 -29.9889 -29.3507 -29.3507 -28.4368 -27.9861 -27.9861
   -27.6635 -27.0268 -26.9937 -26.9937 -26.4112 -26.3366 -26.3366 -10.0528
   -10.0528  -6.7656   0.8210   1.7673   1.7673   5.1721   5.7925   5.7925
     6.6866   8.8846   8.8846  15.3075  16.8438

     the Fermi energy is     6.2465 ev

!    total energy              =    -654.63406342 Ry
     estimated scf accuracy    <          9.0E-10 Ry
     smearing contrib. (-TS)   =      -0.00000004 Ry
     internal energy E=F+TS    =    -654.63406338 Ry

     The total energy is F=E-TS. E is the sum of the following terms:
     one-electron contribution =    -349.20974754 Ry
     hartree contribution      =     187.62798830 Ry
     xc contribution           =    -131.65154018 Ry
     ewald contribution        =    -361.40076396 Ry

     convergence has been achieved in   6 iterations

     Forces acting on atoms (cartesian axes, Ry/au):

     atom    1 type  1   force =    -0.00051136   -0.00000000    0.00000000
     atom    2 type  1   force =     0.00025568   -0.00044285    0.00000000
     atom    3 type  1   force =     0.00025568    0.00044285   -0.00000000

     Total force =     0.000886     Total SCF correction =     0.000169
     SCF correction compared to forces is large: reduce conv_thr to get better values
     Energy error            =      9.8E-05
     Gradient error          =      5.1E-04

     bfgs converged in   4 scf cycles and   3 bfgs steps
     (criteria: energy <  1.0E-04 Ry, force <  1.0E-03 Ry/Bohr)

     End of BFGS Geometry Optimization

     Final energy   =    -654.6340634184 Ry

     File ./pwscf.bfgs deleted, as requested
Begin final coordinates

ATOMIC_POSITIONS (angstrom)
Se            0.9286143473        0.0000000000        1.6512000000
Se           -0.4643071737        0.8042036151        3.3024000000
Se            1.7187928263        2.9770365029        0.0000000000
End final coordinates



     Writing output data file ./pwscf.save/

     init_run     :      0.12s CPU      0.12s WALL (       1 calls)
     electrons    :      4.04s CPU      4.15s WALL (       4 calls)
     update_pot   :      0.11s CPU      0.11s WALL (       3 calls)
     forces       :      0.22s CPU      0.22s WALL (       4 calls)

     Called by init_run:
     wfcinit      :      0.04s CPU      0.04s WALL (       1 calls)
     potinit      :      0.02s CPU      0.02s WALL (       1 calls)
     hinit0       :      0.03s CPU      0.03s WALL (       1 calls)

     Called by electrons:
     c_bands      :      3.56s CPU      3.65s WALL (      24 calls)
     sum_band     :      0.28s CPU      0.28s WALL (      24 calls)
     v_of_rho     :      0.20s CPU      0.22s WALL (      28 calls)
     mix_rho      :      0.01s CPU      0.01s WALL (      24 calls)

     Called by c_bands:
     init_us_2    :      0.03s CPU      0.03s WALL (     318 calls)
     cegterg      :      3.45s CPU      3.53s WALL (     144 calls)

     Called by *egterg:
     cdiaghg      :      0.31s CPU      0.31s WALL (     552 calls)
     h_psi        :      1.99s CPU      2.04s WALL (     576 calls)
     g_psi        :      0.02s CPU      0.02s WALL (     426 calls)

     Called by h_psi:
     h_psi:calbec :      0.30s CPU      0.31s WALL (     576 calls)
     vloc_psi     :      1.36s CPU      1.39s WALL (     576 calls)
     add_vuspsi   :      0.33s CPU      0.33s WALL (     576 calls)

     General routines
     calbec       :      0.39s CPU      0.40s WALL (     672 calls)
     fft          :      0.10s CPU      0.10s WALL (     371 calls)
     ffts         :      0.00s CPU      0.00s WALL (      52 calls)
     fftw         :      1.42s CPU      1.45s WALL (   28534 calls)
     interpolate  :      0.01s CPU      0.01s WALL (      28 calls)

     Parallel routines
     fft_scatt_xy :      0.22s CPU      0.22s WALL (   28957 calls)
     fft_scatt_yz :      0.25s CPU      0.26s WALL (   28957 calls)

     PWSCF        :      4.53s CPU      4.64s WALL


   This run was terminated on:  15: 8:21  13Mar2025            

=------------------------------------------------------------------------------=
   JOB DONE.
=------------------------------------------------------------------------------=
