
     Program PWSCF v.7.5 starts on  3Oct2025 at 16: 6:38 
        Git branch: develop
        Last git commit: dc587e990336b9a49b0237ee9be9da2e404f315c
        Last git commit date: Tue Jul 15 14:54:23 2025 +0000
        Last git commit subject: Merge branch 'develop' into 'develop'

     This program is part of the open-source Quantum ESPRESSO suite
     for quantum simulation of materials; please cite
         "P. Giannozzi et al., J. Phys.:Condens. Matter 21 395502 (2009);
         "P. Giannozzi et al., J. Phys.:Condens. Matter 29 465901 (2017);
         "P. Giannozzi et al., J. Chem. Phys. 152 154105 (2020);
          URL http://www.quantum-espresso.org", 
     in publications or presentations arising from this work. More details at
     http://www.quantum-espresso.org/quote

     Parallel version (MPI), running on    32 processors

     MPI processes distributed on     1 nodes
     109033 MiB available memory on the printing compute node when the environment starts
 
     Reading input from espresso.pwi
Warning: card &CELL ignored
Warning: card &FCP ignored
Warning: card &RISM ignored

     Current dimensions of program PWSCF are:
     Max number of different atomic species (ntypx) = 10
     Max number of k-points (npk) =  40000
     Max angular momentum in pseudopotentials (lmaxx) =  4
     Message from routine setup:
     the system is metallic, specify occupations
 
     R & G space division:  proc/nbgrp/npool/nimage =      32
     Subspace diagonalization in iterative solution of the eigenvalue problem:
     a serial algorithm will be used

 
     Parallelization info
     --------------------
     sticks:   dense  smooth     PW     G-vecs:    dense   smooth      PW
     Min        1279    1279    319               194596   194596   24323
     Max        1282    1282    320               194599   194599   24328
     Sum       40945   40945  10229              6227117  6227117  778439
 
     Using Slab Decomposition
 


     bravais-lattice index     =            0
     lattice parameter (alat)  =      37.7945  a.u.
     unit-cell volume          =   53986.6760 (a.u.)^3
     number of atoms/cell      =            1
     number of atomic types    =            1
     number of electrons       =        13.00
     number of Kohn-Sham states=           14
     kinetic-energy cutoff     =      90.0000  Ry
     charge density cutoff     =     360.0000  Ry
     scf convergence threshold =      1.0E-10
     mixing beta               =       0.2000
     number of iterations used =            8  plain     mixing
     Exchange-correlation= PBE
                           (   1   4   3   4   0   0   0)
     Non magnetic calculation with spin-orbit

     Assuming isolated system, Martyna-Tuckerman method


     celldm(1)=  37.794522  celldm(2)=   0.000000  celldm(3)=   0.000000
     celldm(4)=   0.000000  celldm(5)=   0.000000  celldm(6)=   0.000000

     crystal axes: (cart. coord. in units of alat)
               a(1) = (   1.000000   0.000000   0.000000 )  
               a(2) = (   0.000000   1.000000   0.000000 )  
               a(3) = (   0.000000   0.000000   1.000000 )  

     reciprocal axes: (cart. coord. in units 2 pi/alat)
               b(1) = (  1.000000  0.000000  0.000000 )  
               b(2) = (  0.000000  1.000000  0.000000 )  
               b(3) = (  0.000000  0.000000  1.000000 )  


     PseudoPot. # 1 for Tl read from file:
     ./Tl.upf
     MD5 check sum: 0dec2a197a21ab96ff7b9bc3defb4998
     Pseudo is Norm-conserving + core correction, Zval = 13.0
     Generated using ONCVPSP code by D. R. Hamann
     Using radial grid of 2130 points, 10 beta functions with: 
                l(1) =   0
                l(2) =   0
                l(3) =   1
                l(4) =   1
                l(5) =   1
                l(6) =   1
                l(7) =   2
                l(8) =   2
                l(9) =   2
               l(10) =   2

     atomic species   valence    mass     pseudopotential
     Tl               13.00   204.38000     Tl( 1.00)

     No symmetry found



   Cartesian axes

     site n.     atom                  positions (alat units)
         1        Tl     tau(   1) = (   0.5000000   0.5000000   0.5000000  )

     number of k points=     1
                       cart. coord. in units 2pi/alat
        k(    1) = (   0.0000000   0.0000000   0.0000000), wk =   1.0000000

     Dense  grid:  6227117 G-vectors     FFT dimensions: ( 240, 240, 240)

     Estimated max dynamical RAM per process >     412.07 MB

     Estimated total dynamical RAM >      12.88 GB

     Initial potential from superposition of free atoms

     starting charge      12.9944, renormalised to      13.0000

     negative rho (up, down):  1.909E-04 0.000E+00
     Starting wfcs are   18 randomized atomic wfcs

     total cpu time spent up to now is        7.5 secs

     per-process dynamical memory:   272.3 Mb

     Self-consistent Calculation

     iteration #  1     ecut=    90.00 Ry     beta= 0.20
     Davidson diagonalization with overlap
     ethr =  1.00E-02,  avg # of iterations =  1.0

     Threshold (ethr) on eigenvalues was too large:
     Diagonalizing with lowered threshold

     Davidson diagonalization with overlap
     ethr =  1.53E-05,  avg # of iterations =  6.0

     negative rho (up, down):  7.183E-05 0.000E+00

     total cpu time spent up to now is       18.6 secs

     total energy              =    -121.20714383 Ry
     estimated scf accuracy    <       0.00202042 Ry

     iteration #  2     ecut=    90.00 Ry     beta= 0.20
     Davidson diagonalization with overlap
     ethr =  1.55E-05,  avg # of iterations =  1.0

     negative rho (up, down):  1.426E-05 0.000E+00

     total cpu time spent up to now is       23.7 secs

     total energy              =    -121.20655893 Ry
     estimated scf accuracy    <       0.00109124 Ry

     iteration #  3     ecut=    90.00 Ry     beta= 0.20
     Davidson diagonalization with overlap
     ethr =  8.39E-06,  avg # of iterations =  3.0

     negative rho (up, down):  1.042E-05 0.000E+00

     total cpu time spent up to now is       29.6 secs

     total energy              =    -121.20675341 Ry
     estimated scf accuracy    <       0.00006617 Ry

     iteration #  4     ecut=    90.00 Ry     beta= 0.20
     Davidson diagonalization with overlap
     ethr =  5.09E-07,  avg # of iterations =  3.0

     negative rho (up, down):  4.302E-06 0.000E+00

     total cpu time spent up to now is       36.5 secs

     total energy              =    -121.20675743 Ry
     estimated scf accuracy    <       0.00006674 Ry

     iteration #  5     ecut=    90.00 Ry     beta= 0.20
     Davidson diagonalization with overlap
     ethr =  5.09E-07,  avg # of iterations =  2.0

     negative rho (up, down):  1.845E-06 0.000E+00

     total cpu time spent up to now is       42.2 secs

     total energy              =    -121.20675774 Ry
     estimated scf accuracy    <       0.00000700 Ry

     iteration #  6     ecut=    90.00 Ry     beta= 0.20
     Davidson diagonalization with overlap
     ethr =  5.38E-08,  avg # of iterations =  6.0

     negative rho (up, down):  6.026E-08 0.000E+00

     total cpu time spent up to now is       49.9 secs

     total energy              =    -121.20675993 Ry
     estimated scf accuracy    <       0.00000014 Ry

     iteration #  7     ecut=    90.00 Ry     beta= 0.20
     Davidson diagonalization with overlap
     ethr =  1.05E-09,  avg # of iterations =  5.0

     negative rho (up, down):  2.368E-08 0.000E+00

     total cpu time spent up to now is       57.9 secs

     total energy              =    -121.20675997 Ry
     estimated scf accuracy    <       0.00000043 Ry

     iteration #  8     ecut=    90.00 Ry     beta= 0.20
     Davidson diagonalization with overlap
     ethr =  1.05E-09,  avg # of iterations =  1.0

     negative rho (up, down):  3.143E-08 0.000E+00

     total cpu time spent up to now is       63.6 secs

     total energy              =    -121.20675995 Ry
     estimated scf accuracy    <       0.00000044 Ry

     iteration #  9     ecut=    90.00 Ry     beta= 0.20
     Davidson diagonalization with overlap
     ethr =  1.05E-09,  avg # of iterations =  2.0

     total cpu time spent up to now is       70.5 secs

     total energy              =    -121.20675997 Ry
     estimated scf accuracy    <       0.00000012 Ry

     iteration # 10     ecut=    90.00 Ry     beta= 0.20
     Davidson diagonalization with overlap
     ethr =  9.23E-10,  avg # of iterations =  1.0

     total cpu time spent up to now is       76.3 secs

     total energy              =    -121.20676001 Ry
     estimated scf accuracy    <       0.00000010 Ry

     iteration # 11     ecut=    90.00 Ry     beta= 0.20
     Davidson diagonalization with overlap
     ethr =  7.55E-10,  avg # of iterations =  2.0

     total cpu time spent up to now is       82.6 secs

     total energy              =    -121.20676006 Ry
     estimated scf accuracy    <          9.3E-09 Ry

     iteration # 12     ecut=    90.00 Ry     beta= 0.20
     Davidson diagonalization with overlap
     ethr =  7.16E-11,  avg # of iterations =  5.0

     total cpu time spent up to now is       90.3 secs

     total energy              =    -121.20676011 Ry
     estimated scf accuracy    <          1.1E-09 Ry

     iteration # 13     ecut=    90.00 Ry     beta= 0.20
     Davidson diagonalization with overlap
     ethr =  8.09E-12,  avg # of iterations =  4.0

     total cpu time spent up to now is       97.9 secs

     total energy              =    -121.20676002 Ry
     estimated scf accuracy    <          2.3E-10 Ry

     iteration # 14     ecut=    90.00 Ry     beta= 0.20
     Davidson diagonalization with overlap
     ethr =  1.75E-12,  avg # of iterations =  5.0

     total cpu time spent up to now is      106.2 secs

     total energy              =    -121.20676012 Ry
     estimated scf accuracy    <          2.7E-09 Ry

     iteration # 15     ecut=    90.00 Ry     beta= 0.20
     Davidson diagonalization with overlap
     ethr =  1.75E-12,  avg # of iterations =  5.0

     total cpu time spent up to now is      113.3 secs

     End of self-consistent calculation

          k = 0.0000 0.0000 0.0000 (778439 PWs)   bands (ev):

   -16.2401 -16.2401 -16.2401 -16.2401 -14.0490 -14.0490 -14.0490 -14.0490
   -14.0490 -14.0490  -9.1172  -9.1172  -2.8367  -2.8367

     highest occupied, lowest unoccupied level (ev):    -2.8367   -2.8367

!    total energy              =    -121.20676014 Ry
     estimated scf accuracy    <          4.0E-11 Ry

     The total energy is the sum of the following terms:
     one-electron contribution =    -174.37832821 Ry
     hartree contribution      =      91.16799734 Ry
     xc contribution           =     -37.99642928 Ry
     ewald contribution        =      -0.00000000 Ry

     convergence has been achieved in  15 iterations

     Writing all to output data dir ./pwscf.save/ :
     XML data file
     init_run     :      7.11s CPU      7.35s WALL (       1 calls)
     electrons    :    104.14s CPU    105.88s WALL (       1 calls)

     Called by init_run:
     wfcinit      :      1.58s CPU      1.61s WALL (       1 calls)
     potinit      :      0.76s CPU      0.83s WALL (       1 calls)
     hinit0       :      0.24s CPU      0.29s WALL (       1 calls)

     Called by electrons:
     c_bands      :     63.82s CPU     64.13s WALL (      16 calls)
     sum_band     :     17.53s CPU     17.99s WALL (      16 calls)
     v_of_rho     :      8.42s CPU      8.85s WALL (      16 calls)
     mix_rho      :     14.02s CPU     14.49s WALL (      16 calls)

     Called by c_bands:
     init_us_2    :      0.98s CPU      1.00s WALL (      33 calls)
     cegterg      :     57.71s CPU     57.97s WALL (      16 calls)

     Called by *egterg:
     cdiaghg      :      0.03s CPU      0.03s WALL (      67 calls)
     h_psi        :     54.15s CPU     54.39s WALL (      69 calls)
     g_psi        :      0.16s CPU      0.16s WALL (      52 calls)

     Called by h_psi:
     h_psi:calbec :      0.58s CPU      0.59s WALL (      69 calls)
     vloc_psi     :     52.09s CPU     52.31s WALL (      69 calls)
                                        0.00s GPU  (      69 calls)
     add_vuspsi   :      0.99s CPU      0.99s WALL (      69 calls)

     General routines
     calbec       :      0.58s CPU      0.59s WALL (      69 calls)
     fft          :      8.83s CPU      9.63s WALL (     255 calls)
     ffts         :      1.68s CPU      1.88s WALL (      64 calls)
     fftw         :     45.05s CPU     45.23s WALL (    3096 calls)
 
     Parallel routines
 
     PWSCF        :   1m51.36s CPU   1m53.48s WALL

 
   This run was terminated on:  16: 8:31   3Oct2025            

=------------------------------------------------------------------------------=
   JOB DONE.
=------------------------------------------------------------------------------=
