

 Parallel Execution: Process Information
 ==============================================================================
 Rank   Node Name                              NodeID   MyNodeRank  NodeMaster
    0   adf1                                      0          0          0
    1   adf1                                      0          1         -1
    2   adf1                                      0          2         -1
    3   adf1                                      0          3         -1
    4   adf1                                      0          4         -1
    5   adf1                                      0          5         -1
    6   adf1                                      1          0          1
    7   adf1                                      1          1         -1
    8   adf1                                      1          2         -1
    9   adf1                                      1          3         -1
   10   adf1                                      1          4         -1
   11   adf1                                      1          5         -1
 ==============================================================================


May use up to 11697MB of RAM as shared memory on node 0
May use up to 11718MB of RAM as shared memory on node 1

 *******************************************************************************
 *                                                                             *
 *  --------------------------------                                           *
 *   Amsterdam Modeling Suite (AMS)              2021.105                      *
 *  --------------------------------                                           *
 *                                               r97261 2021-09-16             *
 *                                                                             *
 *                                                                             *
 *                              =================                              *
 *                              |               |                              *
 *                              |     A M S     |                              *
 *                              |               |                              *
 *                              =================                              *
 *                                                                             *
 *                                                                             *
 *   Online information and documentation:  https://www.scm.com/support/       *
 *   E-mail:  support@scm.com   info@scm.com                                   *
 *                                                                             *
 *   Scientific publications using AMS results must be properly referenced     *
 *   See the User Manuals (or the web site) for recommended citations          *
 *   The terms and conditions of the End User License Agreement apply to       *
 *   the use of AMS, https://www.scm.com/license-terms/                        *
 *                                                                             *
 **********************  x86_64_linux_intel / intelmpi  ************************
 
 Licensed to: Dr. Miroslav Ilias / Matej Bel University, Department Chemistry, Fac. Natural Sciences / Banska Bystrica / SLOVAKIA
 SCM User ID: u17848
  
 AMS 2021.105  RunTime: Nov04-2021 21:36:29  ShM Nodes: 2  Procs: 12

 AMS jobname: ams
 AMS jobid  : 1348952278

 Start   directory: /home/milias/Work/projects/open-collection/theoretical_chemistry/projects/lead_water_complexes/adf/Pb-2H2O_2p/sozora/tmp.milias.31853.0.noindex/
 Results directory: /home/milias/Work/projects/open-collection/theoretical_chemistry/projects/lead_water_complexes/adf/Pb-2H2O_2p/sozora/Pb-2H2O_2p.geoptfreq_sozora_bp86_dzp_sc.results/
 Scratch directory: /tmp/amstmp_ams_kid0.1348952278/


 Communication costs MPI_COMM_WORLD:      2.808 usec per message,   0.0274 usec per 8-byte item
 Communication costs for intra-node:      1.588 usec per message,   0.0129 usec per 8-byte item

 RNG seed: -2055705443 416932059 -1965953304 -2143581569 -81797901 -566928651 -1532431174 -706205366



                     *************************************************************************
                     *  ADF 2021.105  RunTime: Nov04-2021 21:36:30  ShM Nodes: 2  Procs: 12  *
                     *************************************************************************
  
       ***************************
       *  GEOMETRY OPTIMIZATION  *
       ***************************

Optimization Method                    Quasi Newton
Optimization Coordinates               Delocalized Coordinates
Optimize lattice                       F
 
 ------------------------------------------------------
 Convergence criteria (Hartree,Angstrom)
 ------------------------------------------------------
 Maximum gradient               0.001000000000
 Maximum rms gradient           0.000666666667
 Maximum step allowed           0.010000000000
 Maximum rms step allowed       0.006666666667
 Maximum energy change allowe   0.000070000000
 Maximum stress energy allowe   0.000500000000
 
Initial model Hessian                  Automatic Hessian
 
------------------------------------
Quasi-Newton Optimizer Parameters
------------------------------------
Hessian Update Method                  BFGS
Maximum number of steps                  250
First GDIIS cycle                          0
Maximum GDIIS vectors                      0
Trust radius (bohr)                        0.200000
Trust radius varies                        T
Constraints converged at all steps         T
Use projector                              T
 
 Rigid motions settings for: old optimizer
 Atomic rotations (x,y,z):     T T T
 Atomic translations (x,y,z):  T T T
 Tolerance:                   1.000000000000000E-006
 
--------
Geometry
--------
Formula: H4O2Pb
Atoms
  Index Symbol   x (angstrom)   y (angstrom)   z (angstrom)
      1     Pb    -0.51949066    -0.67157766     1.46233766
      2      H    -0.46492615    -2.28803536    -1.14371866
      3      H    -0.75023583    -0.79815225    -1.61026172
      4      O    -0.43367580    -1.34052859    -0.83812562
      5      H     1.22540054     1.48187300     0.10132609
      6      O     0.47686945     1.38586380     0.75020808
      7      H     0.46605844     2.23055707     1.27823418
 
Total System Charge             2.00000
Bonding info available!
 
 
----------------
ADF Engine Input
----------------
 
 Basis
 Type DZP
 Core Small
 End
 XC
 GGA BP86
 End
 Relativity
 Level Spin-Orbit
 End
 

 Title: *** (NO TITLE) ***

 Using automatic Hessian for delocalized coordinates.
 *** GOStep1 ***



 ==============================
 Double group spinor symmetries  ***  (Spin-Orbit)  ***
 ==============================
  

 The double group Lowdins are spinors adapted to the irreducible representations
 of the double group. These double group Lowdins are linear combinations of
 products of the single group Lowdins and the spinfunctions. The single group
 Lowdins are  orthonormalized symmetrized fragment orbitals (SFOs).
 The complex coefficients that are used in the linear combinations are also
 known as Clebsch-Gordan coefficients.
 The spin functions (alpha,beta) span irrep e1/2


          A * e 1/2 :      A1/2

  A1/2:1 = A.alpha
  A1/2:1 = A.beta

 The table summarizes which one-electron orbital irreps (single group) couple
 with spin to which spinor irreps (double group).
 The Clebsch-Gordan series for each direct product: orbital irrep times e1/2.
                  A
            -------
  A1/2           X


 dimension (equal to the max. nr. of electrons per spinor) of the double group irreps
 ------------------------------------------------------------------------------------
  A1/2           1

 Energy gradients wrt nuclear displacements
 ==========================================

     Atom      Cartesian (a.u./angstrom)
                 X         Y         Z
 ----------------------------------------
     1 Pb   -0.000379 -0.000485  0.000572
     2 H    -0.000035  0.000244 -0.000059
     3 H     0.000020 -0.000196  0.000124
     4 O     0.000051 -0.000295 -0.000418
     5 H    -0.000259  0.000204  0.000179
     6 O     0.000478  0.000529  0.000014
     7 H     0.000125 -0.000000 -0.000412
 ----------------------------------------
 Mulliken charges used for AMS results%charges...
 
----------------------------------------------------------------------
Geometry Convergence after Step   1       (Hartree/Angstrom,Angstrom)
----------------------------------------------------------------------
current energy                               -0.54698042 Hartree
energy change                      -0.54698042     0.00007000    F
constrained gradient max            0.00056228     0.00100000    T
constrained gradient rms            0.00030212     0.00066667    T
gradient max                        0.00056228
gradient rms                        0.00030212
cart. step max                      0.00156728     0.01000000    T
cart. step rms                      0.00069788     0.00666667    T
 
 
--------
Geometry
--------
Formula: H4O2Pb
Atoms
  Index Symbol   x (angstrom)   y (angstrom)   z (angstrom)
      1     Pb    -0.51930987    -0.67097358     1.46216299
      2      H    -0.46408520    -2.28796793    -1.14314516
      3      H    -0.75029356    -0.79792692    -1.61041441
      4      O    -0.43398612    -1.34017090    -0.83795565
      5      H     1.22542839     1.48122873     0.10127333
      6      O     0.47530217     1.38629681     0.74871738
      7      H     0.46694417     2.22951381     1.27936153
 
Total System Charge             2.00000
Bonding info available!
 
 *** GOStep2 ***

          A * e 1/2 :      A1/2

  A1/2:1 = A.alpha
  A1/2:1 = A.beta

 Energy gradients wrt nuclear displacements
 ==========================================

     Atom      Cartesian (a.u./angstrom)
                 X         Y         Z
 ----------------------------------------
     1 Pb   -0.000304 -0.000375  0.000504
     2 H     0.000003  0.000010 -0.000034
     3 H    -0.000016 -0.000033  0.000030
     4 O     0.000052 -0.000208 -0.000313
     5 H    -0.000082  0.000154  0.000027
     6 O     0.000253  0.000365  0.000034
     7 H     0.000094  0.000087 -0.000248
 ----------------------------------------
 Mulliken charges used for AMS results%charges...

 dE(predicted):    -0.90379E-06, dE(actual):    -0.18197E-05, Trust radius:    0.200000, all in a.u.
 
---------------------------------------------------------
Geometry Convergence after Step   2       ** CONVERGED **
---------------------------------------------------------
current energy                               -0.54698224 Hartree
energy change                      -0.00000182     0.00007000    T
constrained gradient max            0.00049495     0.00100000    T
constrained gradient rms            0.00021106     0.00066667    T
gradient max                        0.00049495
gradient rms                        0.00021106
cart. step max                      0.00402163     0.01000000    T
cart. step rms                      0.00163405     0.00666667    T
 
Geometry optimization converged

Optimized geometry:
 
--------
Geometry
--------
Formula: H4O2Pb
Atoms
  Index Symbol   x (angstrom)   y (angstrom)   z (angstrom)
      1     Pb    -0.51930987    -0.67097358     1.46216299
      2      H    -0.46408520    -2.28796793    -1.14314516
      3      H    -0.75029356    -0.79792692    -1.61041441
      4      O    -0.43398612    -1.34017090    -0.83795565
      5      H     1.22542839     1.48122873     0.10127333
      6      O     0.47530217     1.38629681     0.74871738
      7      H     0.46694417     2.22951381     1.27936153
 
Total System Charge             2.00000
Bonding info available!
 
Performing a single point calculation on the final geometry ...

 *** adf ***



 ===========================
 A T T A C H E D   F I L E S
 ===========================
  
 Restart/tmp/amstmp_ams_kid0.1348952278/GOStep2.rkf*** GOStep2 ***



 ===============================
 M O D E L   P A R A M E T E R S
 ===============================
  
 DENSITY FUNCTIONAL POTENTIAL (scf)
    LDA:                               VWN                                      
    Gradient Corrections:              Becke88 Perdew86                        == Not Default ==

 SPIN  (restricted / unrestr.)
    Molecule:                          Restricted
    Fragments:                         Restricted                               

 OTHER ASPECTS
    Relativistic Corrections:          Spin-Orbit (ZORA,MAPA)                  == Not Default ==

    Nuclear Charge Density Model:      Point Charge Nuclei                      
    Core Treatment:                    Frozen Orbital(s)                        

    Hyperfine or Zeeman Interaction:   ---                                      



 ===============
 G E O M E T R Y  ***  3D  Molecule  ***
 ===============
  

 ATOMS
 =====                            X Y Z                    CHARGE
                                (Angstrom)             Nucl     +Core       At.Mass
                       --------------------------    ----------------       -------
    1  Pb             -0.5193   -0.6710    1.4622     82.00     36.00      207.9766
    2  H              -0.4641   -2.2880   -1.1431      1.00      1.00        1.0078
    3  H              -0.7503   -0.7979   -1.6104      1.00      1.00        1.0078
    4  O              -0.4340   -1.3402   -0.8380      8.00      6.00       15.9949
    5  H               1.2254    1.4812    0.1013      1.00      1.00        1.0078
    6  O               0.4753    1.3863    0.7487      8.00      6.00       15.9949
    7  H               0.4669    2.2295    1.2794      1.00      1.00        1.0078


 FRAGMENTS
 =========                                     Atoms in this Fragment     Cart. coord.s (Angstrom)
                                               -------------------------------------------------------
    1  Pb                                                1  Pb          -0.5193   -0.6710    1.4622
    2  H                                                 2  H           -0.4641   -2.2880   -1.1431
    3  H                                                 3  H           -0.7503   -0.7979   -1.6104
    4  H                                                 5  H            1.2254    1.4812    0.1013
    5  H                                                 7  H            0.4669    2.2295    1.2794
    6  O                                                 4  O           -0.4340   -1.3402   -0.8380
    7  O                                                 6  O            0.4753    1.3863    0.7487


 Interatomic Distance Matrix (Angstrom)
 --------------------------------------

   1)     0.000
   2)     3.067   0.000
   3)     3.084   1.588   0.000
   4)     2.397   0.996   0.995   0.000
   5)     3.087   4.314   3.468   3.405   0.000
   6)     2.394   4.238   3.441   3.283   0.995   0.000
   7)     3.069   5.210   4.359   4.247   1.588   0.996   0.000

 Min. Distance =    0.9954
 Max. Distance =    5.2099



 =====================================
 S Y M M E T R Y ,   E L E C T R O N S
 =====================================
  
 Symmetry: NOSYM

 Double Group Irreducible Representations (spinor symmetry)
 -----------------------------------------------------------
 A1/2


 Configuration of Valence Electrons
 ==================================
 ( determined in the SCF procedure )

 Total:   50

 Net Charge: 2 (Nuclei minus Electrons)

 Aufbau principle for MO occupations will be applied through SCF cycle no.     150
 Thereafter, the program will assign electrons to MOs that are spatially
 similar to the occupied MOs in a "reference" cycle ("KeepOrbitals").
 The reference cycle is always the PREVIOUS cycle: it will evolve with
 the SCF procedure.
1
 ***************************************************************************************************



                                      ****************************************
                                      *  B U I L D : (Fragments, Functions)  *
                                      ****************************************
  



 =======
 S F O s  ***  (Symmetrized Fragment Orbitals)  ***
 =======
  
 SFOs are linear combinations of (valence) Fragment Orbitals (FOs), such that the SFOs transform as the
 irreducible representations of the (molecular) symmetry group. Each SFO is therefore characterized by
 an irrep of the molecule and by a few (or only one) generating FOs.
 The SFOs constitute a symmetry-adapted basis for the Fock matrix. The MO eigenvector coefficients in
 this basis provide a direct interpretation of the MOs in terms of Frontier Orbital Theory.

 The SFOs are combined with auxiliary Core Functions (CFs) to ensure orthogonalization on the (frozen)
 Core Orbitals (COs). The Core-orthogonalized SFOs (CSFOs) constitute the true Fock basis.

 The FOs, and hence also the (C)SFOs are combinations of the elementary basis functions (BAS). The basis
 functions that participate in the description of the SFOs depend on the irrep. The indices of the
 involved functions are printed below for each irrep.
 (The complete list of primitive basis functions is printed in another section)

 Total nr. of (C)SFOs (summation over all irreps) :   103

 NOTE: a (C)SFO that is defined as a combination of more than one FO is usually NOT normalized.

 NOTE: the (C)SFOs are single group symmetry adapted orbitals.



                                       === A ===
 Nr. of SFOs :  103
 Cartesian basis functions that participate in this irrep (total number =   144) :
      1     2     3     4     5     8    11     6     9    12
      7    10    13    14    20    15    21    16    22    17
     23    18    24    19    25   115   130    26    27    28
     29    30    31    32    35    38    41    44    33    36
     39    42    45    34    37    40    43    46    47    53
     59    48    54    60    49    55    61    50    56    62
     51    57    63    52    58    64    65    75    85    66
     76    86    67    77    87    68    78    88    69    79
     89    70    80    90    71    81    91    72    82    92
     73    83    93    74    84    94    95    96    97    98
     99   100   101   102   103   104   105   106   107   108
    109   110   111   112   113   114   116   117   118   121
    119   122   120   123   124   125   126   127   128   129
    131   132   133   136   134   137   135   138   139   140
    141   142   143   144

    SFO  (index         Fragment          Generating    Expansion in Fragment Orbitals
  indx  incl.CFs)   Occup   Orb.Energy   FragmentType  Coeff.   Orbital     on Fragment
 --------------------------------------------------------------------------------------
     1      28      2.000      -5.257 au  Pb            1.00      1 S               1
                        (    -143.049 eV)
     2      29      2.000      -0.444 au  Pb            1.00      2 S               1
                        (     -12.093 eV)
     3      30       --         0.063 au  Pb            1.00      3 S               1
                        (       1.706 eV)
     4      31       --         0.955 au  Pb            1.00      4 S               1
                        (      25.999 eV)
     5      32       --         5.713 au  Pb            1.00      5 S               1
                        (     155.468 eV)
     6      33       --      3692.882 au  Pb            1.00      6 S               1
                        (  100488.432 eV)
     7      34      2.000      -3.139 au  Pb            1.00      1 P:x             1
                        (     -85.422 eV)
     8      35      0.667      -0.133 au  Pb            1.00      2 P:x             1
                        (      -3.632 eV)
     9      36       --         0.045 au  Pb            1.00      3 P:x             1
                        (       1.212 eV)
    10      37       --         0.426 au  Pb            1.00      4 P:x             1
                        (      11.596 eV)
    11      38       --         3.056 au  Pb            1.00      5 P:x             1
                        (      83.146 eV)
    12      39      2.000      -3.139 au  Pb            1.00      1 P:y             1
                        (     -85.422 eV)
    13      40      0.667      -0.133 au  Pb            1.00      2 P:y             1
                        (      -3.632 eV)
    14      41       --         0.045 au  Pb            1.00      3 P:y             1
                        (       1.212 eV)
    15      42       --         0.426 au  Pb            1.00      4 P:y             1
                        (      11.596 eV)
    16      43       --         3.056 au  Pb            1.00      5 P:y             1
                        (      83.146 eV)
    17      44      2.000      -3.139 au  Pb            1.00      1 P:z             1
                        (     -85.422 eV)
    18      45      0.667      -0.133 au  Pb            1.00      2 P:z             1
                        (      -3.632 eV)
    19      46       --         0.045 au  Pb            1.00      3 P:z             1
                        (       1.212 eV)
    20      47       --         0.426 au  Pb            1.00      4 P:z             1
                        (      11.596 eV)
    21      48       --         3.056 au  Pb            1.00      5 P:z             1
                        (      83.146 eV)
    22      49      2.000      -0.786 au  Pb            1.00      1 D:z2            1
                        (     -21.381 eV)
    23      50       --         0.427 au  Pb            1.00      2 D:z2            1
                        (      11.626 eV)
    24      51       --         3.399 au  Pb            1.00      3 D:z2            1
                        (      92.482 eV)
    25      52      2.000      -0.786 au  Pb            1.00      1 D:x2-y2         1
                        (     -21.381 eV)
    26      53       --         0.427 au  Pb            1.00      2 D:x2-y2         1
                        (      11.626 eV)
    27      54       --         3.399 au  Pb            1.00      3 D:x2-y2         1
                        (      92.482 eV)
    28      55      2.000      -0.786 au  Pb            1.00      1 D:xy            1
                        (     -21.381 eV)
    29      56       --         0.427 au  Pb            1.00      2 D:xy            1
                        (      11.626 eV)
    30      57       --         3.399 au  Pb            1.00      3 D:xy            1
                        (      92.482 eV)
    31      58      2.000      -0.786 au  Pb            1.00      1 D:xz            1
                        (     -21.381 eV)
    32      59       --         0.427 au  Pb            1.00      2 D:xz            1
                        (      11.626 eV)
    33      60       --         3.399 au  Pb            1.00      3 D:xz            1
                        (      92.482 eV)
    34      61      2.000      -0.786 au  Pb            1.00      1 D:yz            1
                        (     -21.381 eV)
    35      62       --         0.427 au  Pb            1.00      2 D:yz            1
                        (      11.626 eV)
    36      63       --         3.399 au  Pb            1.00      3 D:yz            1
                        (      92.482 eV)
    37      64      2.000      -4.933 au  Pb            1.00      1 F:z3            1
                        (    -134.237 eV)
    38      65       --         4.295 au  Pb            1.00      2 F:z3            1
                        (     116.866 eV)
    39      66       --        36.958 au  Pb            1.00      3 F:z3            1
                        (    1005.677 eV)
    40      67      2.000      -4.933 au  Pb            1.00      1 F:z             1
                        (    -134.237 eV)
    41      68       --         4.295 au  Pb            1.00      2 F:z             1
                        (     116.866 eV)
    42      69       --        36.958 au  Pb            1.00      3 F:z             1
                        (    1005.677 eV)
    43      70      2.000      -4.933 au  Pb            1.00      1 F:xyz           1
                        (    -134.237 eV)
    44      71       --         4.295 au  Pb            1.00      2 F:xyz           1
                        (     116.866 eV)
    45      72       --        36.958 au  Pb            1.00      3 F:xyz           1
                        (    1005.677 eV)
    46      73      2.000      -4.933 au  Pb            1.00      1 F:z2x           1
                        (    -134.237 eV)
    47      74       --         4.295 au  Pb            1.00      2 F:z2x           1
                        (     116.866 eV)
    48      75       --        36.958 au  Pb            1.00      3 F:z2x           1
                        (    1005.677 eV)
    49      76      2.000      -4.933 au  Pb            1.00      1 F:z2y           1
                        (    -134.237 eV)
    50      77       --         4.295 au  Pb            1.00      2 F:z2y           1
                        (     116.866 eV)
    51      78       --        36.958 au  Pb            1.00      3 F:z2y           1
                        (    1005.677 eV)
    52      79      2.000      -4.933 au  Pb            1.00      1 F:x             1
                        (    -134.237 eV)
    53      80       --         4.295 au  Pb            1.00      2 F:x             1
                        (     116.866 eV)
    54      81       --        36.958 au  Pb            1.00      3 F:x             1
                        (    1005.677 eV)
    55      82      2.000      -4.933 au  Pb            1.00      1 F:y             1
                        (    -134.237 eV)
    56      83       --         4.295 au  Pb            1.00      2 F:y             1
                        (     116.866 eV)
    57      84       --        36.958 au  Pb            1.00      3 F:y             1
                        (    1005.677 eV)
    58      85      1.000      -0.245 au  H             1.00      1 S               2
                        (      -6.661 eV)
    59      86       --         0.387 au  H             1.00      2 S               2
                        (      10.544 eV)
    60      87       --         0.398 au  H             1.00      1 P:x             2
                        (      10.843 eV)
    61      88       --         0.398 au  H             1.00      1 P:y             2
                        (      10.843 eV)
    62      89       --         0.398 au  H             1.00      1 P:z             2
                        (      10.843 eV)
    63      90      1.000      -0.245 au  H             1.00      1 S               3
                        (      -6.661 eV)
    64      91       --         0.387 au  H             1.00      2 S               3
                        (      10.544 eV)
    65      92       --         0.398 au  H             1.00      1 P:x             3
                        (      10.843 eV)
    66      93       --         0.398 au  H             1.00      1 P:y             3
                        (      10.843 eV)
    67      94       --         0.398 au  H             1.00      1 P:z             3
                        (      10.843 eV)
    68      95      1.000      -0.245 au  H             1.00      1 S               4
                        (      -6.661 eV)
    69      96       --         0.387 au  H             1.00      2 S               4
                        (      10.544 eV)
    70      97       --         0.398 au  H             1.00      1 P:x             4
                        (      10.843 eV)
    71      98       --         0.398 au  H             1.00      1 P:y             4
                        (      10.843 eV)
    72      99       --         0.398 au  H             1.00      1 P:z             4
                        (      10.843 eV)
    73     100      1.000      -0.245 au  H             1.00      1 S               5
                        (      -6.661 eV)
    74     101       --         0.387 au  H             1.00      2 S               5
                        (      10.544 eV)
    75     102       --         0.398 au  H             1.00      1 P:x             5
                        (      10.843 eV)
    76     103       --         0.398 au  H             1.00      1 P:y             5
                        (      10.843 eV)
    77     104       --         0.398 au  H             1.00      1 P:z             5
                        (      10.843 eV)
    78     105      2.000      -0.896 au  O             1.00      1 S               6
                        (     -24.370 eV)
    79     106       --         0.998 au  O             1.00      2 S               6
                        (      27.170 eV)
    80     107      1.333      -0.347 au  O             1.00      1 P:x             6
                        (      -9.441 eV)
    81     108       --         0.813 au  O             1.00      2 P:x             6
                        (      22.121 eV)
    82     109      1.333      -0.347 au  O             1.00      1 P:y             6
                        (      -9.441 eV)
    83     110       --         0.813 au  O             1.00      2 P:y             6
                        (      22.121 eV)
    84     111      1.333      -0.347 au  O             1.00      1 P:z             6
                        (      -9.441 eV)
    85     112       --         0.813 au  O             1.00      2 P:z             6
                        (      22.121 eV)
    86     113       --         1.051 au  O             1.00      1 D:z2            6
                        (      28.612 eV)
    87     114       --         1.051 au  O             1.00      1 D:x2-y2         6
                        (      28.612 eV)
    88     115       --         1.051 au  O             1.00      1 D:xy            6
                        (      28.612 eV)
    89     116       --         1.051 au  O             1.00      1 D:xz            6
                        (      28.612 eV)
    90     117       --         1.051 au  O             1.00      1 D:yz            6
                        (      28.612 eV)
    91     118      2.000      -0.896 au  O             1.00      1 S               7
                        (     -24.370 eV)
    92     119       --         0.998 au  O             1.00      2 S               7
                        (      27.170 eV)
    93     120      1.333      -0.347 au  O             1.00      1 P:x             7
                        (      -9.441 eV)
    94     121       --         0.813 au  O             1.00      2 P:x             7
                        (      22.121 eV)
    95     122      1.333      -0.347 au  O             1.00      1 P:y             7
                        (      -9.441 eV)
    96     123       --         0.813 au  O             1.00      2 P:y             7
                        (      22.121 eV)
    97     124      1.333      -0.347 au  O             1.00      1 P:z             7
                        (      -9.441 eV)
    98     125       --         0.813 au  O             1.00      2 P:z             7
                        (      22.121 eV)
    99     126       --         1.051 au  O             1.00      1 D:z2            7
                        (      28.612 eV)
   100     127       --         1.051 au  O             1.00      1 D:x2-y2         7
                        (      28.612 eV)
   101     128       --         1.051 au  O             1.00      1 D:xy            7
                        (      28.612 eV)
   102     129       --         1.051 au  O             1.00      1 D:xz            7
                        (      28.612 eV)
   103     130       --         1.051 au  O             1.00      1 D:yz            7
                        (      28.612 eV)



 ================================
 (Slater-type)  F U N C T I O N S  ***  (Basis and Fit)  ***
 ================================
  

 Atom Type    1  (Pb)
 ==============

 Valence Basis Sets:  26
 -----------------------
   1 S   60.000000
   2 S   37.900000
   3 S   22.100000
   4 S   13.150000
   2 P   38.650000
   3 P   20.600000
   4 P   12.450000
   3 D   23.450000
   4 D   11.600000
   1 S  196.000000
   5 S    7.650000
   5 S    5.200000
   6 S    3.700000
   6 S    2.400000
   6 S    1.580000
   5 P    6.600000
   5 P    4.200000
   6 P    2.700000
   6 P    1.600000
   6 P    0.960000
   5 D    6.000000
   5 D    3.650000
   5 D    2.200000
   4 F   17.560000
   4 F    9.950000
   4 F    5.750000

 Frozen Core Shells
 ------------------
    S:  4
    P:  3
    D:  2

 Atom Type    2  (H)
 ==============

 Valence Basis Sets:   3
 -----------------------
   1 S    0.760000
   1 S    1.280000
   2 P    1.250000

 Atom Type    3  (O)
 ==============

 Valence Basis Sets:   6
 -----------------------
   1 S    7.360000
   2 S    1.700000
   2 S    2.820000
   2 P    1.300000
   2 P    3.060000
   3 D    2.000000

 Frozen Core Shells
 ------------------
    S:  1


 BAS: List of all Elementary Cartesian Basis Functions
 =====================================================

 The numbering in the list below (to the right of the function characteristics) is referred
 to in print-outs of MO eigenvectors and Mulliken populations in the BAS representation
 (as contrasted to the SFO representation).

 Notes:
 1. The functions are characterized by a polynomial prefactor (powers of x,y,z and r) and
    an exponential decay factor alpha.
 2. Since the basis sets are specific for an atom TYPE, the individual functions occur on
    all atoms of that type.
 3. The word 'Core' in the left margin signals that it is a Core Function (CF) : not a
    degree of freedom in the valence set, but only used to ensure orthogonalization of
    the other valence basis functions on the frozen Core Orbitals.


 (power of) X  Y  Z  R     Alpha  on Atom
            ==========     =====     ==========

 Pb                                   1
                                  ---------------------------------------------------------------------------
    Core    0  0  0  0    60.000      1
    Core    0  0  0  1    37.900      2
    Core    0  0  0  2    22.100      3
    Core    0  0  0  3    13.150      4
    Core    1  0  0  0    38.650      5
    Core    0  1  0  0    38.650      6
    Core    0  0  1  0    38.650      7
    Core    1  0  0  1    20.600      8
    Core    0  1  0  1    20.600      9
    Core    0  0  1  1    20.600     10
    Core    1  0  0  2    12.450     11
    Core    0  1  0  2    12.450     12
    Core    0  0  1  2    12.450     13
    Core    2  0  0  0    23.450     14
    Core    1  1  0  0    23.450     15
    Core    1  0  1  0    23.450     16
    Core    0  2  0  0    23.450     17
    Core    0  1  1  0    23.450     18
    Core    0  0  2  0    23.450     19
    Core    2  0  0  1    11.600     20
    Core    1  1  0  1    11.600     21
    Core    1  0  1  1    11.600     22
    Core    0  2  0  1    11.600     23
    Core    0  1  1  1    11.600     24
    Core    0  0  2  1    11.600     25
            0  0  0  0   196.000     26
            0  0  0  4     7.650     27
            0  0  0  4     5.200     28
            0  0  0  5     3.700     29
            0  0  0  5     2.400     30
            0  0  0  5     1.580     31
            1  0  0  3     6.600     32
            0  1  0  3     6.600     33
            0  0  1  3     6.600     34
            1  0  0  3     4.200     35
            0  1  0  3     4.200     36
            0  0  1  3     4.200     37
            1  0  0  4     2.700     38
            0  1  0  4     2.700     39
            0  0  1  4     2.700     40
            1  0  0  4     1.600     41
            0  1  0  4     1.600     42
            0  0  1  4     1.600     43
            1  0  0  4     0.960     44
            0  1  0  4     0.960     45
            0  0  1  4     0.960     46
            2  0  0  2     6.000     47
            1  1  0  2     6.000     48
            1  0  1  2     6.000     49
            0  2  0  2     6.000     50
            0  1  1  2     6.000     51
            0  0  2  2     6.000     52
            2  0  0  2     3.650     53
            1  1  0  2     3.650     54
            1  0  1  2     3.650     55
            0  2  0  2     3.650     56
            0  1  1  2     3.650     57
            0  0  2  2     3.650     58
            2  0  0  2     2.200     59
            1  1  0  2     2.200     60
            1  0  1  2     2.200     61
            0  2  0  2     2.200     62
            0  1  1  2     2.200     63
            0  0  2  2     2.200     64
            3  0  0  0    17.560     65
            2  1  0  0    17.560     66
            2  0  1  0    17.560     67
            1  2  0  0    17.560     68
            1  1  1  0    17.560     69
            1  0  2  0    17.560     70
            0  3  0  0    17.560     71
            0  2  1  0    17.560     72
            0  1  2  0    17.560     73
            0  0  3  0    17.560     74
            3  0  0  0     9.950     75
            2  1  0  0     9.950     76
            2  0  1  0     9.950     77
            1  2  0  0     9.950     78
            1  1  1  0     9.950     79
            1  0  2  0     9.950     80
            0  3  0  0     9.950     81
            0  2  1  0     9.950     82
            0  1  2  0     9.950     83
            0  0  3  0     9.950     84
            3  0  0  0     5.750     85
            2  1  0  0     5.750     86
            2  0  1  0     5.750     87
            1  2  0  0     5.750     88
            1  1  1  0     5.750     89
            1  0  2  0     5.750     90
            0  3  0  0     5.750     91
            0  2  1  0     5.750     92
            0  1  2  0     5.750     93
            0  0  3  0     5.750     94

 H                                    2    3    4    5
                                  ---------------------------------------------------------------------------
            0  0  0  0     0.760     95  100  105  110
            0  0  0  0     1.280     96  101  106  111
            1  0  0  0     1.250     97  102  107  112
            0  1  0  0     1.250     98  103  108  113
            0  0  1  0     1.250     99  104  109  114

 O                                    6    7
                                  ---------------------------------------------------------------------------
    Core    0  0  0  0     7.360    115  130
            0  0  0  1     1.700    116  131
            0  0  0  1     2.820    117  132
            1  0  0  0     1.300    118  133
            0  1  0  0     1.300    119  134
            0  0  1  0     1.300    120  135
            1  0  0  0     3.060    121  136
            0  1  0  0     3.060    122  137
            0  0  1  0     3.060    123  138
            2  0  0  0     2.000    124  139
            1  1  0  0     2.000    125  140
            1  0  1  0     2.000    126  141
            0  2  0  0     2.000    127  142
            0  1  1  0     2.000    128  143
            0  0  2  0     2.000    129  144

 Total number of charge fitting functions (nprimf)       706
 Total number of Cartesian basis functions (naos)        144
 Total number of Cartesian core functions  (ncos)         27

1
 ***************************************************************************************************



                                              ***********************
                                              *  T E C H N I C A L  *
                                              ***********************
  



 =============================================================
 P A R A L L E L I Z A T I O N  and  V E C T O R I Z A T I O N
 =============================================================
  
 Nr of parallel processes:                               12
 Maximum vector length in NumInt loops:                 128



 =====================
 S C F   U P D A T E S
 =====================
  
 Max. nr. of cycles:                               300
 Convergence criterion:                              0.0000010000
   secondary criterion:                              0.0010000000

 Mix parameter (when DIIS does not apply):           0.2000000000
 Mixed ADIIS+SDIIS will be used                  
    Max number of expansion vectors:                10
    Pure ADIIS when Max([F,P]) is above              0.1000000000
    Pure SDIIS when Max([F,P]) is below              0.0010000000
 Automatic ElectronSmearing (in case of problematic SCF convergence) disabled



 =================
 P R E C I S I O N  ***  (General: NumInt, NeglectFunctionTails, ...)  ***
 =================
  

 NumInt:           Target precision:                 4.0000000000
 -------           Initial precision:                4.0000000000
                   Min. precision (optimization):    4.0000000000

 Neglect Functions:          Basis functions:        0.1000000000E-05
 ------------------          Fit functions:          0.1000000000E-05



 ===========================
 L I N E A R   S C A L I N G
 ===========================
  

 Cut-off radii density fit:                        0.1000000000E-07
 Overlap cut-off criterion AO matrix elements:     0.1000000000E-05
 Cut-offs for Coulomb potential and fitted density:0.1000000000E-07
 Cut-off criterion for Coulomb multipole terms:    0.1000000000E-07
 Progressive Convergence parameter:                 0.000000000    

          A * e 1/2 :      A1/2

  A1/2:1 = A.alpha
  A1/2:1 = A.beta

 Number of elements of the density matrix on this node (used, total):      4465     10440



 ===========================================
 Numerical Integration : Fuzzy Cells (Becke)
 ===========================================
  
 Becke grid quality: NORMAL         
  
 Lebedev angular grid order:             min:  11 max:  23
 Nr. of radial points:                   min:  46 max: 123

 Total nr. of points:      53033
 Nr. of blocks:              415
 Block length:               128
 Nr. of dummy points:         87


 Test of Precision of the Numerical Integration Grid
 ===================================================

 Integral of the Total Core Density:                  49.99999838279416
 Relative Error:                                      -3.234E-08



 ========================
 Density Fitting (zlmFit)
 ========================
  
 ZlmFit Fit Quality: NORMAL         
  
 Max L-expansion:                        min:   5 max:   7
 Nr. of radial interpolation points:     min:  36 max: 114



 =====
 S C F  ***  ScaSCF  ***
 =====
  
 Initial density matrix is taken from previous geometry

 CYCLE    1
 SCF Error: norm([F,P])=      1.876932824086, max([F,P])=      0.359876497721
 orbitals (Q,E):
 ---------------
 A1/2 :41...60       ( 1.00    -0.8977)  ( 1.00    -0.8977)  ( 1.00    -0.8037)  ( 1.00    -0.8037)
                     ( 1.00    -0.7663)  ( 1.00    -0.7663)  ( 1.00    -0.7006)  ( 1.00    -0.7006)
                     ( 1.00    -0.6934)  ( 1.00    -0.6934)  ( 0.00    -0.5374)  ( 0.00    -0.5374)
                     ( 0.00    -0.4848)  ( 0.00    -0.4848)  ( 0.00    -0.4639)  ( 0.00    -0.4639)
                     ( 0.00    -0.3404)  ( 0.00    -0.3404)  ( 0.00    -0.3183)  ( 0.00    -0.3183)

 CYCLE    2
   MIX coefficients:  0.8000  0.2000
 SCF Error: norm([F,P])=      0.000000120566, max([F,P])=      0.000000020512
 orbitals (Q,E):
 ---------------
 A1/2 :41...60       ( 1.00    -0.8977)  ( 1.00    -0.8977)  ( 1.00    -0.8037)  ( 1.00    -0.8037)
                     ( 1.00    -0.7663)  ( 1.00    -0.7663)  ( 1.00    -0.7006)  ( 1.00    -0.7006)
                     ( 1.00    -0.6934)  ( 1.00    -0.6934)  ( 0.00    -0.5374)  ( 0.00    -0.5374)
                     ( 0.00    -0.4848)  ( 0.00    -0.4848)  ( 0.00    -0.4639)  ( 0.00    -0.4639)
                     ( 0.00    -0.3404)  ( 0.00    -0.3404)  ( 0.00    -0.3183)  ( 0.00    -0.3183)

 SCF CONVERGED

 CYCLE    3
1
 ***************************************************************************************************



                                                *******************
                                                *  R E S U L T S  *
                                                *******************
  
 *** Using FIT density in Focky
  SDIIS (wt  0.000): -0.8133  1.8133
 A-DIIS (wt  1.000):  0.0000  1.0000
  DIIS coefficients:  0.0000  1.0000
 SCF Error: norm([F,P])=      0.000000060222, max([F,P])=      0.000000011658

 Scaled ZORA Orbital Energies, per Irrep and Spin:
 =================================================
                        Occup              E (au)              E (eV)       Diff (eV) with prev. cycle
                        -----      --------------------        ------       --------------------------
 A1/2
              41        1.000     -0.89774936311646E+00       -24.429               3.48E-07
              42        1.000     -0.89774936311645E+00       -24.429               3.48E-07
              43        1.000     -0.80370430838388E+00       -21.870               4.52E-07
              44        1.000     -0.80370430838348E+00       -21.870               4.52E-07
              45        1.000     -0.76633050999991E+00       -20.853               2.41E-07
              46        1.000     -0.76633050999982E+00       -20.853               2.41E-07
              47        1.000     -0.70057660036597E+00       -19.064               4.13E-07
              48        1.000     -0.70057660036587E+00       -19.064               4.13E-07
              49        1.000     -0.69336337360916E+00       -18.867               4.07E-07
              50        1.000     -0.69336337360901E+00       -18.867               4.07E-07
              51        0.000     -0.53741866748977E+00       -14.624
              52        0.000     -0.53741866748976E+00       -14.624
              53        0.000     -0.48477718647393E+00       -13.191
              54        0.000     -0.48477718647392E+00       -13.191
              55        0.000     -0.46385999382487E+00       -12.622
              56        0.000     -0.46385999382486E+00       -12.622
              57        0.000     -0.34038224299265E+00        -9.262
              58        0.000     -0.34038224299265E+00        -9.262
              59        0.000     -0.31830414413718E+00        -8.661
              60        0.000     -0.31830414413717E+00        -8.661
  
 HOMO :       50 A1/2             -0.69336337360901E+00
 LUMO :       51 A1/2             -0.53741866748977E+00
  


 Scaled ZORA Orbital Energies of the Core Orbitals:
 ==================================================

 (Note that the atoms are grouped by atomtype, see the labels, and may hence NOT be in input order)

 AtomType  Orbital  Atom                   E (au)                        E (eV)
 --------  -------  ----           --------------------        ----------------
 Pb          1S        1          -0.32300117196553E+04              -87893.091
             2S        1          -0.57779266673319E+03              -15722.538
             3S        1          -0.13911466593899E+03               -3785.503
             4S        1          -0.31885961497812E+02                -867.661
             2P        1          -0.49534426914270E+03              -13479.003
             3P        1          -0.11546846808087E+03               -3142.057
             4P        1          -0.24156102955809E+02                -657.321
             3D        1          -0.91600315378361E+02               -2492.571
             4D        1          -0.15264310168035E+02                -415.363
 O           1S        4          -0.19264210873100E+02                -524.206
                       6          -0.19263722999303E+02                -524.193


 Fit test: (difference of exact and fit density, squared integrated, result summed over spins)
         Sum-of-Fragments:                             0.00000000009298
         Orthogonalized Fragments:                     0.00005663912302
         SCF:                                          0.00018612138672



 ==========================
 Electron Density at Nuclei
 ==========================
  
 The electron density is calculated at points on a small sphere around the center of a nucleus.
 The printed electron density is the average electron density on these points.
 The radius of the sphere is the printed approximate finite nuclear radius.
 Note: ZORA-4 density is used, which includes small component density

         Atom        Nuclear Radius (Angstrom)             Electron Density (a.u.)
         ----        -------------------------             -----------------------
     1)   Pb                0.0000713054                          2606417.05993
     2)   H                 0.0000181514                                0.40793
     3)   H                 0.0000181514                                0.40947
     4)   O                 0.0000345546                              317.71872
     5)   H                 0.0000181514                                0.40917
     6)   O                 0.0000345546                              317.70927
     7)   H                 0.0000181514                                0.40780



 =======================================
 M U L L I K E N   P O P U L A T I O N S
 =======================================
  
 The survey below gives for each atom:
 a) the total charge (Z minus electrons)
 b) the net spin polarization (nr of electrons spin-A minus spin-B)
 c) for each spin the atomic electron valence density (integrated) per L-value.

 Atom              Charge    Spin density          S         P         D         F
 ----              ------    ------------       ------    ------    ------    ------
 1 Pb              1.6255                       3.9721    6.3714   10.0309   14.0001
 2 H               0.4364                       0.5120    0.0516    0.0000    0.0000
 3 H               0.4313                       0.5152    0.0535    0.0000    0.0000
 4 O              -0.6808                       1.8511    4.8105    0.0192    0.0000
 5 H               0.4318                       0.5148    0.0535    0.0000    0.0000
 6 O              -0.6805                       1.8503    4.8113    0.0189    0.0000
 7 H               0.4364                       0.5121    0.0515    0.0000    0.0000

 Populations of individual BAS functions
 ----------------------------------------
 1 Pb          -0.0030 -0.0024  0.0031  0.0614 -0.0017 -0.0017 -0.0017 -0.0032 -0.0032 -0.0032
                0.0734  0.0736  0.0737  0.0046  0.0069  0.0069  0.0046  0.0069  0.0046  0.0370
                0.0557  0.0557  0.0372  0.0558  0.0373  0.0004  1.3237  0.6867  0.9511  0.9135
                0.0376  1.3307  1.3333  1.3356  0.6086  0.6075  0.6068  0.0537  0.0961  0.1358
                0.0212  0.0012  0.0097 -0.0021  0.0143  0.0131  0.4858  0.7296  0.7291  0.4868
                0.7304  0.4882  0.7190  1.0848  1.0837  0.7236  1.0839  0.7273  0.0946  0.1294
                0.1300  0.0847  0.1294  0.0777  0.1599  0.3198  0.3198  0.3198  0.3997  0.3198
                0.1599  0.3198  0.3198  0.1599  0.4920  0.9841  0.9841  0.9842  1.2303  0.9842
                0.4921  0.9842  0.9843  0.4922  0.1484  0.2963  0.2964  0.2959  0.3700  0.2957
                0.1480  0.2961  0.2958  0.1475
 2 H           -0.2142  0.7262  0.0292  0.0041  0.0183
 3 H           -0.2126  0.7279  0.0285  0.0068  0.0183
 5 H           -0.2129  0.7276  0.0178  0.0178  0.0179
 7 H           -0.2142  0.7263  0.0209  0.0166  0.0140
 4 O            0.0004  0.9548  0.8959  0.9781  0.6469  0.8184  0.8803  0.7332  0.7538 -0.0255
                0.0012  0.0029  0.0212  0.0057  0.0137
 6 O            0.0004  0.9545  0.8954  0.8529  0.8025  0.7885  0.8119  0.7590  0.7964 -0.0042
                0.0018  0.0058  0.0123  0.0052 -0.0019

 Gross Charges per Atom (Z minus electrons)
 ==========================================
             1.6255    0.4364    0.4313   -0.6808    0.4318   -0.6805    0.4364
 Net Total:  2.00000000


 Atom-Atom Population Matrix (off-diagonal elements not doubled)
 ===============================================================

     1 :    34.2764
     2 :     0.0010    0.3000
     3 :     0.0021   -0.0330    0.3006
     4 :     0.0459    0.2953    0.2996    6.0414
     5 :     0.0019    0.0000   -0.0005   -0.0002    0.3001
     6 :     0.0461    0.0005   -0.0001   -0.0016    0.3001    6.0399
     7 :     0.0010   -0.0001    0.0000    0.0005   -0.0333    0.2957    0.2997



 =================================================
 H I R S H F E L D   C H A R G E   A N A L Y S I S
 =================================================
  
 For each fragment: the (numerical) integral of rho(scf) * rho(fragment)/rho(sum-of-fragments)
 (nuclear charges are included, electrons are counted negative)

 The fragments and their ordering are defined in the early G E O M E T R Y output section.
 If you use single-atom fragments, this usually implies that all atoms of the same
 chemical type are grouped together. This may not be the order in which you listed them
 in the input file!

    1  Pb                        1.3294
    2  H                         0.2489
    3  H                         0.2452
    4  H                         0.2452
    5  H                         0.2492
    6  O                        -0.1590
    7  O                        -0.1588

 Sum of these charges (accuracy NumInt/Tails) =           2.00002029



 =============================
 V O R O N O I   C H A R G E S
 =============================
  
 For each atom: the (numerical) integral of the total electronic charge density in its Voronoi cell,
 i.e. the region of space that is closer to that atom than to any other atom.
 (cf. Wigner-Seitz cells in crystals)

 Within the Voronoi cell the subintegrals over the atomic sphere and the remaining part are evaluated
 separately to give the numbers of electrons (negative charge) in these regions.
 The net total charge in the cell (including the nuclear charge) is also given.

 Values are provided for
    a) the Initial (sum-of-fragments) density
    b) the Orthogonalized-Fragments density
    c) the SCF density
    d) the Voronoi Deformation Density (VDD): the difference SCF-Initial for the complete atomic cell


  Atom                Initial                    OrthFrag                   SCF
             Sphere RestCell NetTotal   Sphere RestCell NetTotal   Sphere RestCell NetTotal      VDD
 -----       ------------------------   ------------------------   ------------------------    -----
    1 Pb    -72.854   -8.463    0.683  -72.879   -8.579    0.542  -72.873   -7.316    1.811    1.128
    2 H      -0.078   -1.443   -0.522   -0.086   -1.319   -0.405   -0.090   -1.119   -0.210    0.312
    3 H      -0.079   -1.447   -0.526   -0.086   -1.318   -0.404   -0.091   -1.141   -0.232    0.294
    4 O      -2.819   -4.474    0.706   -2.997   -4.465    0.538   -2.841   -4.623    0.536   -0.170
    5 H      -0.079   -1.442   -0.520   -0.086   -1.312   -0.398   -0.091   -1.137   -0.228    0.292
    6 O      -2.819   -4.462    0.718   -2.997   -4.455    0.548   -2.841   -4.607    0.552   -0.166
    7 H      -0.079   -1.461   -0.540   -0.087   -1.335   -0.421   -0.091   -1.139   -0.230    0.310
 ---------------------------------------------------------------------------------------------------
 Total NetCharge:               0.000                      0.000                      2.000    2.000
 (accuracy NumInt/Tails)

 Remark: the 'NetTotal' Voronoi charges often do not match the Mulliken and/or Hirshfeld charges very
 well. This is caused by the fact that chemically different atoms are not treated in accordance with
 their relative sizes. (Voronoi cells are defined by boundary planes halfway between the atoms.)
 However, the CHANGES in charge, comparing 'Initial' to 'SCF' for instance, do give a fair indication
 of the flow of charge caused by the relaxation from sum-of-fragments to self-consistency.

 Warning: the absolute accuracy of the VDD charges obtained using the Fuzzy Cells (Becke) integration
 scheme is much poorer than the one obtained with an 'equivalent' Voronoi integration grid. 



 =================================================================
 M U L T I P O L E   D E R I V E D   C H A R G E   A N A L Y S I S
 =================================================================

 This charge analysis uses the atomic multipoles (obtained from the fitted density) up to some level X,
 and reconstructs these multipoles exactly (up to level X) by distributing charges over all atoms.
 This is achieved by using Lagrange multipliers and a weight function to keep the multipoles local.

 Dummy atoms can be included (by setting INCDUM in MDC-block to 1) to obtain a fractional charge.
 This is generally useful and necessary only for small symmetrical molecules, when there are not
 enough degrees of freedom to reconstruct the multipoles.

 Since the atomic multipoles are reconstructed up to level X,
 the molecular multipoles are represented also up to level X.
 The recommended level is to reconstruct up to quadrupole : -> MDC-q charges.

 See: M. Swart, P.Th. van Duijnen, J.G. Snijders, J.Comput.Chem., (2001), p. 79-88.

 ------------------------------------------------------------- 
 Atomic electronic multipole moments from SCF equations (a.u.)
 ------------------------------------------------------------- 

   atom        charge        dip-x     dip-y     dip-z      quad-xx   quad-xy   quad-xz   quad-yy   quad-yz   quad-zz
 --------------------------------------------------------------------------------------------------------------------
    1 Pb     1.695922     0.142683  0.183207 -0.394479    -0.156557 -0.017180 -0.038978  0.170937  0.056857 -0.014379
    2 H      0.190568     0.005805 -0.123076 -0.054759    -0.132647 -0.005689  0.020519  0.174940  0.032098 -0.042294
    3 H      0.188212    -0.030589  0.063528 -0.112782    -0.107739 -0.033955  0.054824  0.044271 -0.065971  0.063468
    4 O     -0.226462    -0.099759 -0.180325 -0.531643    -0.796097 -0.123471  0.218062  0.711063 -0.092757  0.085034
    5 H      0.188270     0.094911  0.027954 -0.089797     0.041890  0.017852 -0.101729 -0.059610  0.017200  0.017720
    6 O     -0.227521     0.316726  0.467075 -0.099595    -0.170054  0.079224 -0.443854  0.132483  0.338670  0.037571
    7 H      0.191011    -0.000608  0.122055  0.057490    -0.080360  0.005988 -0.036655  0.087581  0.089647 -0.007220

 --------------------------------------- 
 Multipole derived atomic charges (a.u.)
 --------------------------------------- 

 The MDC-m charges are just the Monopole terms in the multipole expansion, while for the MDC-d charges
 also the Dipoles are reconstructed. The usually preferred charges are the MDC-q charges.
 These reconstruct the Monopoles, Dipoles and Quadrupoles (both atomic AND molecular).

        Atom    Level:     MDC-m        MDC-d        MDC-q
 ---------------------------------------------------------
     1     Pb           1.695922     1.453808     1.654297
     2     H            0.190568     0.451202     0.323056
     3     H            0.188212     0.429139     0.448218
     4     O           -0.226462    -0.606921    -0.466062
     5     H            0.188270     0.431784     0.427763
     6     O           -0.227521    -0.613206    -1.091532
     7     H            0.191011     0.454193     0.704259

 ------------------------------------------------ 
 Average absolute deviations in atomic multipoles
 ------------------------------------------------ 

 Stated here are the average differences between the atomic multipoles
 and the reconstructed atomic multipoles (from the distributed charges).
 If these values are not zero, this means there are not enough degrees of freedom,
 to be able to reconstruct the atomic multipoles. (This usually happens only
 for small and/or highly symmetric molecules). If this is the case, one could add
 dummy atoms as extra point charges (and setting INCDUM in MDC-block to 1).

 Level:                                 MDC-d        MDC-q
 ---------------------------------------------------------
 Charge   (a.u.)                       0.0000       0.0000
 Dipole   (Debye)                      0.0000       0.1750
 Quad.    (a.u.)                       0.2887       0.0128

 --------------------------------------- 
 Represented molecular multipole moments
 --------------------------------------- 

 Given here are the Molecular multipole moments from the atomic charges, and from the Fit Density.
 Note that the atomic charges represent the latter, NOT the ones from the Exact density.

            Q (a.u.)             Dipole moment (Debye)                                          Quadrupole moment (a.u.)
                                 x         y         z              xx        xy        xz        yy        yz        zz
------------------------------------------------------------------------------------------------------------------------
MDC-m         2.0000       -3.8441   -4.9535   10.7670         -9.1438    6.2400   -5.2767   -0.7618   -4.5046    9.9055
MDC-d         2.0000       -2.7533   -3.5291    7.6519        -11.7202    9.3319   -2.4642    4.3537    1.8614    7.3665
MDC-q         2.0000       -3.8849   -4.2825    8.8636        -12.6877    9.1444   -3.3602    3.3613    1.1492    9.3264
 
Fit.Dens.     2.0000       -2.7533   -3.5291    7.6519        -12.2488    8.8080   -2.7815    4.7755    1.5846    7.4734



 =============
 Dipole Moment  ***  (Debye)  ***
 =============
  
 Vector   :        -2.75205979     -3.52569941      7.65343784
 Magnitude:         8.86450790

 This molecular dipole moment is calculated with analytic integration
 ************************************************************************************
 Since the molecule is NOT NEUTRAL, the dipole moment depends on the choice of origin
 ************************************************************************************



 =========================================
 Quadrupole Moment (Buckingham convention)  ***  (a.u.)  ***
 =========================================
  
      quad-xx        quad-xy        quad-xz        quad-yy        quad-yz        quad-zz
    -12.25370774     8.77378256    -2.94562759     4.77888285     1.77435976     7.47482488

 This molecular quadrupole moment is calculated with analytic integration
1



 ===========================
 B O N D I N G   E N E R G Y  ***  (decomposition)  ***
 ===========================
  
*** IMPORTANT NOTE ***

The bond energy is computed as an energy difference between molecule and
fragments. In particular when the fragments are single atoms, they are usually
computed as SPHERICALLY SYMMETRIC and SPIN-RESTRICTED. Obviously, this usually
does NOT represent the true atomic groundstate.

To obtain the 'real' bond energy, (atomic) correction terms must be applied
for the true (multiplet) fragment ground state. See ref: E.J.Baerends,
V.Branchadell, M.Sodupe, Chem.Phys.Lett.265 (1997) 481

General theoretical background on the bond energy decomposition scheme used
here (Morokuma-Ziegler) can be found in the review paper:
F.M. Bickelhaupt and E.J. Baerends,
"Kohn-Sham Density Functional Theory: Predicting and Understanding Chemistry"
In: Rev. Comput. Chem.; Lipkowitz, K. B. and Boyd, D. B., Eds.;
Wiley-VCH: New York, 2000, Vol. 15, 1-86.

Symbols used in the Bickelhaupt-Baerends (BB) paper are given below to make
the direct connection to that paper, where detailed explanations can be found
on the meaning of the various terms.
The Spin-Orbit term is calculated as the expectation value of the spin-orbit
 operator summed over all occupied spinors.


                                                   hartree              eV         kcal/mol           kJ/mol
                                      --------------------     -----------       ----------      -----------

Pauli Repulsion
  Kinetic (Delta T^0):                  10.632973198071950        289.3379          6672.29         27916.87
  Delta V^Pauli Coulomb:                -6.618048988104474       -180.0863         -4152.89        -17375.69
  Delta V^Pauli LDA-XC:                 -1.293615675242050        -35.2011          -811.76         -3396.39
  Delta V^Pauli GGA-Exchange:            0.076922575090219          2.0932            48.27           201.96
  Delta V^Pauli GGA-Correlation:        -0.026486714055208         -0.7207           -16.62           -69.54
                                      --------------------     -----------       ----------      -----------
  Total Pauli Repulsion:                 2.771744395760437         75.4230          1739.30          7277.21
 (Total Pauli Repulsion =
  Delta E^Pauli in BB paper)

Steric Interaction
  Pauli Repulsion (Delta E^Pauli):       2.771744395760437         75.4230          1739.30          7277.21
  Electrostatic Interaction:            -0.596518052641049        -16.2321          -374.32         -1566.16
 (Electrostatic Interaction =
  Delta V_elstat in the BB paper)
                                      --------------------     -----------       ----------      -----------
  Total Steric Interaction:              2.175226343119388         59.1909          1364.98          5711.06
 (Total Steric Interaction =
  Delta E^0 in the BB paper)

Orbital Interactions
  A:                                    -2.509588030130683        -68.2894         -1574.79         -6588.92
  Spin-Orbit:                           -0.212544360184122         -5.7836          -133.37          -558.04
                                      --------------------     -----------       ----------      -----------
  Total Orbital Interactions:           -2.722132390314810        -74.0730         -1708.16         -7146.96

Alternative Decomposition Orb.Int.
  Kinetic:                             -10.232641367979904       -278.4443         -6421.08        -26865.80
  Coulomb:                               6.960463739614245        189.4039          4367.76         18274.69
  XC:                                    0.762589598234970         20.7511           478.53          2002.18
  Spin-Orbit:                           -0.212544360184122         -5.7836          -133.37          -558.04
                                      --------------------     -----------       ----------      -----------
  Total Orbital Interactions:           -2.722132390314810        -74.0730         -1708.16         -7146.96

  Residu (E=Steric+OrbInt+Res):         -0.000076193001632         -0.0021            -0.05            -0.20

Total Bonding Energy:                   -0.546982240197053        -14.8841          -343.24         -1436.10


Summary of Bonding Energy (energy terms are taken from the energy decomposition above)
======================================================================================

  Electrostatic Energy:                 -0.596518052641049        -16.2321          -374.32         -1566.16
  Kinetic Energy:                        0.400331830092046         10.8936           251.21          1051.07
  Coulomb (Steric+OrbInt) Energy:        0.342338558508140          9.3155           214.82           898.81
  XC Energy:                            -0.480590215972069        -13.0775          -301.57         -1261.79
  Spin-Orbit:                           -0.212544360184122         -5.7836          -133.37          -558.04
                                      --------------------     -----------       ----------      -----------
  Total Bonding Energy:                 -0.546982240197053        -14.8841          -343.24         -1436.10


Correction terms (incorporated in energies above; only for test purposes):

1. Indication of fit-quality: 1st-order fit-correction used in the energy (hartree):  -0.0006827146
2. Electrostatic (Fit correction):   0.0000000000

Scaled ZORA energy correction, not included in bonding energy (hartree):            0.0001371947
 NOTE: This scaled ZORA energy correction should only be used to compare two calculations
 in which the only difference in the calculation is the electron configuration.
 Then the difference in energy of this term should be added to the difference in energy of
 the two electron configurations.
 This term should not be used otherwise.
 In practice it is useful only for core excitation energy calculations.



 =========================================
 F R A G M E N T   E N E R G Y   T E R M S  ***  (summed over all fragments)  ***
 =========================================
  

The energy terms below are (parts of) the Total Energy of the fragments from which the molecule
 is built.

Exchange and Correlation
  Exchange LDA:                       -385.248114451310187     -10483.1346       -241746.87      -1011468.78
  Exchange GGA:                        -18.338702262074818       -499.0215        -11507.71        -48148.26
  Correlation LDA:                      -9.891667841488005       -269.1660         -6207.12        -25970.57
  Correlation GGA:                       3.532453910180016         96.1230          2216.65          9274.46
                                      --------------------     -----------       ----------      -----------
  Total XC:                           -409.946030644692996     -11155.1991       -257245.05      -1076313.15

 Energy gradients wrt nuclear displacements
 ==========================================

     Atom      Cartesian (a.u./angstrom)
                 X         Y         Z
 ----------------------------------------
     1 Pb   -0.000304 -0.000375  0.000504
     2 H     0.000003  0.000010 -0.000034
     3 H    -0.000016 -0.000033  0.000030
     4 O     0.000052 -0.000208 -0.000313
     5 H    -0.000082  0.000154  0.000027
     6 O     0.000253  0.000365  0.000034
     7 H     0.000094  0.000087 -0.000248
 ----------------------------------------



 =======================================================================
 Electrostatic potential at the Nuclei due to electrons and other nuclei
 =======================================================================
  
         Atom                  Potential
         ----                  ---------
     1)   Pb                645.05084071
     2)   H                   0.55555187
     3)   H                   0.55447326
     4)   O                  21.87539989
     5)   H                   0.55478582
     6)   O                  21.87577775
     7)   H                   0.55522073
 Mulliken charges used for AMS results%charges...
 Continuous PES requested. Disabling symmetry...
 *** adf_CentralGeo ***



 ===========================
 A T T A C H E D   F I L E S
 ===========================
  
 Restart/tmp/amstmp_ams_kid0.1348952278/adf.rkf*** adf ***



 ===============================
 M O D E L   P A R A M E T E R S
 ===============================
  
 DENSITY FUNCTIONAL POTENTIAL (scf)
    LDA:                               VWN                                      
    Gradient Corrections:              Becke88 Perdew86                        == Not Default ==

 SPIN  (restricted / unrestr.)
    Molecule:                          Restricted
    Fragments:                         Restricted                               

 OTHER ASPECTS
    Relativistic Corrections:          Spin-Orbit (ZORA,MAPA)                  == Not Default ==

    Nuclear Charge Density Model:      Point Charge Nuclei                      
    Core Treatment:                    Frozen Orbital(s)                        

    Hyperfine or Zeeman Interaction:   ---                                      



 ===============
 G E O M E T R Y  ***  3D  Molecule  ***
 ===============
  

 ATOMS
 =====                            X Y Z                    CHARGE
                                (Angstrom)             Nucl     +Core       At.Mass
                       --------------------------    ----------------       -------
    1  Pb             -0.5193   -0.6710    1.4622     82.00     36.00      207.9766
    2  H              -0.4641   -2.2880   -1.1431      1.00      1.00        1.0078
    3  H              -0.7503   -0.7979   -1.6104      1.00      1.00        1.0078
    4  O              -0.4340   -1.3402   -0.8380      8.00      6.00       15.9949
    5  H               1.2254    1.4812    0.1013      1.00      1.00        1.0078
    6  O               0.4753    1.3863    0.7487      8.00      6.00       15.9949
    7  H               0.4669    2.2295    1.2794      1.00      1.00        1.0078


 FRAGMENTS
 =========                                     Atoms in this Fragment     Cart. coord.s (Angstrom)
                                               -------------------------------------------------------
    1  Pb                                                1  Pb          -0.5193   -0.6710    1.4622
    2  H                                                 2  H           -0.4641   -2.2880   -1.1431
    3  H                                                 3  H           -0.7503   -0.7979   -1.6104
    4  H                                                 5  H            1.2254    1.4812    0.1013
    5  H                                                 7  H            0.4669    2.2295    1.2794
    6  O                                                 4  O           -0.4340   -1.3402   -0.8380
    7  O                                                 6  O            0.4753    1.3863    0.7487


 Interatomic Distance Matrix (Angstrom)
 --------------------------------------

   1)     0.000
   2)     3.067   0.000
   3)     3.084   1.588   0.000
   4)     2.397   0.996   0.995   0.000
   5)     3.087   4.314   3.468   3.405   0.000
   6)     2.394   4.238   3.441   3.283   0.995   0.000
   7)     3.069   5.210   4.359   4.247   1.588   0.996   0.000

 Min. Distance =    0.9954
 Max. Distance =    5.2099



 =====================================
 S Y M M E T R Y ,   E L E C T R O N S
 =====================================
  
 Symmetry: NOSYM

 Double Group Irreducible Representations (spinor symmetry)
 -----------------------------------------------------------
 A1/2


 Configuration of Valence Electrons
 ==================================
 ( determined in the SCF procedure )

 Total:   50

 Net Charge: 2 (Nuclei minus Electrons)

 Aufbau principle for MO occupations will be applied through SCF cycle no.     150
 Thereafter, the program will assign electrons to MOs that are spatially
 similar to the occupied MOs in a "reference" cycle ("KeepOrbitals").
 The reference cycle is always the PREVIOUS cycle: it will evolve with
 the SCF procedure.
1
 ***************************************************************************************************



                                      ****************************************
                                      *  B U I L D : (Fragments, Functions)  *
                                      ****************************************
  

 Total nr. of (C)SFOs (summation over all irreps) :   103

 Specify PRINT SFO in the input file to get a full list

 Nr. of SFOs for ir.rep.           A :   103



 ================================
 (Slater-type)  F U N C T I O N S  ***  (Basis and Fit)  ***
 ================================
  

 Atom Type    1  (Pb)
 ==============

 Valence Basis Sets:  26
 -----------------------
   1 S   60.000000
   2 S   37.900000
   3 S   22.100000
   4 S   13.150000
   2 P   38.650000
   3 P   20.600000
   4 P   12.450000
   3 D   23.450000
   4 D   11.600000
   1 S  196.000000
   5 S    7.650000
   5 S    5.200000
   6 S    3.700000
   6 S    2.400000
   6 S    1.580000
   5 P    6.600000
   5 P    4.200000
   6 P    2.700000
   6 P    1.600000
   6 P    0.960000
   5 D    6.000000
   5 D    3.650000
   5 D    2.200000
   4 F   17.560000
   4 F    9.950000
   4 F    5.750000

 Frozen Core Shells
 ------------------
    S:  4
    P:  3
    D:  2

 Atom Type    2  (H)
 ==============

 Valence Basis Sets:   3
 -----------------------
   1 S    0.760000
   1 S    1.280000
   2 P    1.250000

 Atom Type    3  (O)
 ==============

 Valence Basis Sets:   6
 -----------------------
   1 S    7.360000
   2 S    1.700000
   2 S    2.820000
   2 P    1.300000
   2 P    3.060000
   3 D    2.000000

 Frozen Core Shells
 ------------------
    S:  1


 BAS: List of all Elementary Cartesian Basis Functions
 =====================================================

 The numbering in the list below (to the right of the function characteristics) is referred
 to in print-outs of MO eigenvectors and Mulliken populations in the BAS representation
 (as contrasted to the SFO representation).

 Notes:
 1. The functions are characterized by a polynomial prefactor (powers of x,y,z and r) and
    an exponential decay factor alpha.
 2. Since the basis sets are specific for an atom TYPE, the individual functions occur on
    all atoms of that type.
 3. The word 'Core' in the left margin signals that it is a Core Function (CF) : not a
    degree of freedom in the valence set, but only used to ensure orthogonalization of
    the other valence basis functions on the frozen Core Orbitals.


 (power of) X  Y  Z  R     Alpha  on Atom
            ==========     =====     ==========

 Pb                                   1
                                  ---------------------------------------------------------------------------
    Core    0  0  0  0    60.000      1
    Core    0  0  0  1    37.900      2
    Core    0  0  0  2    22.100      3
    Core    0  0  0  3    13.150      4
    Core    1  0  0  0    38.650      5
    Core    0  1  0  0    38.650      6
    Core    0  0  1  0    38.650      7
    Core    1  0  0  1    20.600      8
    Core    0  1  0  1    20.600      9
    Core    0  0  1  1    20.600     10
    Core    1  0  0  2    12.450     11
    Core    0  1  0  2    12.450     12
    Core    0  0  1  2    12.450     13
    Core    2  0  0  0    23.450     14
    Core    1  1  0  0    23.450     15
    Core    1  0  1  0    23.450     16
    Core    0  2  0  0    23.450     17
    Core    0  1  1  0    23.450     18
    Core    0  0  2  0    23.450     19
    Core    2  0  0  1    11.600     20
    Core    1  1  0  1    11.600     21
    Core    1  0  1  1    11.600     22
    Core    0  2  0  1    11.600     23
    Core    0  1  1  1    11.600     24
    Core    0  0  2  1    11.600     25
            0  0  0  0   196.000     26
            0  0  0  4     7.650     27
            0  0  0  4     5.200     28
            0  0  0  5     3.700     29
            0  0  0  5     2.400     30
            0  0  0  5     1.580     31
            1  0  0  3     6.600     32
            0  1  0  3     6.600     33
            0  0  1  3     6.600     34
            1  0  0  3     4.200     35
            0  1  0  3     4.200     36
            0  0  1  3     4.200     37
            1  0  0  4     2.700     38
            0  1  0  4     2.700     39
            0  0  1  4     2.700     40
            1  0  0  4     1.600     41
            0  1  0  4     1.600     42
            0  0  1  4     1.600     43
            1  0  0  4     0.960     44
            0  1  0  4     0.960     45
            0  0  1  4     0.960     46
            2  0  0  2     6.000     47
            1  1  0  2     6.000     48
            1  0  1  2     6.000     49
            0  2  0  2     6.000     50
            0  1  1  2     6.000     51
            0  0  2  2     6.000     52
            2  0  0  2     3.650     53
            1  1  0  2     3.650     54
            1  0  1  2     3.650     55
            0  2  0  2     3.650     56
            0  1  1  2     3.650     57
[...]

 --------------------------------------- 
 Multipole derived atomic charges (a.u.)
 --------------------------------------- 

        Atom    Level:     MDC-m        MDC-d        MDC-q
 ---------------------------------------------------------
     1     Pb           1.695922     1.453808     1.654297
     2     H            0.190568     0.451202     0.323056
     3     H            0.188212     0.429139     0.448217
     4     O           -0.226462    -0.606920    -0.466062
     5     H            0.188270     0.431784     0.427763
     6     O           -0.227521    -0.613206    -1.091532
     7     H            0.191011     0.454193     0.704259



 =======================================================================
 Electrostatic potential at the Nuclei due to electrons and other nuclei
 =======================================================================
  
         Atom                  Potential
         ----                  ---------
     1)   Pb                645.05084072
     2)   H                   0.55555187
     3)   H                   0.55447325
     4)   O                  21.87539981
     5)   H                   0.55478581
     6)   O                  21.87577767
     7)   H                   0.55522073
 Mulliken charges used for AMS results%charges...
 Continuous PES requested. Disabling symmetry...
 *** adf-NumNuclDerivs_displ1 ***

          A * e 1/2 :      A1/2

  A1/2:1 = A.alpha
  A1/2:1 = A.beta

 Energy gradients wrt nuclear displacements
 ==========================================

     Atom      Cartesian (a.u./angstrom)
                 X         Y         Z
 ----------------------------------------
     1 Pb   -0.000178 -0.000170  0.000393
     2 H     0.000004  0.000008 -0.000040
     3 H    -0.000012 -0.000040  0.000022
     4 O     0.000038 -0.000202 -0.000279
     5 H    -0.000092  0.000117  0.000047
     6 O     0.000136  0.000227  0.000127
     7 H     0.000104  0.000059 -0.000269
 ----------------------------------------
 Mulliken charges used for AMS results%charges...
 Continuous PES requested. Disabling symmetry...
 *** adf-NumNuclDerivs_displ7 ***

          A * e 1/2 :      A1/2

  A1/2:1 = A.alpha
  A1/2:1 = A.beta

 Energy gradients wrt nuclear displacements
 ==========================================

     Atom      Cartesian (a.u./angstrom)
                 X         Y         Z
 ----------------------------------------
     1 Pb   -0.000304 -0.000368  0.000514
     2 H     0.000064  0.000043  0.000095
     3 H    -0.000013  0.000098  0.000056
     4 O    -0.000009 -0.000375 -0.000473
     5 H    -0.000081  0.000155  0.000027
     6 O     0.000251  0.000361  0.000028
     7 H     0.000092  0.000086 -0.000248
 ----------------------------------------
 Mulliken charges used for AMS results%charges...
 Continuous PES requested. Disabling symmetry...
 *** adf-NumNuclDerivs_displ13 ***

          A * e 1/2 :      A1/2

  A1/2:1 = A.alpha
  A1/2:1 = A.beta

 Energy gradients wrt nuclear displacements
 ==========================================

     Atom      Cartesian (a.u./angstrom)
                 X         Y         Z
 ----------------------------------------
     1 Pb   -0.000298 -0.000388  0.000516
     2 H     0.000008 -0.000019 -0.000030
     3 H     0.000412 -0.000762  0.001029
     4 O    -0.000389  0.000563 -0.001330
     5 H    -0.000082  0.000151  0.000022
     6 O     0.000252  0.000370  0.000039
     7 H     0.000097  0.000085 -0.000247
 ----------------------------------------
 Mulliken charges used for AMS results%charges...
 Continuous PES requested. Disabling symmetry...
 *** adf-NumNuclDerivs_displ19 ***

          A * e 1/2 :      A1/2

  A1/2:1 = A.alpha
  A1/2:1 = A.beta

 Energy gradients wrt nuclear displacements
 ==========================================

     Atom      Cartesian (a.u./angstrom)
                 X         Y         Z
 ----------------------------------------
     1 Pb   -0.000319 -0.000368  0.000500
     2 H    -0.000070 -0.000004 -0.000165
     3 H    -0.000456  0.000577 -0.000987
     4 O     0.000578 -0.000820  0.000840
     5 H    -0.000084  0.000159  0.000030
     6 O     0.000256  0.000366  0.000031
     7 H     0.000094  0.000089 -0.000249
 ----------------------------------------
 Mulliken charges used for AMS results%charges...
 Continuous PES requested. Disabling symmetry...
 *** adf-NumNuclDerivs_displ25 ***

          A * e 1/2 :      A1/2

  A1/2:1 = A.alpha
  A1/2:1 = A.beta

 Energy gradients wrt nuclear displacements
 ==========================================

     Atom      Cartesian (a.u./angstrom)
                 X         Y         Z
 ----------------------------------------
     1 Pb   -0.000315 -0.000411  0.000500
     2 H     0.000004  0.000007 -0.000036
     3 H    -0.000018 -0.000036  0.000024
     4 O     0.000049 -0.000197 -0.000309
     5 H     0.002253  0.000425 -0.001985
     6 O    -0.002062  0.000153  0.002075
     7 H     0.000088  0.000060 -0.000270
 ----------------------------------------
 Mulliken charges used for AMS results%charges...
 Continuous PES requested. Disabling symmetry...
 *** adf-NumNuclDerivs_displ31 ***

          A * e 1/2 :      A1/2

  A1/2:1 = A.alpha
  A1/2:1 = A.beta

 Energy gradients wrt nuclear displacements
 ==========================================

     Atom      Cartesian (a.u./angstrom)
                 X         Y         Z
 ----------------------------------------
     1 Pb   -0.000420 -0.000535  0.000625
     2 H     0.000005  0.000012 -0.000029
     3 H    -0.000017 -0.000039  0.000033
     4 O     0.000057 -0.000197 -0.000332
     5 H    -0.002417 -0.000345  0.001883
     6 O     0.002979  0.000961 -0.002243
     7 H    -0.000188  0.000143  0.000063
 ----------------------------------------
 Mulliken charges used for AMS results%charges...
 Continuous PES requested. Disabling symmetry...
 *** adf-NumNuclDerivs_displ37 ***

          A * e 1/2 :      A1/2

  A1/2:1 = A.alpha
  A1/2:1 = A.beta

 Energy gradients wrt nuclear displacements
 ==========================================

     Atom      Cartesian (a.u./angstrom)
                 X         Y         Z
 ----------------------------------------
     1 Pb   -0.000295 -0.000381  0.000481
     2 H     0.000002  0.000010 -0.000034
     3 H    -0.000015 -0.000034  0.000032
     4 O     0.000052 -0.000214 -0.000313
     5 H    -0.000086  0.000416  0.000200
     6 O    -0.000028  0.000109  0.000148
     7 H     0.000368  0.000095 -0.000513
 ----------------------------------------
 Mulliken charges used for AMS results%charges...
Scanning modes in range provided by user.


    =====================
     CALCULATION RESULTS
    =====================

Energy (hartree)            -0.54698224

Gradients (hartree/bohr)
  Index   Atom            d/dx            d/dy            d/dz
      1     Pb   -0.0001609308   -0.0001982213    0.0002667125
      2      H    0.0000014088    0.0000050761   -0.0000177466
      3      H   -0.0000084645   -0.0000177190    0.0000158017
      4      O    0.0000276795   -0.0001098963   -0.0001658053
      5      H   -0.0000432804    0.0000817001    0.0000145338
      6      O    0.0001339330    0.0001931486    0.0000179162
      7      H    0.0000496543    0.0000459117   -0.0001314123

 -----------------------
 Normal Mode Frequencies
 -----------------------

 Index   Frequency (cm-1)   Intensity (km/mol)
     7            54.2706               7.8509
     8            69.1724               4.5950
     9           189.1353               6.9867
    10           288.0826             121.7657
    11           302.8166             110.1657
    12           323.4507              45.0597
    13           334.0983             255.8602
    14           554.5795              50.4782
    15           571.9497              30.5170
    16          1586.0427              93.5057
    17          1591.5860              35.6619
    18          3454.6823             481.2827
    19          3464.1136             234.7205
    20          3534.0767             362.7191
    21          3538.7358             292.7371

 Zero-point energy (Hartree):     0.0452

 ------------
 Normal Modes
 ------------

 Number of removed rigid normal modes: 6
 
 Mode:     7      Frequency (cm-1):       54.2706     Intensity (km/mol):        7.8509
 Index  Atom      ---- Displacements (x/y/z) ----
     1    Pb       0.001426   0.007287  -0.009564
     2     H       0.364576  -0.134481   0.090400
     3     H      -0.515217  -0.332513   0.022011
     4     O      -0.023768  -0.090549  -0.008655
     5     H      -0.369795   0.133688  -0.305048
     6     O       0.017701   0.021522   0.127203
     7     H       0.322514  -0.074909   0.284755
 
 Mode:     8      Frequency (cm-1):       69.1724     Intensity (km/mol):        4.5950
 Index  Atom      ---- Displacements (x/y/z) ----
     1    Pb       0.008493   0.006034  -0.018858
     2     H      -0.462431  -0.172299   0.083416
     3     H       0.435083  -0.038171  -0.073541
     4     O      -0.108393  -0.173802   0.054124
     5     H       0.287454   0.142982   0.490935
     6     O       0.002185   0.092072   0.153014
     7     H      -0.327206   0.119499   0.103300
 
 Mode:     9      Frequency (cm-1):      189.1353     Intensity (km/mol):        6.9867
 Index  Atom      ---- Displacements (x/y/z) ----
     1    Pb      -0.000075   0.000116  -0.000010
     2     H      -0.475490   0.004035   0.021152
     3     H       0.463472   0.155939  -0.052680
     4     O       0.025934  -0.007923   0.011511
     5     H      -0.364059   0.070899  -0.382163
     6     O      -0.026691   0.001303  -0.000884
     7     H       0.403551  -0.149718   0.247148
 
 Mode:    10      Frequency (cm-1):      288.0826     Intensity (km/mol):      121.7657
 Index  Atom      ---- Displacements (x/y/z) ----
     1    Pb       0.006834   0.020512   0.009563
     2     H      -0.443928  -0.063049  -0.085419
     3     H      -0.100527  -0.036022  -0.123545
     4     O       0.043437  -0.045263  -0.190532
     5     H      -0.326502  -0.018307  -0.186375
     6     O      -0.039549  -0.219791   0.115478
     7     H      -0.601048   0.091036  -0.386995
 
 Mode:    11      Frequency (cm-1):      302.8166     Intensity (km/mol):      110.1657
 Index  Atom      ---- Displacements (x/y/z) ----
     1    Pb      -0.003124  -0.001267   0.018514
     2     H      -0.463755  -0.093377  -0.067752
     3     H      -0.407611  -0.104852  -0.046383
     4     O       0.069037  -0.063885  -0.210257
     5     H       0.364579  -0.145823   0.339706
     6     O      -0.020533   0.109440  -0.063936
     7     H       0.381704  -0.117488   0.305531
 
 Mode:    12      Frequency (cm-1):      323.4507     Intensity (km/mol):       45.0597
 Index  Atom      ---- Displacements (x/y/z) ----
     1    Pb      -0.009603  -0.014816   0.015675
     2     H       0.118496  -0.002104  -0.193437
     3     H       0.225414   0.034679  -0.154618
     4     O      -0.017404  -0.028267  -0.102598
     5     H      -0.244171   0.380943  -0.440331
     6     O       0.150070   0.168648  -0.024273
     7     H      -0.223522   0.415968  -0.432733
 
 Mode:    13      Frequency (cm-1):      334.0983     Intensity (km/mol):      255.8602
 Index  Atom      ---- Displacements (x/y/z) ----
     1    Pb       0.003227   0.007407   0.009788
     2     H       0.621104   0.005246  -0.287549
     3     H       0.543894   0.010162  -0.315596
     4     O      -0.082990  -0.038218  -0.099401
     5     H       0.063431  -0.146210   0.103938
     6     O      -0.047457  -0.040899  -0.006625
     7     H       0.175909  -0.142161   0.162101
 
 Mode:    14      Frequency (cm-1):      554.5795     Intensity (km/mol):       50.4782
 Index  Atom      ---- Displacements (x/y/z) ----
     1    Pb      -0.001281   0.003021   0.001813
     2     H       0.042118   0.081551  -0.400512
     3     H      -0.100726   0.272701   0.278149
     4     O       0.007687  -0.043887   0.004850
     5     H       0.023063   0.577219   0.025625
     6     O       0.029202  -0.034256  -0.046570
     7     H      -0.285521  -0.314788   0.384819
 
 Mode:    15      Frequency (cm-1):      571.9497     Intensity (km/mol):       30.5170
 Index  Atom      ---- Displacements (x/y/z) ----
     1    Pb      -0.000787  -0.001970   0.002869
     2     H      -0.012538  -0.115815   0.560612
     3     H       0.102568  -0.402489  -0.407194
     4     O      -0.009407   0.064755  -0.024163
     5     H       0.042945   0.406805   0.035350
     6     O       0.025319  -0.018819  -0.040903
     7     H      -0.223184  -0.210953   0.251744
 
 Mode:    16      Frequency (cm-1):     1586.0427     Intensity (km/mol):       93.5057
 Index  Atom      ---- Displacements (x/y/z) ----
     1    Pb      -0.000054   0.000069   0.000032
     2     H       0.163275  -0.164621   0.503124
     3     H       0.043895   0.450051   0.301244
     4     O      -0.012235  -0.018033  -0.052020
     5     H       0.079103   0.403321   0.149551
     6     O      -0.026487  -0.036408   0.006953
     7     H       0.339466   0.161113  -0.245245
 
 Mode:    17      Frequency (cm-1):     1591.5860     Intensity (km/mol):       35.6619
 Index  Atom      ---- Displacements (x/y/z) ----
     1    Pb      -0.000042  -0.000062   0.000101
     2     H       0.130893  -0.132289   0.403145
     3     H       0.042940   0.366426   0.243999
     4     O      -0.010254  -0.014700  -0.041294
     5     H      -0.105367  -0.500630  -0.192255
     6     O       0.032693   0.044714  -0.007754
     7     H      -0.415890  -0.197022   0.302593
 
 Mode:    18      Frequency (cm-1):     3454.6823     Intensity (km/mol):      481.2827
 Index  Atom      ---- Displacements (x/y/z) ----
     1    Pb      -0.000034  -0.000079  -0.000022
     2     H       0.002601   0.329304   0.086817
     3     H       0.095434  -0.185154   0.229371
     4     O      -0.006215  -0.008962  -0.019401
     5     H       0.426121   0.022208  -0.389472
     6     O      -0.024101  -0.035538   0.000623
     7     H      -0.036097   0.556242   0.375773
 
 Mode:    19      Frequency (cm-1):     3464.1136     Intensity (km/mol):      234.7205
 Index  Atom      ---- Displacements (x/y/z) ----
     1    Pb      -0.000014  -0.000007   0.000070
     2     H      -0.005059  -0.638101  -0.168164
     3     H      -0.181362   0.352985  -0.438930
     4     O       0.011751   0.017872   0.037514
     5     H       0.212873   0.010803  -0.195912
     6     O      -0.012027  -0.019163  -0.000443
     7     H      -0.019276   0.296241   0.200130
 
 Mode:    20      Frequency (cm-1):     3534.0767     Intensity (km/mol):      362.7191
 Index  Atom      ---- Displacements (x/y/z) ----
     1    Pb      -0.000011   0.000024   0.000022
     2     H       0.004840   0.159597   0.049559
     3     H      -0.054425   0.092484  -0.129465
     4     O       0.003139  -0.016007   0.004961
     5     H      -0.556975  -0.061539   0.484069
     6     O       0.035575  -0.029494  -0.051887
     7     H      -0.005604   0.526702   0.335972
 
 Mode:    21      Frequency (cm-1):     3538.7358     Intensity (km/mol):      292.7371
 Index  Atom      ---- Displacements (x/y/z) ----
     1    Pb      -0.000000  -0.000027   0.000013
     2     H      -0.020978  -0.613915  -0.193263
     3     H       0.230310  -0.403136   0.555442
     4     O      -0.013271   0.064424  -0.022921
     5     H      -0.136915  -0.014553   0.120598
     6     O       0.008771  -0.007054  -0.012774
     7     H      -0.000939   0.126629   0.081000

PES point character: Geometry corresponds to a local minimum on the PES.




 ============================
 Statistical Thermal Analysis  ***  ideal gas assumed  ***
 ============================
  
 Pressure:                  1.000000 atm.
 Temperature:             298.150000 K



 Moments of Inertia [amu*bohr^2] and principal axis
 ==================================================

         356.0862        378.3189        728.4360
 ------------------------------------------------
           0.2749         -0.3148          0.9085
           0.8207         -0.4154         -0.3923
           0.5009          0.8534          0.1441


 The rotational contribution to the molecular entropy includes
 a term, dependent on the symmetry number sigma. The results 
 reported below were computed using sigma = 1, determined from
 the point group symmetry of the input geometry (NOSYM). 
 If this is not the correct symmetry, try symmetrizing the molecule before
 running the calculation (note: linear molecules should be aligned along one
 of the Cartesian axes).
 Contributions from frequencies below 20 1/cm are not included in vibrational sums.
 Their contributions, if any, are reported separately.


     Temp                                                        Transl      Rotat     Vibrat     Total
     ----                                                        ------      -----     ------     -----

     298.15   Entropy (cal/mol-K):                               42.377     26.087     17.539     86.003
              Nuclear Internal Energy (kcal/mol):                 0.889      0.889     31.017     32.794
              Constant Volume Heat Capacity (cal/mol-K):          2.981      2.981     14.731     20.693
          (c) Constant Volume Heat Capacity (cal/mol-K):          2.981      2.981     12.942     18.904

       Summary of energy terms
                                                   hartree              eV         kcal/mol           kJ/mol
                                      --------------------     -----------       ----------      -----------
      Energy from Engine:               -0.546982240197053        -14.8841          -343.24         -1436.10
      Nuclear Internal Energy:           0.052261310144248          1.4221            32.79           137.21
  (c) Nuclear Internal Energy:           0.051362093290866          1.3976            32.23           134.85
      Internal Energy U:                -0.494720930052805        -13.4620          -310.44         -1298.89
      pV/n = RT:                         0.000944186013486          0.0257             0.59             2.48
      Enthalpy H:                       -0.493776744039319        -13.4363          -309.85         -1296.41
      -T*S:                             -0.040862832602400         -1.1119           -25.64          -107.29
  (c) -T*S:                             -0.039978864218818         -1.0879           -25.09          -104.96
      Gibbs free energy:                -0.534639576641719        -14.5483          -335.49         -1403.70
 
 
 
  (c) The properties marked with this symbol have been corrected using 'low vibrational frequency free rotor
      interpolation corrections'. For those terms all positive frequencies are used (also ones below 20 1/cm),
      but the contribution to the partition function of small vibrational frequencies is modified as described
      in the following paper:
      S. Grimme, 'Supramolecular Binding Thermodynamics by Dispersion-Corrected Density Functional Theory'
      (Chem. Eur. J. 2012, 18, 9955-9964)
      Configuration: Dampener Frequency          :   100.000 1/cm
                     Dampener Alpha              :     4.000
                     Averaging Moment of Inertia : 1.000E-44 kg m2

--------------
Atomic charges
--------------
  Index   Atom    Charge
      1     Pb    1.6255
      2      H    0.4364
      3      H    0.4313
      4      O   -0.6808
      5      H    0.4318
      6      O   -0.6805
      7      H    0.4364


Dipole moment vector    (Debye):    -2.75205979   -3.52569941    7.65343784
              magnitude (Debye):     8.86450790


Final PES point is a local minimum. Geometry optimization successful!


AMS application finished. Exiting.
NORMAL TERMINATION
     Total cpu time:     115.15
  Total system time:       5.85
 Total elapsed time:     125.68
