

 Parallel Execution: Process Information
 ==============================================================================
 Rank   Node Name                              NodeID   MyNodeRank  NodeMaster
    0   lxir124                                   0          0          0
    1   lxir124                                   0          1         -1
    2   lxir124                                   0          2         -1
    3   lxir124                                   0          3         -1
    4   lxir124                                   0          4         -1
    5   lxir124                                   0          5         -1
    6   lxir124                                   0          6         -1
    7   lxir124                                   0          7         -1
    8   lxir124                                   0          8         -1
    9   lxir124                                   0          9         -1
   10   lxir124                                   0         10         -1
   11   lxir124                                   0         11         -1
   12   lxir124                                   0         12         -1
   13   lxir124                                   0         13         -1
   14   lxir124                                   0         14         -1
   15   lxir124                                   0         15         -1
   16   lxir124                                   0         16         -1
   17   lxir124                                   0         17         -1
   18   lxir124                                   0         18         -1
   19   lxir124                                   0         19         -1
 ==============================================================================


May use up to 122942MB of RAM as shared memory on node 0

 *******************************************************************************
 *                                                                             *
 *  --------------------------------                                           *
 *   Amsterdam Modeling Suite (AMS)              2024.101                      *
 *  --------------------------------                                           *
 *                                               r121099 2024-04-19            *
 *                                                                             *
 *                                                                             *
 *                              =================                              *
 *                              |               |                              *
 *                              |     A M S     |                              *
 *                              |               |                              *
 *                              =================                              *
 *                                                                             *
 *                                                                             *
 *   Online information and documentation:  https://www.scm.com/support/       *
 *   E-mail:  support@scm.com   info@scm.com                                   *
 *                                                                             *
 *   Scientific publications using AMS results must be properly referenced     *
 *   See the User Manuals (or the web site) for recommended citations          *
 *   The terms and conditions of the End User License Agreement apply to       *
 *   the use of AMS, https://www.scm.com/license-terms/                        *
 *                                                                             *
 **********************  x86_64_linux_intel / intelmpi  ************************
 
 Licensed to: Dr. Valeria Pershina / GSI Helmholtzzentrum f?r Schwerionenforschung GmbH / Darmstadt / Germany 2024-05-07 16:20:14
 SCM User ID: u15059
  
 AMS 2024.101  RunTime: May25-2024 18:38:01  ShM Nodes: 1  Procs: 20

 AMS jobname: ams
 AMS jobid  : 908126910

 Start   directory: /data.local1/milias/work/open-collection/theoretical_chemistry/software/ams/runs/adsoptions/Se_trigonal_slab/tmp.milias.27069.0.noindex/
 Results directory: /data.local1/milias/work/open-collection/theoretical_chemistry/software/ams/runs/adsoptions/Se_trigonal_slab/At_on_Se81_from3x3x3.geopt_phonons_uff.results/
 Scratch directory: /data.local1/milias/scratch/amstmp_ams_kid0.908126910/


 Communication costs MPI_COMM_WORLD:      2.089 usec per message,   0.0094 usec per 8-byte item
 Communication costs for intra-node:      2.013 usec per message,   0.0092 usec per 8-byte item

 RNG seed: 1357789492 -273977234 -401794388 2123022936 186155452 -1793572499 -2052050239 -1234152329

       ***************************
       *  GEOMETRY OPTIMIZATION  *
       ***************************

FIRE optimizer config
       nMin:  5 steps
    dtStart:  0.2500 fs
      dtMax:  1.0000 fs
       fInc:  1.1000
       fDec:  0.5000
 alphaStart:  0.1000
     fAlpha:  0.9900
 Opt. latt.:  F
Convergence criteria:
       Energy:  0.000010 Ha per atom
    Gradients:  0.001000 Ha/Angstrom
         Step:  0.010000 Angstrom
Stress energy:  0.000500 Ha per atom
 
--------
Geometry
--------
Formula: AtSe81
Atoms
  Index Symbol   x (angstrom)   y (angstrom)   z (angstrom)
      1     Se     2.83067286     4.56251907     5.70287436       ForceField.Type=Se3+2 ForceField.Charge=0.0
      2     Se     1.24517249     4.36772336     6.95884345       ForceField.Type=Se3+2 ForceField.Charge=0.0
      3     Se     3.26051700     8.11104737     3.60929360       ForceField.Type=Se3+2 ForceField.Charge=0.0
      4     Se    -2.40100238    -4.05487836    -1.89324664       ForceField.Type=Se3+2 ForceField.Charge=0.0
      5     Se    -3.92508364    -2.99772165    -1.06592333       ForceField.Type=Se3+2 ForceField.Charge=0.0
      6     Se    -1.47832744    -0.35066557    -3.40720969       ForceField.Type=Se3+2 ForceField.Charge=0.0
      7     Se    -1.35195039    -4.51952887     2.02862919       ForceField.Type=Se3+2 ForceField.Charge=0.0
      8     Se    -3.09764652    -3.88912615     2.85371281       ForceField.Type=Se3+2 ForceField.Charge=0.0
      9     Se    -1.14520886    -0.76556896     0.32405913       ForceField.Type=Se3+2 ForceField.Charge=0.0
     10     Se    -0.04598589    -4.89354152     5.91895431       ForceField.Type=Se3+2 ForceField.Charge=0.0
     11     Se    -1.44371332    -3.77961680     6.88280165       ForceField.Type=Se3+2 ForceField.Charge=0.0
     12     Se    -0.70590956    -1.04829321     4.03128063       ForceField.Type=Se3+2 ForceField.Charge=0.0
     13     Se    -5.16541693     1.08038091    -3.42996020       ForceField.Type=Se3+2 ForceField.Charge=0.0
     14     Se    -4.84420104     0.81002195    -1.44318240       ForceField.Type=Se3+2 ForceField.Charge=0.0
     15     Se    -3.11389964     4.62372336    -3.86171809       ForceField.Type=Se3+2 ForceField.Charge=0.0
     16     Se    -4.30251114     0.01200777     2.36690604       ForceField.Type=Se3+2 ForceField.Charge=0.0
     17     Se    -6.05998179    -0.99005081     2.19536946       ForceField.Type=Se3+2 ForceField.Charge=0.0
     18     Se    -3.46069485     4.11710808    -0.11273740       ForceField.Type=Se3+2 ForceField.Charge=0.0
     19     Se    -4.01725677    -0.86525504     6.17891667       ForceField.Type=Se3+2 ForceField.Charge=0.0
     20     Se    -3.77806219     0.56466813     7.60101902       ForceField.Type=Se3+2 ForceField.Charge=0.0
     21     Se    -3.57409938     3.51108214     3.59725085       ForceField.Type=Se3+2 ForceField.Charge=0.0
     22     Se    -6.82556816     4.52910834    -2.41809757       ForceField.Type=Se3+2 ForceField.Charge=0.0
     23     Se    -6.26639264     6.45150419    -2.07795791       ForceField.Type=Se3+2 ForceField.Charge=0.0
     24     Se    -2.92943717     8.62926954    -2.99120755       ForceField.Type=Se3+2 ForceField.Charge=0.0
     25     Se    -6.94502241     3.06602940     1.36478125       ForceField.Type=Se3+2 ForceField.Charge=0.0
     26     Se    -6.83595685     5.01159683     1.93879693       ForceField.Type=Se3+2 ForceField.Charge=0.0
     27     Se    -4.19957090     8.06633245     0.93375896       ForceField.Type=Se3+2 ForceField.Charge=0.0
     28     Se    -6.94201447     1.80912189     5.19890202       ForceField.Type=Se3+2 ForceField.Charge=0.0
     29     Se    -6.84281114     3.68294852     5.97689275       ForceField.Type=Se3+2 ForceField.Charge=0.0
     30     Se    -4.76692345     7.35571934     4.80964858       ForceField.Type=Se3+2 ForceField.Charge=0.0
     31     Se     1.49039187    -4.77742672    -2.58857321       ForceField.Type=Se3+2 ForceField.Charge=0.0
     32     Se     1.65184422    -4.09452389    -0.68301375       ForceField.Type=Se3+2 ForceField.Charge=0.0
     33     Se     4.02708347    -1.65426534    -3.08136908       ForceField.Type=Se3+2 ForceField.Charge=0.0
     34     Se     2.59988537    -5.80100198     2.97062975       ForceField.Type=Se3+2 ForceField.Charge=0.0
     35     Se     2.62429573    -3.77384535     3.08683886       ForceField.Type=Se3+2 ForceField.Charge=0.0
     36     Se     4.58445455    -1.28719016     0.62354059       ForceField.Type=Se3+2 ForceField.Charge=0.0
     37     Se     3.83616118    -3.41433690     6.84834468       ForceField.Type=Se3+2 ForceField.Charge=0.0
     38     Se     2.60543613    -2.69582442     8.29580067       ForceField.Type=Se3+2 ForceField.Charge=0.0
     39     Se     5.10134206    -0.68884008     4.32534832       ForceField.Type=Se3+2 ForceField.Charge=0.0
     40     Se     0.12899567    -0.90200815    -2.29389465       ForceField.Type=Se3+2 ForceField.Charge=0.0
     41     Se    -0.26533288     0.56258398    -0.94057289       ForceField.Type=Se3+2 ForceField.Charge=0.0
     42     Se     1.92672082     2.97752752    -3.01062320       ForceField.Type=Se3+2 ForceField.Charge=0.0
     43     Se     0.56531461    -0.93463155     1.41279602       ForceField.Type=Se3+2 ForceField.Charge=0.0
     44     Se    -0.10210306     0.42809317     2.76848439       ForceField.Type=Se3+2 ForceField.Charge=0.0
     45     Se     1.99390433     3.04189532     0.76008652       ForceField.Type=Se3+2 ForceField.Charge=0.0
     46     Se     1.00962151    -0.89445285     5.11138499       ForceField.Type=Se3+2 ForceField.Charge=0.0
     47     Se     0.07046902     0.23044439     6.51864107       ForceField.Type=Se3+2 ForceField.Charge=0.0
     48     Se     2.05686860     3.14554594     4.46822630       ForceField.Type=Se3+2 ForceField.Charge=0.0
     49     Se    -1.94711901     3.60412782    -2.54818474       ForceField.Type=Se3+2 ForceField.Charge=0.0
     50     Se    -2.06800027     5.12439875    -1.20182375       ForceField.Type=Se3+2 ForceField.Charge=0.0
     51     Se     0.83640233     7.24464561    -3.20747835       ForceField.Type=Se3+2 ForceField.Charge=0.0
     52     Se    -2.02736849     3.38789265     1.13507085       ForceField.Type=Se3+2 ForceField.Charge=0.0
     53     Se    -2.43612450     4.81597265     2.52715768       ForceField.Type=Se3+2 ForceField.Charge=0.0
     54     Se    -0.04116078     7.81403470     0.95625392       ForceField.Type=Se3+2 ForceField.Charge=0.0
     55     Se    -2.00927628     3.06384532     4.81607184       ForceField.Type=Se3+2 ForceField.Charge=0.0
     56     Se    -2.74353106     4.28317728     6.26549415       ForceField.Type=Se3+2 ForceField.Charge=0.0
     57     Se    -0.57831961     7.50587535     5.02564574       ForceField.Type=Se3+2 ForceField.Charge=0.0
     58     Se     7.16931311    -3.77545478    -1.41509170       ForceField.Type=Se3+2 ForceField.Charge=0.0
     59     Se     5.53812814    -4.87972454    -0.91937059       ForceField.Type=Se3+2 ForceField.Charge=0.0
     60     Se     8.33575532    -0.87460797    -4.41776282       ForceField.Type=Se3+2 ForceField.Charge=0.0
     61     Se     7.80953370    -2.96526737     2.44158413       ForceField.Type=Se3+2 ForceField.Charge=0.0
     62     Se     6.50294624    -4.40562314     3.02686845       ForceField.Type=Se3+2 ForceField.Charge=0.0
     63     Se     8.88529180    -0.15014763    -0.39058414       ForceField.Type=Se3+2 ForceField.Charge=0.0
     64     Se     8.04332914    -2.52640131     6.33704271       ForceField.Type=Se3+2 ForceField.Charge=0.0
     65     Se     7.40956250    -1.42230238     7.91918601       ForceField.Type=Se3+2 ForceField.Charge=0.0
     66     Se     9.17242717     0.67498112     3.66366183       ForceField.Type=Se3+2 ForceField.Charge=0.0
     67     Se     5.19815834    -0.34299277    -2.06217806       ForceField.Type=Se3+2 ForceField.Charge=0.0
     68     Se     3.71522978    -0.01949506    -0.71122389       ForceField.Type=Se3+2 ForceField.Charge=0.0
     69     Se     6.01352144     2.74960007    -4.38100992       ForceField.Type=Se3+2 ForceField.Charge=0.0
     70     Se     5.45674574     0.27072876     1.60100723       ForceField.Type=Se3+2 ForceField.Charge=0.0
     71     Se     3.95560336     0.30727308     2.97186737       ForceField.Type=Se3+2 ForceField.Charge=0.0
     72     Se     6.74822134     3.40606047    -0.25233614       ForceField.Type=Se3+2 ForceField.Charge=0.0
     73     Se     5.59200002     1.05247362     5.25583356       ForceField.Type=Se3+2 ForceField.Charge=0.0
     74     Se     4.20685950     0.71459713     6.70416138       ForceField.Type=Se3+2 ForceField.Charge=0.0
     75     Se     6.48860754     4.56312588     3.69021219       ForceField.Type=Se3+2 ForceField.Charge=0.0
     76     Se     3.21191677     3.90273158    -1.73697393       ForceField.Type=Se3+2 ForceField.Charge=0.0
     77     Se     1.66783620     4.53920458    -0.57681427       ForceField.Type=Se3+2 ForceField.Charge=0.0
     78     Se     4.68834269     6.70425180    -4.25096870       ForceField.Type=Se3+2 ForceField.Charge=0.0
     79     Se     3.03060766     4.29491611     1.98109859       ForceField.Type=Se3+2 ForceField.Charge=0.0
     80     Se     1.39783754     4.56349388     3.16646474       ForceField.Type=Se3+2 ForceField.Charge=0.0
     81     Se     4.94335599     7.19268330    -0.02920765       ForceField.Type=Se3+2 ForceField.Charge=0.0
     82     At    -0.08633400     3.98167811     9.32983903       ForceField.Type=At ForceField.Charge=0.0
 
Total System Charge             0.00000
Bonding info available!
 
 
------------------------
MM Engine configuration
------------------------
Force field type             UFF
 

Relaxing 246 nuclear degrees of freedom with FIRE.
 Rigid motions settings for: FIRE
 Atomic rotations (x,y,z):     T T T
 Atomic translations (x,y,z):  T T T
 Tolerance:                   1.000000000000000E-006
 
------------------------
UFF Engine configuration
------------------------
UFF Parameters file          general_db
UFF Elements file            elements_db
UFF MMAtomTypes file         mmatomtypes_db
 
  atom type UFF index
          1        55
          2       110
-----------------------
Assumed Input Structure
-----------------------
Atoms [Angstrom]
      Se       2.8306728624    4.5625190709    5.7028743624       Se3+2   0.000000000000
      Se       1.2451724939    4.3677233559    6.9588434469       Se3+2   0.000000000000
      Se       3.2605170002    8.1110473708    3.6092936032       Se3+2   0.000000000000
      Se      -2.4010023775   -4.0548783591   -1.8932466401       Se3+2   0.000000000000
      Se      -3.9250836360   -2.9977216503   -1.0659233299       Se3+2   0.000000000000
      Se      -1.4783274425   -0.3506655686   -3.4072096906       Se3+2   0.000000000000
      Se      -1.3519503911   -4.5195288660    2.0286291949       Se3+2   0.000000000000
      Se      -3.0976465174   -3.8891261465    2.8537128085       Se3+2   0.000000000000
      Se      -1.1452088614   -0.7655689596    0.3240591307       Se3+2   0.000000000000
      Se      -0.0459858865   -4.8935415155    5.9189543134       Se3+2   0.000000000000
      Se      -1.4437133165   -3.7796167981    6.8828016495       Se3+2   0.000000000000
      Se      -0.7059095587   -1.0482932057    4.0312806282       Se3+2   0.000000000000
      Se      -5.1654169338    1.0803809089   -3.4299602040       Se3+2   0.000000000000
      Se      -4.8442010407    0.8100219534   -1.4431823960       Se3+2   0.000000000000
      Se      -3.1138996372    4.6237233555   -3.8617180887       Se3+2   0.000000000000
      Se      -4.3025111441    0.0120077664    2.3669060441       Se3+2   0.000000000000
      Se      -6.0599817943   -0.9900508089    2.1953694621       Se3+2   0.000000000000
      Se      -3.4606948543    4.1171080799   -0.1127373975       Se3+2   0.000000000000
      Se      -4.0172567703   -0.8652550445    6.1789166699       Se3+2   0.000000000000
      Se      -3.7780621880    0.5646681289    7.6010190248       Se3+2   0.000000000000
      Se      -3.5740993848    3.5110821434    3.5972508529       Se3+2   0.000000000000
      Se      -6.8255681575    4.5291083426   -2.4180975677       Se3+2   0.000000000000
      Se      -6.2663926391    6.4515041876   -2.0779579150       Se3+2   0.000000000000
      Se      -2.9294371746    8.6292695350   -2.9912075534       Se3+2   0.000000000000
      Se      -6.9450224098    3.0660294016    1.3647812462       Se3+2   0.000000000000
      Se      -6.8359568494    5.0115968290    1.9387969301       Se3+2   0.000000000000
      Se      -4.1995708979    8.0663324475    0.9337589638       Se3+2   0.000000000000
      Se      -6.9420144741    1.8091218893    5.1989020185       Se3+2   0.000000000000
      Se      -6.8428111381    3.6829485168    5.9768927483       Se3+2   0.000000000000
      Se      -4.7669234485    7.3557193438    4.8096485813       Se3+2   0.000000000000
      Se       1.4903918716   -4.7774267235   -2.5885732102       Se3+2   0.000000000000
      Se       1.6518442235   -4.0945238912   -0.6830137528       Se3+2   0.000000000000
      Se       4.0270834682   -1.6542653426   -3.0813690812       Se3+2   0.000000000000
      Se       2.5998853681   -5.8010019795    2.9706297539       Se3+2   0.000000000000
      Se       2.6242957252   -3.7738453496    3.0868388638       Se3+2   0.000000000000
      Se       4.5844545480   -1.2871901595    0.6235405937       Se3+2   0.000000000000
      Se       3.8361611778   -3.4143368965    6.8483446819       Se3+2   0.000000000000
      Se       2.6054361340   -2.6958244181    8.2958006746       Se3+2   0.000000000000
      Se       5.1013420631   -0.6888400785    4.3253483199       Se3+2   0.000000000000
      Se       0.1289956722   -0.9020081534   -2.2938946486       Se3+2   0.000000000000
      Se      -0.2653328797    0.5625839768   -0.9405728901       Se3+2   0.000000000000
      Se       1.9267208233    2.9775275204   -3.0106231982       Se3+2   0.000000000000
      Se       0.5653146075   -0.9346315549    1.4127960240       Se3+2   0.000000000000
      Se      -0.1021030623    0.4280931656    2.7684843922       Se3+2   0.000000000000
      Se       1.9939043331    3.0418953225    0.7600865200       Se3+2   0.000000000000
      Se       1.0096215113   -0.8944528543    5.1113849926       Se3+2   0.000000000000
      Se       0.0704690244    0.2304443940    6.5186410678       Se3+2   0.000000000000
      Se       2.0568686004    3.1455459366    4.4682262979       Se3+2   0.000000000000
      Se      -1.9471190087    3.6041278173   -2.5481847408       Se3+2   0.000000000000
      Se      -2.0680002688    5.1243987499   -1.2018237494       Se3+2   0.000000000000
      Se       0.8364023275    7.2446456079   -3.2074783517       Se3+2   0.000000000000
      Se      -2.0273684878    3.3878926536    1.1350708535       Se3+2   0.000000000000
      Se      -2.4361244968    4.8159726516    2.5271576795       Se3+2   0.000000000000
      Se      -0.0411607799    7.8140347047    0.9562539194       Se3+2   0.000000000000
      Se      -2.0092762840    3.0638453168    4.8160718351       Se3+2   0.000000000000
      Se      -2.7435310603    4.2831772805    6.2654941546       Se3+2   0.000000000000
      Se      -0.5783196084    7.5058753507    5.0256457376       Se3+2   0.000000000000
      Se       7.1693131078   -3.7754547816   -1.4150916978       Se3+2   0.000000000000
      Se       5.5381281388   -4.8797245376   -0.9193705887       Se3+2   0.000000000000
      Se       8.3357553185   -0.8746079685   -4.4177628237       Se3+2   0.000000000000
      Se       7.8095337047   -2.9652673748    2.4415841305       Se3+2   0.000000000000
      Se       6.5029462447   -4.4056231380    3.0268684549       Se3+2   0.000000000000
      Se       8.8852917964   -0.1501476346   -0.3905841433       Se3+2   0.000000000000
      Se       8.0433291441   -2.5264013050    6.3370427076       Se3+2   0.000000000000
      Se       7.4095624997   -1.4223023806    7.9191860095       Se3+2   0.000000000000
      Se       9.1724271709    0.6749811194    3.6636618278       Se3+2   0.000000000000
      Se       5.1981583384   -0.3429927670   -2.0621780553       Se3+2   0.000000000000
      Se       3.7152297808   -0.0194950594   -0.7112238921       Se3+2   0.000000000000
      Se       6.0135214434    2.7496000661   -4.3810099207       Se3+2   0.000000000000
      Se       5.4567457354    0.2707287564    1.6010072275       Se3+2   0.000000000000
      Se       3.9556033595    0.3072730819    2.9718673732       Se3+2   0.000000000000
      Se       6.7482213397    3.4060604702   -0.2523361427       Se3+2   0.000000000000
      Se       5.5920000162    1.0524736175    5.2558335577       Se3+2   0.000000000000
      Se       4.2068594995    0.7145971309    6.7041613797       Se3+2   0.000000000000
      Se       6.4886075363    4.5631258828    3.6902121896       Se3+2   0.000000000000
      Se       3.2119167735    3.9027315847   -1.7369739305       Se3+2   0.000000000000
      Se       1.6678362010    4.5392045830   -0.5768142734       Se3+2   0.000000000000
      Se       4.6883426879    6.7042518045   -4.2509687040       Se3+2   0.000000000000
      Se       3.0306076568    4.2949161110    1.9810985900       Se3+2   0.000000000000
      Se       1.3978375395    4.5634938771    3.1664647405       Se3+2   0.000000000000
      Se       4.9433559916    7.1926832961   -0.0292076523       Se3+2   0.000000000000
      At      -0.0863340000    3.9816781082    9.3298390251          At   0.000000000000
End

Bonds
    1      2    3.000000000000
    1     48    3.000000000000
    4      5    3.000000000000
    6     40    3.000000000000
    7      8    3.000000000000
    9     41    3.000000000000
    9     43    3.000000000000
   10     11    3.000000000000
   12     44    3.000000000000
   12     46    3.000000000000
   13     14    3.000000000000
   15     49    3.000000000000
   16     17    3.000000000000
   18     50    3.000000000000
   18     52    3.000000000000
   19     20    3.000000000000
   21     53    3.000000000000
   21     55    3.000000000000
   22     23    3.000000000000
   25     26    3.000000000000
   28     29    3.000000000000
   31     32    3.000000000000
   33     67    3.000000000000
   34     35    3.000000000000
   36     68    3.000000000000
   36     70    3.000000000000
   37     38    3.000000000000
   39     71    3.000000000000
   39     73    3.000000000000
   40     41    3.000000000000
   42     76    3.000000000000
   43     44    3.000000000000
   45     77    3.000000000000
   45     79    3.000000000000
   46     47    3.000000000000
   48     80    3.000000000000
   49     50    3.000000000000
   52     53    3.000000000000
   55     56    3.000000000000
   58     59    3.000000000000
   61     62    3.000000000000
   64     65    3.000000000000
   67     68    3.000000000000
   70     71    3.000000000000
   73     74    3.000000000000
   76     77    3.000000000000
   79     80    3.000000000000
End


Geometry at FIRE step 1:
 
--------
Geometry
--------
Formula: AtSe81
Atoms
  Index Symbol   x (angstrom)   y (angstrom)   z (angstrom)
      1     Se     2.83073316     4.56256531     5.70280414       ForceField.Type=Se3+2 ForceField.Charge=0.0
      2     Se     1.24784273     4.36855181     6.95417077       ForceField.Type=Se3+2 ForceField.Charge=0.0
      3     Se     3.26057273     8.11105993     3.60916503       ForceField.Type=Se3+2 ForceField.Charge=0.0
      4     Se    -2.40107255    -4.05491612    -1.89312997       ForceField.Type=Se3+2 ForceField.Charge=0.0
      5     Se    -3.92514404    -2.99774455    -1.06580733       ForceField.Type=Se3+2 ForceField.Charge=0.0
      6     Se    -1.47839433    -0.35072948    -3.40716176       ForceField.Type=Se3+2 ForceField.Charge=0.0
      7     Se    -1.35197328    -4.51951312     2.02873899       ForceField.Type=Se3+2 ForceField.Charge=0.0
      8     Se    -3.09765776    -3.88909138     2.85383335       ForceField.Type=Se3+2 ForceField.Charge=0.0
      9     Se    -1.14523583    -0.76558096     0.32411032       ForceField.Type=Se3+2 ForceField.Charge=0.0
     10     Se    -0.04596594    -4.89347447     5.91905085       ForceField.Type=Se3+2 ForceField.Charge=0.0
     11     Se    -1.44367538    -3.77953053     6.88290272       ForceField.Type=Se3+2 ForceField.Charge=0.0
     12     Se    -0.70589516    -1.04825224     4.03133211       ForceField.Type=Se3+2 ForceField.Charge=0.0
     13     Se    -5.16547870     1.08033118    -3.42988848       ForceField.Type=Se3+2 ForceField.Charge=0.0
     14     Se    -4.84423988     0.81000322    -1.44311059       ForceField.Type=Se3+2 ForceField.Charge=0.0
     15     Se    -3.11394962     4.62366376    -3.86172022       ForceField.Type=Se3+2 ForceField.Charge=0.0
     16     Se    -4.30250776     0.01203892     2.36698241       ForceField.Type=Se3+2 ForceField.Charge=0.0
     17     Se    -6.05998632    -0.99001204     2.19548078       ForceField.Type=Se3+2 ForceField.Charge=0.0
     18     Se    -3.46070123     4.11710279    -0.11272912       ForceField.Type=Se3+2 ForceField.Charge=0.0
     19     Se    -4.01721800    -0.86516479     6.17900129       ForceField.Type=Se3+2 ForceField.Charge=0.0
     20     Se    -3.77799651     0.56477838     7.60108096       ForceField.Type=Se3+2 ForceField.Charge=0.0
     21     Se    -3.57406557     3.51112983     3.59726898       ForceField.Type=Se3+2 ForceField.Charge=0.0
     22     Se    -6.82560526     4.52908419    -2.41805256       ForceField.Type=Se3+2 ForceField.Charge=0.0
     23     Se    -6.26641287     6.45148147    -2.07794776       ForceField.Type=Se3+2 ForceField.Charge=0.0
     24     Se    -2.92945858     8.62922093    -2.99126944       ForceField.Type=Se3+2 ForceField.Charge=0.0
     25     Se    -6.94501951     3.06605986     1.36484612       ForceField.Type=Se3+2 ForceField.Charge=0.0
     26     Se    -6.83593682     5.01163595     1.93882990       ForceField.Type=Se3+2 ForceField.Charge=0.0
     27     Se    -4.19954345     8.06634471     0.93371606       ForceField.Type=Se3+2 ForceField.Charge=0.0
     28     Se    -6.94196833     1.80920990     5.19898280       ForceField.Type=Se3+2 ForceField.Charge=0.0
     29     Se    -6.84274537     3.68304638     5.97694375       ForceField.Type=Se3+2 ForceField.Charge=0.0
     30     Se    -4.76686190     7.35578856     4.80962609       ForceField.Type=Se3+2 ForceField.Charge=0.0
     31     Se     1.49031533    -4.77749331    -2.58849453       ForceField.Type=Se3+2 ForceField.Charge=0.0
     32     Se     1.65178946    -4.09456355    -0.68294655       ForceField.Type=Se3+2 ForceField.Charge=0.0
     33     Se     4.02701286    -1.65434915    -3.08136620       ForceField.Type=Se3+2 ForceField.Charge=0.0
     34     Se     2.59986673    -5.80099174     2.97070802       ForceField.Type=Se3+2 ForceField.Charge=0.0
     35     Se     2.62428888    -3.77383372     3.08689027       ForceField.Type=Se3+2 ForceField.Charge=0.0
     36     Se     4.58442821    -1.28722499     0.62353261       ForceField.Type=Se3+2 ForceField.Charge=0.0
     37     Se     3.83619839    -3.41428176     6.84837713       ForceField.Type=Se3+2 ForceField.Charge=0.0
     38     Se     2.60549387    -2.69573800     8.29583549       ForceField.Type=Se3+2 ForceField.Charge=0.0
     39     Se     5.10136148    -0.68882310     4.32532595       ForceField.Type=Se3+2 ForceField.Charge=0.0
     40     Se     0.12893834    -0.90206337    -2.29385617       ForceField.Type=Se3+2 ForceField.Charge=0.0
     41     Se    -0.26536886     0.56254984    -0.94055105       ForceField.Type=Se3+2 ForceField.Charge=0.0
     42     Se     1.92667496     2.97745199    -3.01066162       ForceField.Type=Se3+2 ForceField.Charge=0.0
     43     Se     0.56529898    -0.93463470     1.41283055       ForceField.Type=Se3+2 ForceField.Charge=0.0
     44     Se    -0.10209716     0.42811277     2.76850693       ForceField.Type=Se3+2 ForceField.Charge=0.0
     45     Se     1.99390145     3.04187279     0.76004740       ForceField.Type=Se3+2 ForceField.Charge=0.0
     46     Se     1.00964950    -0.89440407     5.11141380       ForceField.Type=Se3+2 ForceField.Charge=0.0
     47     Se     0.07051954     0.23051875     6.51866581       ForceField.Type=Se3+2 ForceField.Charge=0.0
     48     Se     2.05690671     3.14557846     4.46818696       ForceField.Type=Se3+2 ForceField.Charge=0.0
     49     Se    -1.94715741     3.60408060    -2.54818769       ForceField.Type=Se3+2 ForceField.Charge=0.0
     50     Se    -2.06801392     5.12437056    -1.20184602       ForceField.Type=Se3+2 ForceField.Charge=0.0
     51     Se     0.83637008     7.24457274    -3.20756860       ForceField.Type=Se3+2 ForceField.Charge=0.0
     52     Se    -2.02736394     3.38789711     1.13507260       ForceField.Type=Se3+2 ForceField.Charge=0.0
     53     Se    -2.43609597     4.81599895     2.52714437       ForceField.Type=Se3+2 ForceField.Charge=0.0
     54     Se    -0.04113604     7.81402381     0.95616865       ForceField.Type=Se3+2 ForceField.Charge=0.0
     55     Se    -2.00923121     3.06390336     4.81608131       ForceField.Type=Se3+2 ForceField.Charge=0.0
     56     Se    -2.74347367     4.28326226     6.26547990       ForceField.Type=Se3+2 ForceField.Charge=0.0
     57     Se    -0.57825292     7.50592630     5.02557132       ForceField.Type=Se3+2 ForceField.Charge=0.0
     58     Se     7.16925201    -3.77553323    -1.41509560       ForceField.Type=Se3+2 ForceField.Charge=0.0
     59     Se     5.53806688    -4.87978540    -0.91933544       ForceField.Type=Se3+2 ForceField.Charge=0.0
     60     Se     8.33567230    -0.87473553    -4.41782128       ForceField.Type=Se3+2 ForceField.Charge=0.0
     61     Se     7.80952300    -2.96529290     2.44155681       ForceField.Type=Se3+2 ForceField.Charge=0.0
     62     Se     6.50293379    -4.40562922     3.02688379       ForceField.Type=Se3+2 ForceField.Charge=0.0
     63     Se     8.88526016    -0.15021840    -0.39065876       ForceField.Type=Se3+2 ForceField.Charge=0.0
     64     Se     8.04336447    -2.52636989     6.33701590       ForceField.Type=Se3+2 ForceField.Charge=0.0
     65     Se     7.40961940    -1.42224462     7.91914980       ForceField.Type=Se3+2 ForceField.Charge=0.0
     66     Se     9.17244421     0.67496891     3.66357034       ForceField.Type=Se3+2 ForceField.Charge=0.0
     67     Se     5.19810510    -0.34306798    -2.06220633       ForceField.Type=Se3+2 ForceField.Charge=0.0
     68     Se     3.71519334    -0.01954519    -0.71123982       ForceField.Type=Se3+2 ForceField.Charge=0.0
     69     Se     6.01345774     2.74948523    -4.38109357       ForceField.Type=Se3+2 ForceField.Charge=0.0
     70     Se     5.45673751     0.27070399     1.60096667       ForceField.Type=Se3+2 ForceField.Charge=0.0
     71     Se     3.95561148     0.30727480     2.97184379       ForceField.Type=Se3+2 ForceField.Charge=0.0
     72     Se     6.74821078     3.40600355    -0.25243789       ForceField.Type=Se3+2 ForceField.Charge=0.0
     73     Se     5.59203745     1.05250199     5.25577992       ForceField.Type=Se3+2 ForceField.Charge=0.0
     74     Se     4.20691297     0.71465276     6.70412995       ForceField.Type=Se3+2 ForceField.Charge=0.0
     75     Se     6.48864846     4.56312642     3.69009718       ForceField.Type=Se3+2 ForceField.Charge=0.0
     76     Se     3.21188939     3.90266709    -1.73703945       ForceField.Type=Se3+2 ForceField.Charge=0.0
     77     Se     1.66782524     4.53916386    -0.57687143       ForceField.Type=Se3+2 ForceField.Charge=0.0
     78     Se     4.68830099     6.70414360    -4.25109204       ForceField.Type=Se3+2 ForceField.Charge=0.0
     79     Se     3.03062472     4.29490607     1.98102955       ForceField.Type=Se3+2 ForceField.Charge=0.0
     80     Se     1.39786924     4.56350993     3.16641049       ForceField.Type=Se3+2 ForceField.Charge=0.0
     81     Se     4.94336109     7.19263537    -0.02934411       ForceField.Type=Se3+2 ForceField.Charge=0.0
     82     At    -0.08881806     3.98103388     9.33442965       ForceField.Type=At ForceField.Charge=0.0
 
Total System Charge             0.00000
Bonding info available!
 

Geometry at FIRE step 2:
 
--------
Geometry
--------
Formula: AtSe81
Atoms
  Index Symbol   x (angstrom)   y (angstrom)   z (angstrom)
      1     Se     2.83096908     4.56270512     5.70254989       ForceField.Type=Se3+2 ForceField.Charge=0.0
      2     Se     1.25552042     4.37094742     6.94067703       ForceField.Type=Se3+2 ForceField.Charge=0.0
      3     Se     3.26073438     8.11109608     3.60879230       ForceField.Type=Se3+2 ForceField.Charge=0.0
      4     Se    -2.40127613    -4.05502562    -1.89279145       ForceField.Type=Se3+2 ForceField.Charge=0.0
      5     Se    -3.92531984    -2.99781144    -1.06547111       ForceField.Type=Se3+2 ForceField.Charge=0.0
      6     Se    -1.47858809    -0.35091474    -3.40702296       ForceField.Type=Se3+2 ForceField.Charge=0.0
      7     Se    -1.35203945    -4.51946728     2.02905742       ForceField.Type=Se3+2 ForceField.Charge=0.0
      8     Se    -3.09769025    -3.88899055     2.85418288       ForceField.Type=Se3+2 ForceField.Charge=0.0
      9     Se    -1.14531407    -0.76561580     0.32425868       ForceField.Type=Se3+2 ForceField.Charge=0.0
     10     Se    -0.04590803    -4.89327981     5.91933050       ForceField.Type=Se3+2 ForceField.Charge=0.0
     11     Se    -1.44356517    -3.77928031     6.88319596       ForceField.Type=Se3+2 ForceField.Charge=0.0
     12     Se    -0.70585354    -1.04813338     4.03148145       ForceField.Type=Se3+2 ForceField.Charge=0.0
     13     Se    -5.16565776     1.08018665    -3.42968058       ForceField.Type=Se3+2 ForceField.Charge=0.0
     14     Se    -4.84435238     0.80994895    -1.44290246       ForceField.Type=Se3+2 ForceField.Charge=0.0
     15     Se    -3.11409455     4.62349133    -3.86172628       ForceField.Type=Se3+2 ForceField.Charge=0.0
     16     Se    -4.30249770     0.01212899     2.36720369       ForceField.Type=Se3+2 ForceField.Charge=0.0
     17     Se    -6.05999930    -0.98989969     2.19580335       ForceField.Type=Se3+2 ForceField.Charge=0.0
     18     Se    -3.46071951     4.11708761    -0.11270510       ForceField.Type=Se3+2 ForceField.Charge=0.0
     19     Se    -4.01710588    -0.86490278     6.17924639       ForceField.Type=Se3+2 ForceField.Charge=0.0
     20     Se    -3.77780607     0.56509838     7.60126037       ForceField.Type=Se3+2 ForceField.Charge=0.0
     21     Se    -3.57396738     3.51126805     3.59732151       ForceField.Type=Se3+2 ForceField.Charge=0.0
     22     Se    -6.82571325     4.52901415    -2.41792172       ForceField.Type=Se3+2 ForceField.Charge=0.0
     23     Se    -6.26647155     6.45141549    -2.07791801       ForceField.Type=Se3+2 ForceField.Charge=0.0
     24     Se    -2.92952079     8.62908028    -2.99144867       ForceField.Type=Se3+2 ForceField.Charge=0.0
     25     Se    -6.94501124     3.06614804     1.36503425       ForceField.Type=Se3+2 ForceField.Charge=0.0
     26     Se    -6.83587876     5.01174933     1.93892527       ForceField.Type=Se3+2 ForceField.Charge=0.0
     27     Se    -4.19946343     8.06638028     0.93359143       ForceField.Type=Se3+2 ForceField.Charge=0.0
     28     Se    -6.94183422     1.80946511     5.19921681       ForceField.Type=Se3+2 ForceField.Charge=0.0
     29     Se    -6.84255422     3.68333011     5.97709128       ForceField.Type=Se3+2 ForceField.Charge=0.0
     30     Se    -4.76668387     7.35598904     4.80956101       ForceField.Type=Se3+2 ForceField.Charge=0.0
     31     Se     1.49009382    -4.77768635    -2.58826646       ForceField.Type=Se3+2 ForceField.Charge=0.0
     32     Se     1.65163068    -4.09467851    -0.68275173       ForceField.Type=Se3+2 ForceField.Charge=0.0
     33     Se     4.02680818    -1.65459187    -3.08135795       ForceField.Type=Se3+2 ForceField.Charge=0.0
     34     Se     2.59981285    -5.80096188     2.97093465       ForceField.Type=Se3+2 ForceField.Charge=0.0
     35     Se     2.62426925    -3.77379985     3.08703932       ForceField.Type=Se3+2 ForceField.Charge=0.0
     36     Se     4.58435179    -1.28732595     0.62350946       ForceField.Type=Se3+2 ForceField.Charge=0.0
     37     Se     3.83630628    -3.41412231     6.84847130       ForceField.Type=Se3+2 ForceField.Charge=0.0
     38     Se     2.60566129    -2.69548740     8.29593634       ForceField.Type=Se3+2 ForceField.Charge=0.0
     39     Se     5.10141763    -0.68877379     4.32526116       ForceField.Type=Se3+2 ForceField.Charge=0.0
     40     Se     0.12877219    -0.90222340    -2.29374464       ForceField.Type=Se3+2 ForceField.Charge=0.0
     41     Se    -0.26547326     0.56245090    -0.94048775       ForceField.Type=Se3+2 ForceField.Charge=0.0
     42     Se     1.92654217     2.97723292    -3.01077299       ForceField.Type=Se3+2 ForceField.Charge=0.0
     43     Se     0.56525357    -0.93464372     1.41293069       ForceField.Type=Se3+2 ForceField.Charge=0.0
     44     Se    -0.10208025     0.42816969     2.76857231       ForceField.Type=Se3+2 ForceField.Charge=0.0
     45     Se     1.99389312     3.04180722     0.75993414       ForceField.Type=Se3+2 ForceField.Charge=0.0
     46     Se     1.00973056    -0.89426250     5.11149739       ForceField.Type=Se3+2 ForceField.Charge=0.0
     47     Se     0.07066596     0.23073454     6.51873772       ForceField.Type=Se3+2 ForceField.Charge=0.0
     48     Se     2.05701881     3.14567295     4.46807174       ForceField.Type=Se3+2 ForceField.Charge=0.0
     49     Se    -1.94726866     3.60394392    -2.54819632       ForceField.Type=Se3+2 ForceField.Charge=0.0
     50     Se    -2.06805323     5.12428893    -1.20191053       ForceField.Type=Se3+2 ForceField.Charge=0.0
     51     Se     0.83627626     7.24436144    -3.20783050       ForceField.Type=Se3+2 ForceField.Charge=0.0
     52     Se    -2.02735061     3.38791005     1.13507766       ForceField.Type=Se3+2 ForceField.Charge=0.0
     53     Se    -2.43601304     4.81607516     2.52710584       ForceField.Type=Se3+2 ForceField.Charge=0.0
     54     Se    -0.04106408     7.81399191     0.95592150       ForceField.Type=Se3+2 ForceField.Charge=0.0
     55     Se    -2.00910054     3.06407163     4.81610903       ForceField.Type=Se3+2 ForceField.Charge=0.0
     56     Se    -2.74330803     4.28350892     6.26543767       ForceField.Type=Se3+2 ForceField.Charge=0.0
     57     Se    -0.57805982     7.50607376     5.02535557       ForceField.Type=Se3+2 ForceField.Charge=0.0
     58     Se     7.16907494    -3.77576082    -1.41510710       ForceField.Type=Se3+2 ForceField.Charge=0.0
     59     Se     5.53788927    -4.87996172    -0.91923332       ForceField.Type=Se3+2 ForceField.Charge=0.0
     60     Se     8.33543161    -0.87510548    -4.41799078       ForceField.Type=Se3+2 ForceField.Charge=0.0
     61     Se     7.80949216    -2.96536703     2.44147698       ForceField.Type=Se3+2 ForceField.Charge=0.0
     62     Se     6.50289770    -4.40564650     3.02692832       ForceField.Type=Se3+2 ForceField.Charge=0.0
     63     Se     8.88516850    -0.15042359    -0.39087503       ForceField.Type=Se3+2 ForceField.Charge=0.0
     64     Se     8.04346688    -2.52627878     6.33693860       ForceField.Type=Se3+2 ForceField.Charge=0.0
     65     Se     7.40978411    -1.42207708     7.91904515       ForceField.Type=Se3+2 ForceField.Charge=0.0
     66     Se     9.17249333     0.67493361     3.66330498       ForceField.Type=Se3+2 ForceField.Charge=0.0
     67     Se     5.19795068    -0.34328584    -2.06228822       ForceField.Type=Se3+2 ForceField.Charge=0.0
     68     Se     3.71508756    -0.01969051    -0.71128596       ForceField.Type=Se3+2 ForceField.Charge=0.0
     69     Se     6.01327317     2.74915227    -4.38133613       ForceField.Type=Se3+2 ForceField.Charge=0.0
     70     Se     5.45671350     0.27063224     1.60084911       ForceField.Type=Se3+2 ForceField.Charge=0.0
     71     Se     3.95563487     0.30727975     2.97177543       ForceField.Type=Se3+2 ForceField.Charge=0.0
     72     Se     6.74818044     3.40583865    -0.25273290       ForceField.Type=Se3+2 ForceField.Charge=0.0
     73     Se     5.59214571     1.05258437     5.25562445       ForceField.Type=Se3+2 ForceField.Charge=0.0
     74     Se     4.20706779     0.71481409     6.70403894       ForceField.Type=Se3+2 ForceField.Charge=0.0
     75     Se     6.48876734     4.56312799     3.68976377       ForceField.Type=Se3+2 ForceField.Charge=0.0
     76     Se     3.21181011     3.90247991    -1.73722923       ForceField.Type=Se3+2 ForceField.Charge=0.0
     77     Se     1.66779351     4.53904552    -0.57703701       ForceField.Type=Se3+2 ForceField.Charge=0.0
     78     Se     4.68818037     6.70382969    -4.25144940       ForceField.Type=Se3+2 ForceField.Charge=0.0
     79     Se     3.03067416     4.29487670     1.98082959       ForceField.Type=Se3+2 ForceField.Charge=0.0
     80     Se     1.39796117     4.56355636     3.16625229       ForceField.Type=Se3+2 ForceField.Charge=0.0
     81     Se     4.94337557     7.19249626    -0.02973985       ForceField.Type=Se3+2 ForceField.Charge=0.0
     82     At    -0.09601881     3.97916582     9.34773857       ForceField.Type=At ForceField.Charge=0.0
 
Total System Charge             0.00000
Bonding info available!
 

Geometry at FIRE step 3:
 
--------
Geometry
--------
Formula: AtSe81
Atoms
  Index Symbol   x (angstrom)   y (angstrom)   z (angstrom)
      1     Se     2.83156253     4.56294468     5.70196689       ForceField.Type=Se3+2 ForceField.Charge=0.0
      2     Se     1.26730578     4.37467555     6.91974702       ForceField.Type=Se3+2 ForceField.Charge=0.0
      3     Se     3.26098768     8.11115187     3.60820887       ForceField.Type=Se3+2 ForceField.Charge=0.0
      4     Se    -2.40159537    -4.05519706    -1.89226061       ForceField.Type=Se3+2 ForceField.Charge=0.0
      5     Se    -3.92559740    -2.99791780    -1.06494502       ForceField.Type=Se3+2 ForceField.Charge=0.0
      6     Se    -1.47889083    -0.35120471    -3.40680628       ForceField.Type=Se3+2 ForceField.Charge=0.0
      7     Se    -1.35214232    -4.51939493     2.02955635       ForceField.Type=Se3+2 ForceField.Charge=0.0
      8     Se    -3.09774078    -3.88883264     2.85473026       ForceField.Type=Se3+2 ForceField.Charge=0.0
      9     Se    -1.14543666    -0.76567050     0.32449073       ForceField.Type=Se3+2 ForceField.Charge=0.0
     10     Se    -0.04581704    -4.89297404     5.91976751       ForceField.Type=Se3+2 ForceField.Charge=0.0
     11     Se    -1.44339181    -3.77888815     6.88365576       ForceField.Type=Se3+2 ForceField.Charge=0.0
     12     Se    -0.70578877    -1.04794699     4.03171552       ForceField.Type=Se3+2 ForceField.Charge=0.0
     13     Se    -5.16593807     1.07995926    -3.42935529       ForceField.Type=Se3+2 ForceField.Charge=0.0
     14     Se    -4.84452815     0.80986419    -1.44257680       ForceField.Type=Se3+2 ForceField.Charge=0.0
     15     Se    -3.11432154     4.62322252    -3.86173534       ForceField.Type=Se3+2 ForceField.Charge=0.0
     16     Se    -4.30248113     0.01226919     2.36754968       ForceField.Type=Se3+2 ForceField.Charge=0.0
     17     Se    -6.06001916    -0.98972403     2.19630782       ForceField.Type=Se3+2 ForceField.Charge=0.0
     18     Se    -3.46074750     4.11706434    -0.11266744       ForceField.Type=Se3+2 ForceField.Charge=0.0
     19     Se    -4.01693137    -0.86449149     6.17962933       ForceField.Type=Se3+2 ForceField.Charge=0.0
     20     Se    -3.77750778     0.56560053     7.60154065       ForceField.Type=Se3+2 ForceField.Charge=0.0
     21     Se    -3.57381311     3.51148433     3.59740366       ForceField.Type=Se3+2 ForceField.Charge=0.0
     22     Se    -6.82588371     4.52890437    -2.41771569       ForceField.Type=Se3+2 ForceField.Charge=0.0
     23     Se    -6.26656355     6.45131178    -2.07787037       ForceField.Type=Se3+2 ForceField.Charge=0.0
     24     Se    -2.92961868     8.62886094    -2.99172863       ForceField.Type=Se3+2 ForceField.Charge=0.0
     25     Se    -6.94499873     3.06628568     1.36532898       ForceField.Type=Se3+2 ForceField.Charge=0.0
     26     Se    -6.83578798     5.01192668     1.93907392       ForceField.Type=Se3+2 ForceField.Charge=0.0
     27     Se    -4.19933668     8.06643602     0.93339545       ForceField.Type=Se3+2 ForceField.Charge=0.0
     28     Se    -6.94162316     1.80986484     5.19958249       ForceField.Type=Se3+2 ForceField.Charge=0.0
     29     Se    -6.84225336     3.68377428     5.97732112       ForceField.Type=Se3+2 ForceField.Charge=0.0
     30     Se    -4.76640655     7.35630222     4.80945947       ForceField.Type=Se3+2 ForceField.Charge=0.0
     31     Se     1.48974842    -4.77798853    -2.58790951       ForceField.Type=Se3+2 ForceField.Charge=0.0
     32     Se     1.65138208    -4.09485843    -0.68244672       ForceField.Type=Se3+2 ForceField.Charge=0.0
     33     Se     4.02648788    -1.65497104    -3.08134540       ForceField.Type=Se3+2 ForceField.Charge=0.0
     34     Se     2.59972900    -5.80091456     2.97128852       ForceField.Type=Se3+2 ForceField.Charge=0.0
     35     Se     2.62423924    -3.77374631     3.08727277       ForceField.Type=Se3+2 ForceField.Charge=0.0
     36     Se     4.58423192    -1.28748394     0.62347322       ForceField.Type=Se3+2 ForceField.Charge=0.0
     37     Se     3.83647521    -3.41387403     6.84861901       ForceField.Type=Se3+2 ForceField.Charge=0.0
     38     Se     2.60592346    -2.69509491     8.29609387       ForceField.Type=Se3+2 ForceField.Charge=0.0
     39     Se     5.10150508    -0.68869633     4.32515985       ForceField.Type=Se3+2 ForceField.Charge=0.0
     40     Se     0.12851235    -0.90247374    -2.29357013       ForceField.Type=Se3+2 ForceField.Charge=0.0
     41     Se    -0.26563702     0.56229603    -0.94038877       ForceField.Type=Se3+2 ForceField.Charge=0.0
     42     Se     1.92633493     2.97688973    -3.01094726       ForceField.Type=Se3+2 ForceField.Charge=0.0
     43     Se     0.56518216    -0.93465750     1.41308762       ForceField.Type=Se3+2 ForceField.Charge=0.0
     44     Se    -0.10205445     0.42825908     2.76867477       ForceField.Type=Se3+2 ForceField.Charge=0.0
     45     Se     1.99388013     3.04170383     0.75975730       ForceField.Type=Se3+2 ForceField.Charge=0.0
     46     Se     1.00985711    -0.89404035     5.11162844       ForceField.Type=Se3+2 ForceField.Charge=0.0
     47     Se     0.07089508     0.23107315     6.51885090       ForceField.Type=Se3+2 ForceField.Charge=0.0
     48     Se     2.05720064     3.14582162     4.46788665       ForceField.Type=Se3+2 ForceField.Charge=0.0
     49     Se    -1.94744253     3.60373070    -2.54821007       ForceField.Type=Se3+2 ForceField.Charge=0.0
     50     Se    -2.06811394     5.12416151    -1.20201130       ForceField.Type=Se3+2 ForceField.Charge=0.0
     51     Se     0.83612833     7.24403048    -3.20824140       ForceField.Type=Se3+2 ForceField.Charge=0.0
     52     Se    -2.02732919     3.38793031     1.13508555       ForceField.Type=Se3+2 ForceField.Charge=0.0
     53     Se    -2.43588237     4.81619433     2.52704577       ForceField.Type=Se3+2 ForceField.Charge=0.0
     54     Se    -0.04095057     7.81394082     0.95553473       ForceField.Type=Se3+2 ForceField.Charge=0.0
     55     Se    -2.00889592     3.06433505     4.81615328       ForceField.Type=Se3+2 ForceField.Charge=0.0
     56     Se    -2.74305115     4.28389610     6.26536856       ForceField.Type=Se3+2 ForceField.Charge=0.0
     57     Se    -0.57775840     7.50630381     5.02501783       ForceField.Type=Se3+2 ForceField.Charge=0.0
     58     Se     7.16879795    -3.77611757    -1.41512568       ForceField.Type=Se3+2 ForceField.Charge=0.0
     59     Se     5.53761123    -4.88023731    -0.91907264       ForceField.Type=Se3+2 ForceField.Charge=0.0
     60     Se     8.33505475    -0.87568507    -4.41825627       ForceField.Type=Se3+2 ForceField.Charge=0.0
     61     Se     7.80944452    -2.96548350     2.44134994       ForceField.Type=Se3+2 ForceField.Charge=0.0
     62     Se     6.50284125    -4.40567234     3.02699827       ForceField.Type=Se3+2 ForceField.Charge=0.0
     63     Se     8.88502515    -0.15074487    -0.39121346       ForceField.Type=Se3+2 ForceField.Charge=0.0
     64     Se     8.04362718    -2.52613602     6.33681895       ForceField.Type=Se3+2 ForceField.Charge=0.0
     65     Se     7.41004109    -1.42181459     7.91888236       ForceField.Type=Se3+2 ForceField.Charge=0.0
     66     Se     9.17256934     0.67487870     3.66288915       ForceField.Type=Se3+2 ForceField.Charge=0.0
     67     Se     5.19770874    -0.34362627    -2.06241620       ForceField.Type=Se3+2 ForceField.Charge=0.0
     68     Se     3.71492151    -0.01991801    -0.71135809       ForceField.Type=Se3+2 ForceField.Charge=0.0
     69     Se     6.01298464     2.74863091    -4.38171595       ForceField.Type=Se3+2 ForceField.Charge=0.0
     70     Se     5.45667536     0.27052002     1.60066518       ForceField.Type=Se3+2 ForceField.Charge=0.0
     71     Se     3.95567092     0.30728738     2.97166847       ForceField.Type=Se3+2 ForceField.Charge=0.0
     72     Se     6.74813387     3.40558097    -0.25319483       ForceField.Type=Se3+2 ForceField.Charge=0.0
     73     Se     5.59231422     1.05271376     5.25538110       ForceField.Type=Se3+2 ForceField.Charge=0.0
     74     Se     4.20730949     0.71506686     6.70389681       ForceField.Type=Se3+2 ForceField.Charge=0.0
     75     Se     6.48895422     4.56313055     3.68924190       ForceField.Type=Se3+2 ForceField.Charge=0.0
     76     Se     3.21168633     3.90218620    -1.73752572       ForceField.Type=Se3+2 ForceField.Charge=0.0
     77     Se     1.66774402     4.53885942    -0.57729582       ForceField.Type=Se3+2 ForceField.Charge=0.0
     78     Se     4.68799241     6.70333755    -4.25200820       ForceField.Type=Se3+2 ForceField.Charge=0.0
     79     Se     3.03075143     4.29482992     1.98051720       ForceField.Type=Se3+2 ForceField.Charge=0.0
     80     Se     1.39810526     4.56362873     3.16600097       ForceField.Type=Se3+2 ForceField.Charge=0.0
     81     Se     4.94339727     7.19227785    -0.03035983       ForceField.Type=Se3+2 ForceField.Charge=0.0
     82     At    -0.10728842     3.97624019     9.36857338       ForceField.Type=At ForceField.Charge=0.0
 
Total System Charge             0.00000
Bonding info available!
 

Geometry at FIRE step 4:
 
--------
Geometry
--------
Formula: AtSe81
Atoms
  Index Symbol   x (angstrom)   y (angstrom)   z (angstrom)
      1     Se     2.83285383     4.56330042     5.70078434       ForceField.Type=Se3+2 ForceField.Charge=0.0
      2     Se     1.28195581     4.37943385     6.89320769       ForceField.Type=Se3+2 ForceField.Charge=0.0
      3     Se     3.26131489     8.11122211     3.60745656       ForceField.Type=Se3+2 ForceField.Charge=0.0
      4     Se    -2.40200823    -4.05541823    -1.89157410       ForceField.Type=Se3+2 ForceField.Charge=0.0
      5     Se    -3.92596026    -2.99805845    -1.06426708       ForceField.Type=Se3+2 ForceField.Charge=0.0
      6     Se    -1.47928010    -0.35157855    -3.40652807       ForceField.Type=Se3+2 ForceField.Charge=0.0
      7     Se    -1.35227354    -4.51930041     2.03020072       ForceField.Type=Se3+2 ForceField.Charge=0.0
      8     Se    -3.09780524    -3.88862883     2.85543663       ForceField.Type=Se3+2 ForceField.Charge=0.0
      9     Se    -1.14559503    -0.76574138     0.32478961       ForceField.Type=Se3+2 ForceField.Charge=0.0
     10     Se    -0.04569900    -4.89257755     5.92032952       ForceField.Type=Se3+2 ForceField.Charge=0.0
     11     Se    -1.44316654    -3.77838143     6.88425030       ForceField.Type=Se3+2 ForceField.Charge=0.0
     12     Se    -0.70570605    -1.04770592     4.03201800       ForceField.Type=Se3+2 ForceField.Charge=0.0
     13     Se    -5.16629956     1.07966362    -3.42893615       ForceField.Type=Se3+2 ForceField.Charge=0.0
     14     Se    -4.84475411     0.80975526    -1.44215711       ForceField.Type=Se3+2 ForceField.Charge=0.0
     15     Se    -3.11461454     4.62287818    -3.86174614       ForceField.Type=Se3+2 ForceField.Charge=0.0
     16     Se    -4.30245805     0.01244837     2.36799502       ForceField.Type=Se3+2 ForceField.Charge=0.0
     17     Se    -6.06004380    -0.98949793     2.19695740       ForceField.Type=Se3+2 ForceField.Charge=0.0
     18     Se    -3.46078227     4.11703535    -0.11261872       ForceField.Type=Se3+2 ForceField.Charge=0.0
     19     Se    -4.01670836    -0.86395866     6.18012162       ForceField.Type=Se3+2 ForceField.Charge=0.0
     20     Se    -3.77712278     0.56625063     7.60190093       ForceField.Type=Se3+2 ForceField.Charge=0.0
     21     Se    -3.57361296     3.51176304     3.59750941       ForceField.Type=Se3+2 ForceField.Charge=0.0
     22     Se    -6.82610645     4.52876255    -2.41744745       ForceField.Type=Se3+2 ForceField.Charge=0.0
     23     Se    -6.26668247     6.45117715    -2.07780673       ForceField.Type=Se3+2 ForceField.Charge=0.0
     24     Se    -2.92974596     8.62857984    -2.99208845       ForceField.Type=Se3+2 ForceField.Charge=0.0
     25     Se    -6.94498351     3.06646234     1.36570955       ForceField.Type=Se3+2 ForceField.Charge=0.0
     26     Se    -6.83567109     5.01215515     1.93926426       ForceField.Type=Se3+2 ForceField.Charge=0.0
     27     Se    -4.19917015     8.06650803     0.93314089       ForceField.Type=Se3+2 ForceField.Charge=0.0
     28     Se    -6.94134865     1.81038075     5.20005274       ForceField.Type=Se3+2 ForceField.Charge=0.0
     29     Se    -6.84186197     3.68434720     5.97761528       ForceField.Type=Se3+2 ForceField.Charge=0.0
     30     Se    -4.76605177     7.35670476     4.80932925       ForceField.Type=Se3+2 ForceField.Charge=0.0
     31     Se     1.48930580    -4.77837823    -2.58744935       ForceField.Type=Se3+2 ForceField.Charge=0.0
     32     Se     1.65106137    -4.09509040    -0.68205332       ForceField.Type=Se3+2 ForceField.Charge=0.0
     33     Se     4.02607505    -1.65545839    -3.08132994       ForceField.Type=Se3+2 ForceField.Charge=0.0
     34     Se     2.59962190    -5.80085232     2.97174302       ForceField.Type=Se3+2 ForceField.Charge=0.0
     35     Se     2.62420201    -3.77367619     3.08757406       ForceField.Type=Se3+2 ForceField.Charge=0.0
     36     Se     4.58407681    -1.28768758     0.62342646       ForceField.Type=Se3+2 ForceField.Charge=0.0
     37     Se     3.83669315    -3.41355660     6.84881012       ForceField.Type=Se3+2 ForceField.Charge=0.0
     38     Se     2.60626174    -2.69458831     8.29629633       ForceField.Type=Se3+2 ForceField.Charge=0.0
     39     Se     5.10161693    -0.68859587     4.32502948       ForceField.Type=Se3+2 ForceField.Charge=0.0
     40     Se     0.12817779    -0.90279624    -2.29334526       ForceField.Type=Se3+2 ForceField.Charge=0.0
     41     Se    -0.26584888     0.56209636    -0.94026134       ForceField.Type=Se3+2 ForceField.Charge=0.0
     42     Se     1.92606896     2.97644655    -3.01117186       ForceField.Type=Se3+2 ForceField.Charge=0.0
     43     Se     0.56508941    -0.93467456     1.41329036       ForceField.Type=Se3+2 ForceField.Charge=0.0
     44     Se    -0.10202260     0.42837498     2.76880716       ForceField.Type=Se3+2 ForceField.Charge=0.0
     45     Se     1.99386353     3.04156889     0.75953020       ForceField.Type=Se3+2 ForceField.Charge=0.0
     46     Se     1.01001962    -0.89375274     5.11179788       ForceField.Type=Se3+2 ForceField.Charge=0.0
     47     Se     0.07119037     0.23151149     6.51899813       ForceField.Type=Se3+2 ForceField.Charge=0.0
     48     Se     2.05745132     3.14601527     4.46763558       ForceField.Type=Se3+2 ForceField.Charge=0.0
     49     Se    -1.94766617     3.60345727    -2.54822834       ForceField.Type=Se3+2 ForceField.Charge=0.0
     50     Se    -2.06819048     5.12399795    -1.20214083       ForceField.Type=Se3+2 ForceField.Charge=0.0
     51     Se     0.83593531     7.24360326    -3.20877322       ForceField.Type=Se3+2 ForceField.Charge=0.0
     52     Se    -2.02730043     3.38795646     1.13509566       ForceField.Type=Se3+2 ForceField.Charge=0.0
     53     Se    -2.43571212     4.81634777     2.52696879       ForceField.Type=Se3+2 ForceField.Charge=0.0
     54     Se    -0.04080241     7.81387256     0.95503622       ForceField.Type=Se3+2 ForceField.Charge=0.0
     55     Se    -2.00863198     3.06467477     4.81621200       ForceField.Type=Se3+2 ForceField.Charge=0.0
     56     Se    -2.74272461     4.28439768     6.26527356       ForceField.Type=Se3+2 ForceField.Charge=0.0
     57     Se    -0.57737152     7.50659896     5.02458218       ForceField.Type=Se3+2 ForceField.Charge=0.0
     58     Se     7.16844114    -3.77657867    -1.41515086       ForceField.Type=Se3+2 ForceField.Charge=0.0
     59     Se     5.53725262    -4.88059187    -0.91886374       ForceField.Type=Se3+2 ForceField.Charge=0.0
     60     Se     8.33456860    -0.87643350    -4.41859898       ForceField.Type=Se3+2 ForceField.Charge=0.0
     61     Se     7.80938444    -2.96563459     2.44118174       ForceField.Type=Se3+2 ForceField.Charge=0.0
     62     Se     6.50276850    -4.40570318     3.02708895       ForceField.Type=Se3+2 ForceField.Charge=0.0
     63     Se     8.88484059    -0.15115937    -0.39164966       ForceField.Type=Se3+2 ForceField.Charge=0.0
     64     Se     8.04383384    -2.52595162     6.33666750       ForceField.Type=Se3+2 ForceField.Charge=0.0
     65     Se     7.41037072    -1.42147557     7.91867459       ForceField.Type=Se3+2 ForceField.Charge=0.0
     66     Se     9.17266548     0.67480858     3.66235196       ForceField.Type=Se3+2 ForceField.Charge=0.0
     67     Se     5.19739626    -0.34406403    -2.06258078       ForceField.Type=Se3+2 ForceField.Charge=0.0
     68     Se     3.71470643    -0.02021138    -0.71145094       ForceField.Type=Se3+2 ForceField.Charge=0.0
     69     Se     6.01261337     2.74795828    -4.38220605       ForceField.Type=Se3+2 ForceField.Charge=0.0
     70     Se     5.45662503     0.27037555     1.60042816       ForceField.Type=Se3+2 ForceField.Charge=0.0
     71     Se     3.95571623     0.30729700     2.97153062       ForceField.Type=Se3+2 ForceField.Charge=0.0
     72     Se     6.74807578     3.40524959    -0.25379079       ForceField.Type=Se3+2 ForceField.Charge=0.0
     73     Se     5.59252954     1.05288150     5.25506738       ForceField.Type=Se3+2 ForceField.Charge=0.0
     74     Se     4.20761985     0.71539330     6.70371424       ForceField.Type=Se3+2 ForceField.Charge=0.0
     75     Se     6.48919686     4.56313406     3.68856898       ForceField.Type=Se3+2 ForceField.Charge=0.0
     76     Se     3.21152737     3.90180597    -1.73790689       ForceField.Type=Se3+2 ForceField.Charge=0.0
     77     Se     1.66768055     4.53861761    -0.57762880       ForceField.Type=Se3+2 ForceField.Charge=0.0
     78     Se     4.68775181     6.70270133    -4.25272754       ForceField.Type=Se3+2 ForceField.Charge=0.0
     79     Se     3.03085085     4.29476787     1.98011550       ForceField.Type=Se3+2 ForceField.Charge=0.0
     80     Se     1.39829156     4.56372132     3.16566754       ForceField.Type=Se3+2 ForceField.Charge=0.0
     81     Se     4.94342322     7.19199488    -0.03116037       ForceField.Type=Se3+2 ForceField.Charge=0.0
     82     At    -0.12181664     3.97246416     9.39544385       ForceField.Type=At ForceField.Charge=0.0
 
Total System Charge             0.00000
Bonding info available!
 

Geometry at FIRE step 5:
 
--------
Geometry
--------
Formula: AtSe81
Atoms
  Index Symbol   x (angstrom)   y (angstrom)   z (angstrom)
      1     Se     2.83540485     4.56380481     5.69855651       ForceField.Type=Se3+2 ForceField.Charge=0.0
      2     Se     1.29805192     4.38492172     6.86297473       ForceField.Type=Se3+2 ForceField.Charge=0.0
      3     Se     3.26169958     8.11130155     3.60657448       ForceField.Type=Se3+2 ForceField.Charge=0.0
      4     Se    -2.40249439    -4.05567774    -1.89076568       ForceField.Type=Se3+2 ForceField.Charge=0.0
      5     Se    -3.92639427    -2.99822939    -1.06347291       ForceField.Type=Se3+2 ForceField.Charge=0.0
      6     Se    -1.47973461    -0.35201680    -3.40620392       ForceField.Type=Se3+2 ForceField.Charge=0.0
      7     Se    -1.35242496    -4.51918742     2.03095804       ForceField.Type=Se3+2 ForceField.Charge=0.0
      8     Se    -3.09787961    -3.88838956     2.85626580       ForceField.Type=Se3+2 ForceField.Charge=0.0
      9     Se    -1.14578125    -0.76582507     0.32513946       ForceField.Type=Se3+2 ForceField.Charge=0.0
     10     Se    -0.04555940    -4.89210884     5.92098593       ForceField.Type=Se3+2 ForceField.Charge=0.0
     11     Se    -1.44289938    -3.77778552     6.88495027       ForceField.Type=Se3+2 ForceField.Charge=0.0
     12     Se    -0.70561046    -1.04742202     4.03237380       ForceField.Type=Se3+2 ForceField.Charge=0.0
     13     Se    -5.16672350     1.07931276    -3.42844524       ForceField.Type=Se3+2 ForceField.Charge=0.0
     14     Se    -4.84501788     0.80962818    -1.44166539       ForceField.Type=Se3+2 ForceField.Charge=0.0
     15     Se    -3.11495859     4.62247839    -3.86175729       ForceField.Type=Se3+2 ForceField.Charge=0.0
     16     Se    -4.30242806     0.01265565     2.36851581       ForceField.Type=Se3+2 ForceField.Charge=0.0
     17     Se    -6.06007100    -0.98923352     2.19771746       ForceField.Type=Se3+2 ForceField.Charge=0.0
     18     Se    -3.46082073     4.11700311    -0.11256135       ForceField.Type=Se3+2 ForceField.Charge=0.0
     19     Se    -4.01645038    -0.86332956     6.18069636       ForceField.Type=Se3+2 ForceField.Charge=0.0
     20     Se    -3.77667074     0.56701732     7.60232136       ForceField.Type=Se3+2 ForceField.Charge=0.0
     21     Se    -3.57337608     3.51208943     3.59763303       ForceField.Type=Se3+2 ForceField.Charge=0.0
     22     Se    -6.82637272     4.52859581    -2.41712850       ForceField.Type=Se3+2 ForceField.Charge=0.0
     23     Se    -6.26682243     6.45101770    -2.07772828       ForceField.Type=Se3+2 ForceField.Charge=0.0
     24     Se    -2.92989704     8.62825323    -2.99250828       ForceField.Type=Se3+2 ForceField.Charge=0.0
     25     Se    -6.94496722     3.06666806     1.36615667       ForceField.Type=Se3+2 ForceField.Charge=0.0
     26     Se    -6.83553435     5.01242262     1.93948513       ForceField.Type=Se3+2 ForceField.Charge=0.0
     27     Se    -4.19896950     8.06659269     0.93283920       ForceField.Type=Se3+2 ForceField.Charge=0.0
     28     Se    -6.94102272     1.81098644     5.20060191       ForceField.Type=Se3+2 ForceField.Charge=0.0
     29     Se    -6.84139712     3.68501933     5.97795638       ForceField.Type=Se3+2 ForceField.Charge=0.0
     30     Se    -4.76564066     7.35717455     4.80917778       ForceField.Type=Se3+2 ForceField.Charge=0.0
     31     Se     1.48879156    -4.77883525    -2.58690999       ForceField.Type=Se3+2 ForceField.Charge=0.0
     32     Se     1.65068508    -4.09536234    -0.68159187       ForceField.Type=Se3+2 ForceField.Charge=0.0
     33     Se     4.02559130    -1.65602711    -3.08131308       ForceField.Type=Se3+2 ForceField.Charge=0.0
     34     Se     2.59949808    -5.80077725     2.97227283       ForceField.Type=Se3+2 ForceField.Charge=0.0
     35     Se     2.62416091    -3.77359210     3.08792782       ForceField.Type=Se3+2 ForceField.Charge=0.0
     36     Se     4.58389402    -1.28792622     0.62337162       ForceField.Type=Se3+2 ForceField.Charge=0.0
     37     Se     3.83694886    -3.41318910     6.84903535       ForceField.Type=Se3+2 ForceField.Charge=0.0
     38     Se     2.60665880    -2.69399346     8.29653256       ForceField.Type=Se3+2 ForceField.Charge=0.0
     39     Se     5.10174650    -0.68847710     4.32487710       ForceField.Type=Se3+2 ForceField.Charge=0.0
     40     Se     0.12778636    -0.90317385    -2.29308185       ForceField.Type=Se3+2 ForceField.Charge=0.0
     41     Se    -0.26609850     0.56186230    -0.94011226       ForceField.Type=Se3+2 ForceField.Charge=0.0
     42     Se     1.92575926     2.97592582    -3.01143505       ForceField.Type=Se3+2 ForceField.Charge=0.0
     43     Se     0.56497951    -0.93469335     1.41352875       ForceField.Type=Se3+2 ForceField.Charge=0.0
     44     Se    -0.10198767     0.42851197     2.76896285       ForceField.Type=Se3+2 ForceField.Charge=0.0
     45     Se     1.99384432     3.04140787     0.75926552       ForceField.Type=Se3+2 ForceField.Charge=0.0
     46     Se     1.01020897    -0.89341350     5.11199739       ForceField.Type=Se3+2 ForceField.Charge=0.0
     47     Se     0.07153639     0.23202848     6.51917296       ForceField.Type=Se3+2 ForceField.Charge=0.0
     48     Se     2.05778101     3.14624662     4.46731305       ForceField.Type=Se3+2 ForceField.Charge=0.0
     49     Se    -1.94792742     3.60313926    -2.54825068       ForceField.Type=Se3+2 ForceField.Charge=0.0
     50     Se    -2.06827720     5.12380747    -1.20229201       ForceField.Type=Se3+2 ForceField.Charge=0.0
     51     Se     0.83570509     7.24310156    -3.20940023       ForceField.Type=Se3+2 ForceField.Charge=0.0
     52     Se    -2.02726475     3.38798719     1.13510741       ForceField.Type=Se3+2 ForceField.Charge=0.0
     53     Se    -2.43550942     4.81652726     2.52687934       ForceField.Type=Se3+2 ForceField.Charge=0.0
     54     Se    -0.04062558     7.81378843     0.95445205       ForceField.Type=Se3+2 ForceField.Charge=0.0
     55     Se    -2.00832243     3.06507307     4.81628346       ForceField.Type=Se3+2 ForceField.Charge=0.0
     56     Se    -2.74234912     4.28498991     6.26515284       ForceField.Type=Se3+2 ForceField.Charge=0.0
     57     Se    -0.57692108     7.50694263     5.02407104       ForceField.Type=Se3+2 ForceField.Charge=0.0
     58     Se     7.16802338    -3.77712121    -1.41518252       ForceField.Type=Se3+2 ForceField.Charge=0.0
     59     Se     5.53683202    -4.88100618    -0.91861584       ForceField.Type=Se3+2 ForceField.Charge=0.0
     60     Se     8.33399821    -0.87731292    -4.41900145       ForceField.Type=Se3+2 ForceField.Charge=0.0
     61     Se     7.80931633    -2.96581331     2.44097698       ForceField.Type=Se3+2 ForceField.Charge=0.0
     62     Se     6.50268330    -4.40573505     3.02719614       ForceField.Type=Se3+2 ForceField.Charge=0.0
     63     Se     8.88462467    -0.15164577    -0.39216077       ForceField.Type=Se3+2 ForceField.Charge=0.0
     64     Se     8.04407611    -2.52573485     6.33649484       ForceField.Type=Se3+2 ForceField.Charge=0.0
     65     Se     7.41075422    -1.42107713     7.91843466       ForceField.Type=Se3+2 ForceField.Charge=0.0
     66     Se     9.17277499     0.67472757     3.66172040       ForceField.Type=Se3+2 ForceField.Charge=0.0
     67     Se     5.19702901    -0.34457522    -2.06277301       ForceField.Type=Se3+2 ForceField.Charge=0.0
     68     Se     3.71445257    -0.02055544    -0.71155951       ForceField.Type=Se3+2 ForceField.Charge=0.0
     69     Se     6.01217941     2.74716895    -4.38278128       ForceField.Type=Se3+2 ForceField.Charge=0.0
     70     Se     5.45656403     0.27020656     1.60015051       ForceField.Type=Se3+2 ForceField.Charge=0.0
     71     Se     3.95576730     0.30730790     2.97136911       ForceField.Type=Se3+2 ForceField.Charge=0.0
     72     Se     6.74801103     3.40486255    -0.25449013       ForceField.Type=Se3+2 ForceField.Charge=0.0
     73     Se     5.59277860     1.05307979     5.25469963       ForceField.Type=Se3+2 ForceField.Charge=0.0
     74     Se     4.20798152     0.71577690     6.70350133       ForceField.Type=Se3+2 ForceField.Charge=0.0
     75     Se     6.48948426     4.56313856     3.68777994       ForceField.Type=Se3+2 ForceField.Charge=0.0
     76     Se     3.21134217     3.90135755    -1.73835182       ForceField.Type=Se3+2 ForceField.Charge=0.0
     77     Se     1.66760673     4.53833095    -0.57801794       ForceField.Type=Se3+2 ForceField.Charge=0.0
     78     Se     4.68747278     6.70195255    -4.25356893       ForceField.Type=Se3+2 ForceField.Charge=0.0
     79     Se     3.03096713     4.29469205     1.97964599       ForceField.Type=Se3+2 ForceField.Charge=0.0
     80     Se     1.39851108     4.56382844     3.16525615       ForceField.Type=Se3+2 ForceField.Charge=0.0
     81     Se     4.94345015     7.19166076    -0.03210093       ForceField.Type=Se3+2 ForceField.Charge=0.0
     82     At    -0.13884512     3.96803018     9.42695730       ForceField.Type=At ForceField.Charge=0.0
 
Total System Charge             0.00000
Bonding info available!
 

Geometry at FIRE step 6:
 
--------
Geometry
--------
Formula: AtSe81
Atoms
  Index Symbol   x (angstrom)   y (angstrom)   z (angstrom)
      1     Se     2.84009735     4.56450890     5.69458807       ForceField.Type=Se3+2 ForceField.Charge=0.0
      2     Se     1.31398832     4.39086824     6.83097289       ForceField.Type=Se3+2 ForceField.Charge=0.0
      3     Se     3.26212861     8.11138523     3.60559443       ForceField.Type=Se3+2 ForceField.Charge=0.0
      4     Se    -2.40303788    -4.05596636    -1.88986192       ForceField.Type=Se3+2 ForceField.Charge=0.0
      5     Se    -3.92689006    -2.99842891    -1.06259169       ForceField.Type=Se3+2 ForceField.Charge=0.0
      6     Se    -1.48023657    -0.35250359    -3.40584702       ForceField.Type=Se3+2 ForceField.Charge=0.0
      7     Se    -1.35258934    -4.51905848     2.03180231       ForceField.Type=Se3+2 ForceField.Charge=0.0
      8     Se    -3.09796031    -3.88812325     2.85718856       ForceField.Type=Se3+2 ForceField.Charge=0.0
      9     Se    -1.14598902    -0.76591903     0.32552721       ForceField.Type=Se3+2 ForceField.Charge=0.0
     10     Se    -0.04540242    -4.89158196     5.92171119       ForceField.Type=Se3+2 ForceField.Charge=0.0
     11     Se    -1.44259774    -3.77712062     6.88573251       ForceField.Type=Se3+2 ForceField.Charge=0.0
     12     Se    -0.70550648    -1.04710462     4.03277093       ForceField.Type=Se3+2 ForceField.Charge=0.0
     13     Se    -5.16719469     1.07891626    -3.42790072       ForceField.Type=Se3+2 ForceField.Charge=0.0
     14     Se    -4.84530907     0.80948798    -1.44111961       ForceField.Type=Se3+2 ForceField.Charge=0.0
     15     Se    -3.11534167     4.62204047    -3.86176730       ForceField.Type=Se3+2 ForceField.Charge=0.0
     16     Se    -4.30239008     0.01288151     2.36909227       ForceField.Type=Se3+2 ForceField.Charge=0.0
     17     Se    -6.06009855    -0.98894084     2.19855944       ForceField.Type=Se3+2 ForceField.Charge=0.0
     18     Se    -3.46085979     4.11697006    -0.11249717       ForceField.Type=Se3+2 ForceField.Charge=0.0
     19     Se    -4.01616928    -0.86262356     6.18133112       ForceField.Type=Se3+2 ForceField.Charge=0.0
     20     Se    -3.77616755     0.56787609     7.60278523       ForceField.Type=Se3+2 ForceField.Charge=0.0
     21     Se    -3.57310925     3.51245126     3.59776970       ForceField.Type=Se3+2 ForceField.Charge=0.0
     22     Se    -6.82667665     4.52840983    -2.41676708       ForceField.Type=Se3+2 ForceField.Charge=0.0
     23     Se    -6.26697876     6.45083802    -2.07763506       ForceField.Type=Se3+2 ForceField.Charge=0.0
     24     Se    -2.93006780     8.62789507    -2.99297150       ForceField.Type=Se3+2 ForceField.Charge=0.0
     25     Se    -6.94495161     3.06689443     1.36665491       ForceField.Type=Se3+2 ForceField.Charge=0.0
     26     Se    -6.83538292     5.01271913     1.93972686       ForceField.Type=Se3+2 ForceField.Charge=0.0
     27     Se    -4.19873804     8.06668714     0.93249891       ForceField.Type=Se3+2 ForceField.Charge=0.0
     28     Se    -6.94065414     1.81166046     5.20120849       ForceField.Type=Se3+2 ForceField.Charge=0.0
     29     Se    -6.84087121     3.68576686     5.97832940       ForceField.Type=Se3+2 ForceField.Charge=0.0
     30     Se    -4.76519162     7.35769302     4.80901143       ForceField.Type=Se3+2 ForceField.Charge=0.0
     31     Se     1.48822773    -4.77934320    -2.58631103       ForceField.Type=Se3+2 ForceField.Charge=0.0
     32     Se     1.65026658    -4.09566441    -0.68107887       ForceField.Type=Se3+2 ForceField.Charge=0.0
     33     Se     4.02505431    -1.65665469    -3.08129639       ForceField.Type=Se3+2 ForceField.Charge=0.0
     34     Se     2.59936331    -5.80069053     2.97285656       ForceField.Type=Se3+2 ForceField.Charge=0.0
     35     Se     2.62411927    -3.77349569     3.08832164       ForceField.Type=Se3+2 ForceField.Charge=0.0
     36     Se     4.58368943    -1.28819117     0.62331062       ForceField.Type=Se3+2 ForceField.Charge=0.0
     37     Se     3.83723324    -3.41278822     6.84928744       ForceField.Type=Se3+2 ForceField.Charge=0.0
     38     Se     2.60710063    -2.69333120     8.29679317       ForceField.Type=Se3+2 ForceField.Charge=0.0
     39     Se     5.10188795    -0.68834361     4.32470856       ForceField.Type=Se3+2 ForceField.Charge=0.0
     40     Se     0.12735277    -0.90359259    -2.29278958       ForceField.Type=Se3+2 ForceField.Charge=0.0
     41     Se    -0.26637776     0.56160233    -0.93994716       ForceField.Type=Se3+2 ForceField.Charge=0.0
     42     Se     1.92541858     2.97534548    -3.01172723       ForceField.Type=Se3+2 ForceField.Charge=0.0
     43     Se     0.56485558    -0.93471230     1.41379471       ForceField.Type=Se3+2 ForceField.Charge=0.0
     44     Se    -0.10195269     0.42866592     2.76913653       ForceField.Type=Se3+2 ForceField.Charge=0.0
     45     Se     1.99382342     3.04122446     0.75897396       ForceField.Type=Se3+2 ForceField.Charge=0.0
     46     Se     1.01041742    -0.89303330     5.11222046       ForceField.Type=Se3+2 ForceField.Charge=0.0
     47     Se     0.07192056     0.23260771     6.51937066       ForceField.Type=Se3+2 ForceField.Charge=0.0
     48     Se     2.05822115     3.14651242     4.46689476       ForceField.Type=Se3+2 ForceField.Charge=0.0
     49     Se    -1.94821613     3.60279001    -2.54827694       ForceField.Type=Se3+2 ForceField.Charge=0.0
     50     Se    -2.06836879     5.12359788    -1.20245885       ForceField.Type=Se3+2 ForceField.Charge=0.0
     51     Se     0.83544311     7.24254288    -3.21010236       ForceField.Type=Se3+2 ForceField.Charge=0.0
     52     Se    -2.02722201     3.38802146     1.13512031       ForceField.Type=Se3+2 ForceField.Charge=0.0
     53     Se    -2.43527929     4.81672604     2.52678117       ForceField.Type=Se3+2 ForceField.Charge=0.0
     54     Se    -0.04042415     7.81368843     0.95380356       ForceField.Type=Se3+2 ForceField.Charge=0.0
     55     Se    -2.00797857     3.06551539     4.81636648       ForceField.Type=Se3+2 ForceField.Charge=0.0
     56     Se    -2.74194239     4.28565472     6.26500559       ForceField.Type=Se3+2 ForceField.Charge=0.0
     57     Se    -0.57642595     7.50732110     5.02350236       ForceField.Type=Se3+2 ForceField.Charge=0.0
     58     Se     7.16756017    -3.77772703    -1.41522106       ForceField.Type=Se3+2 ForceField.Charge=0.0
     59     Se     5.53636449    -4.88146429    -0.91833574       ForceField.Type=Se3+2 ForceField.Charge=0.0
     60     Se     8.33336390    -0.87829297    -4.41944964       ForceField.Type=Se3+2 ForceField.Charge=0.0
     61     Se     7.80924438    -2.96601430     2.44073747       ForceField.Type=Se3+2 ForceField.Charge=0.0
     62     Se     6.50258873    -4.40576370     3.02731664       ForceField.Type=Se3+2 ForceField.Charge=0.0
     63     Se     8.88438555    -0.15218682    -0.39272813       ForceField.Type=Se3+2 ForceField.Charge=0.0
     64     Se     8.04434520    -2.52549310     6.33631081       ForceField.Type=Se3+2 ForceField.Charge=0.0
     65     Se     7.41117557    -1.42063297     7.91817392       ForceField.Type=Se3+2 ForceField.Charge=0.0
     66     Se     9.17289157     0.67463949     3.66101598       ForceField.Type=Se3+2 ForceField.Charge=0.0
     67     Se     5.19661962    -0.34513986    -2.06298541       ForceField.Type=Se3+2 ForceField.Charge=0.0
     68     Se     3.71416784    -0.02093782    -0.71167966       ForceField.Type=Se3+2 ForceField.Charge=0.0
     69     Se     6.01169941     2.74629093    -4.38342134       ForceField.Type=Se3+2 ForceField.Charge=0.0
     70     Se     5.45649314     0.27001946     1.59984245       ForceField.Type=Se3+2 ForceField.Charge=0.0
     71     Se     3.95582073     0.30731943     2.97118985       ForceField.Type=Se3+2 ForceField.Charge=0.0
     72     Se     6.74794443     3.40443496    -0.25526805       ForceField.Type=Se3+2 ForceField.Charge=0.0
     73     Se     5.59304993     1.05330269     5.25429124       ForceField.Type=Se3+2 ForceField.Charge=0.0
     74     Se     4.20837987     0.71620442     6.70326657       ForceField.Type=Se3+2 ForceField.Charge=0.0
     75     Se     6.48980833     4.56314414     3.68690318       ForceField.Type=Se3+2 ForceField.Charge=0.0
     76     Se     3.21113831     3.90085520    -1.73884300       ForceField.Type=Se3+2 ForceField.Charge=0.0
     77     Se     1.66752565     4.53800750    -0.57844827       ForceField.Type=Se3+2 ForceField.Charge=0.0
     78     Se     4.68716763     6.70111612    -4.25450051       ForceField.Type=Se3+2 ForceField.Charge=0.0
     79     Se     3.03109600     4.29460278     1.97912528       ForceField.Type=Se3+2 ForceField.Charge=0.0
     80     Se     1.39875696     4.56394441     3.16475774       ForceField.Type=Se3+2 ForceField.Charge=0.0
     81     Se     4.94347452     7.19128584    -0.03314898       ForceField.Type=Se3+2 ForceField.Charge=0.0
     82     At    -0.15775501     3.96309273     9.46198077       ForceField.Type=At ForceField.Charge=0.0
 
Total System Charge             0.00000
Bonding info available!
 

Geometry at FIRE step 7:
 
--------
Geometry
--------
Formula: AtSe81
Atoms
  Index Symbol   x (angstrom)   y (angstrom)   z (angstrom)
      1     Se     2.84894702     4.56556299     5.68726552       ForceField.Type=Se3+2 ForceField.Charge=0.0
      2     Se     1.32926143     4.39763838     6.79612273       ForceField.Type=Se3+2 ForceField.Charge=0.0
      3     Se     3.26263682     8.11147649     3.60443943       ForceField.Type=Se3+2 ForceField.Charge=0.0
      4     Se    -2.40368380    -4.05630694    -1.88878788       ForceField.Type=Se3+2 ForceField.Charge=0.0
      5     Se    -3.92749641    -2.99867967    -1.06155513       ForceField.Type=Se3+2 ForceField.Charge=0.0
      6     Se    -1.48082314    -0.35307703    -3.40543176       ForceField.Type=Se3+2 ForceField.Charge=0.0
[...]

 Contributions from frequencies below 20 1/cm
 Frequency (1/cm):                                    2.190     3.000     4.086     4.567     5.263     5.533     5.717     6.078     6.740     7.252     7.899     7.937     8.148     8.645     9.140     9.313     9.691     9.873    10.141    10.445    10.686    10.980    11.355    11.414    11.860    12.145    12.267    12.765    13.103    13.359    13.397    13.591    13.681    13.995    14.413    14.737    15.028    15.086    15.558    15.771    15.958    16.361    16.415    16.686    16.763    16.972    17.200    17.326    17.542    17.811    17.965    18.128    18.466    18.644    18.944    19.138    19.372    19.821
 Entropy (cal/mol-K):                                11.189    10.564     9.949     9.728     9.446     9.347     9.282     9.160     8.955     8.810     8.640     8.630     8.578     8.460     8.350     8.312     8.233     8.197     8.143     8.085     8.039     7.985     7.919     7.908     7.832     7.785     7.765     7.686     7.634     7.596     7.590     7.561     7.548     7.503     7.445     7.401     7.362     7.354     7.293     7.266     7.243     7.193     7.186     7.154     7.145     7.120     7.094     7.079     7.055     7.024     7.007     6.989     6.953     6.934     6.902     6.882     6.857     6.812
 Nuclear Internal Energy (kcal/mol):                  0.642     0.642     0.642     0.642     0.642     0.642     0.642     0.642     0.642     0.642     0.642     0.642     0.642     0.642     0.642     0.642     0.642     0.642     0.642     0.642     0.642     0.642     0.642     0.642     0.642     0.642     0.642     0.642     0.642     0.642     0.642     0.642     0.642     0.642     0.642     0.642     0.642     0.642     0.642     0.642     0.642     0.642     0.642     0.642     0.642     0.642     0.642     0.642     0.642     0.643     0.643     0.643     0.643     0.643     0.643     0.643     0.643     0.643
 Constant Volume Heat Capacity (cal/mol-K):           1.987     1.987     1.987     1.987     1.987     1.987     1.987     1.987     1.987     1.987     1.987     1.987     1.987     1.987     1.987     1.987     1.987     1.987     1.987     1.987     1.987     1.987     1.987     1.987     1.987     1.987     1.987     1.987     1.987     1.987     1.987     1.987     1.987     1.987     1.987     1.986     1.986     1.986     1.986     1.986     1.986     1.986     1.986     1.986     1.986     1.986     1.986     1.986     1.986     1.986     1.986     1.986     1.986     1.986     1.986     1.986     1.986     1.986

       Summary of energy terms
                                                   hartree              eV         kcal/mol           kJ/mol
                                      --------------------     -----------       ----------      -----------
      Energy from Engine:               -0.214725145599692         -5.8430          -134.74          -563.76
      Nuclear Internal Energy:           0.202137098421602          5.5004           126.84           530.71
  (c) Nuclear Internal Energy:           0.176835976100466          4.8120           110.97           464.28
      Internal Energy U:                -0.012588047178090         -0.3425            -7.90           -33.05
      pV/n = RT:                         0.001023356398651          0.0278             0.64             2.69
      Enthalpy H:                       -0.011564690779439         -0.3147            -7.26           -30.36
      -T*S:                             -0.426658013008478        -11.6100          -267.73         -1120.19
  (c) -T*S:                             -0.482904148336622        -13.1405          -303.03         -1267.86
      Gibbs free energy:                -0.438222703787917        -11.9246          -274.99         -1150.55
 
 
 
  (c) The properties marked with this symbol have been corrected using 'low vibrational frequency free rotor
      interpolation corrections'. For those terms all positive frequencies are used (also ones below 20 1/cm),
      but the contribution to the partition function of small vibrational frequencies is modified as described
      in the following paper:
      S. Grimme, 'Supramolecular Binding Thermodynamics by Dispersion-Corrected Density Functional Theory'
      (Chem. Eur. J. 2012, 18, 9955-9964)
      Configuration: Dampener Frequency          :   100.000 1/cm
                     Dampener Alpha              :     4.000
                     Averaging Moment of Inertia : 1.000E-44 kg m2


     Temp                                                        Transl      Rotat     Vibrat     Total
     ----                                                        ------      -----     ------     -----

     373.15   Entropy (cal/mol-K):                               53.359     48.690    775.243    877.292
              Nuclear Internal Energy (kcal/mol):                 1.112      1.112    141.478    143.703
              Constant Volume Heat Capacity (cal/mol-K):          2.981      2.981    334.108    340.069
          (c) Constant Volume Heat Capacity (cal/mol-K):          2.981      2.981    286.269    292.231

 Contributions from frequencies below 20 1/cm
 Frequency (1/cm):                                    2.190     3.000     4.086     4.567     5.263     5.533     5.717     6.078     6.740     7.252     7.899     7.937     8.148     8.645     9.140     9.313     9.691     9.873    10.141    10.445    10.686    10.980    11.355    11.414    11.860    12.145    12.267    12.765    13.103    13.359    13.397    13.591    13.681    13.995    14.413    14.737    15.028    15.086    15.558    15.771    15.958    16.361    16.415    16.686    16.763    16.972    17.200    17.326    17.542    17.811    17.965    18.128    18.466    18.644    18.944    19.138    19.372    19.821
 Entropy (cal/mol-K):                                11.475    10.850    10.235    10.014     9.732     9.633     9.568     9.446     9.241     9.095     8.926     8.916     8.864     8.746     8.636     8.598     8.519     8.482     8.429     8.370     8.325     8.271     8.204     8.194     8.118     8.071     8.051     7.972     7.920     7.881     7.876     7.847     7.834     7.789     7.731     7.686     7.648     7.640     7.579     7.552     7.528     7.479     7.472     7.440     7.431     7.406     7.379     7.365     7.340     7.310     7.293     7.275     7.238     7.219     7.188     7.167     7.143     7.098
 Nuclear Internal Energy (kcal/mol):                  0.742     0.742     0.742     0.742     0.742     0.742     0.742     0.742     0.742     0.742     0.742     0.742     0.742     0.742     0.742     0.742     0.742     0.742     0.742     0.742     0.742     0.742     0.742     0.742     0.742     0.742     0.742     0.742     0.742     0.742     0.742     0.742     0.742     0.742     0.742     0.742     0.742     0.742     0.742     0.742     0.742     0.742     0.742     0.742     0.742     0.742     0.742     0.742     0.742     0.742     0.742     0.742     0.742     0.742     0.742     0.742     0.742     0.742
 Constant Volume Heat Capacity (cal/mol-K):           1.987     1.987     1.987     1.987     1.987     1.987     1.987     1.987     1.987     1.987     1.987     1.987     1.987     1.987     1.987     1.987     1.987     1.987     1.987     1.987     1.987     1.987     1.987     1.987     1.987     1.987     1.987     1.987     1.987     1.987     1.987     1.987     1.987     1.987     1.987     1.987     1.987     1.987     1.987     1.987     1.987     1.987     1.987     1.987     1.987     1.986     1.986     1.986     1.986     1.986     1.986     1.986     1.986     1.986     1.986     1.986     1.986     1.986

       Summary of energy terms
                                                   hartree              eV         kcal/mol           kJ/mol
                                      --------------------     -----------       ----------      -----------
      Energy from Engine:               -0.214725145599692         -5.8430          -134.74          -563.76
      Nuclear Internal Energy:           0.229004498430931          6.2315           143.70           601.25
  (c) Nuclear Internal Energy:           0.199898207976358          5.4395           125.44           524.83
      Internal Energy U:                 0.014279352831239          0.3886             8.96            37.49
      pV/n = RT:                         0.001181697168983          0.0322             0.74             3.10
      Enthalpy H:                        0.015461050000222          0.4207             9.70            40.59
      -T*S:                             -0.521683573283941        -14.1957          -327.36         -1369.68
  (c) -T*S:                             -0.582547239878602        -15.8519          -365.55         -1529.48
      Gibbs free energy:                -0.506222523283719        -13.7750          -317.66         -1329.09
 
 
 
  (c) The properties marked with this symbol have been corrected using 'low vibrational frequency free rotor
      interpolation corrections'. For those terms all positive frequencies are used (also ones below 20 1/cm),
      but the contribution to the partition function of small vibrational frequencies is modified as described
      in the following paper:
      S. Grimme, 'Supramolecular Binding Thermodynamics by Dispersion-Corrected Density Functional Theory'
      (Chem. Eur. J. 2012, 18, 9955-9964)
      Configuration: Dampener Frequency          :   100.000 1/cm
                     Dampener Alpha              :     4.000
                     Averaging Moment of Inertia : 1.000E-44 kg m2


     Temp                                                        Transl      Rotat     Vibrat     Total
     ----                                                        ------      -----     ------     -----

     473.15   Entropy (cal/mol-K):                               54.538     49.398    855.524    959.460
              Nuclear Internal Energy (kcal/mol):                 1.410      1.410    175.305    178.126
              Constant Volume Heat Capacity (cal/mol-K):          2.981      2.981    341.656    347.618
          (c) Constant Volume Heat Capacity (cal/mol-K):          2.981      2.981    293.613    299.574

 Contributions from frequencies below 20 1/cm
 Frequency (1/cm):                                    2.190     3.000     4.086     4.567     5.263     5.533     5.717     6.078     6.740     7.252     7.899     7.937     8.148     8.645     9.140     9.313     9.691     9.873    10.141    10.445    10.686    10.980    11.355    11.414    11.860    12.145    12.267    12.765    13.103    13.359    13.397    13.591    13.681    13.995    14.413    14.737    15.028    15.086    15.558    15.771    15.958    16.361    16.415    16.686    16.763    16.972    17.200    17.326    17.542    17.811    17.965    18.128    18.466    18.644    18.944    19.138    19.372    19.821
 Entropy (cal/mol-K):                                11.946    11.321    10.707    10.486    10.204    10.105    10.040     9.918     9.713     9.567     9.397     9.388     9.336     9.218     9.107     9.070     8.991     8.954     8.901     8.842     8.797     8.743     8.676     8.666     8.590     8.542     8.523     8.444     8.392     8.353     8.348     8.319     8.306     8.261     8.202     8.158     8.119     8.112     8.050     8.023     8.000     7.950     7.944     7.911     7.902     7.878     7.851     7.837     7.812     7.782     7.765     7.747     7.710     7.691     7.659     7.639     7.615     7.569
 Nuclear Internal Energy (kcal/mol):                  0.940     0.940     0.940     0.940     0.940     0.940     0.940     0.940     0.940     0.940     0.940     0.940     0.940     0.940     0.940     0.940     0.940     0.940     0.940     0.940     0.940     0.940     0.940     0.940     0.940     0.940     0.940     0.940     0.940     0.940     0.940     0.940     0.940     0.940     0.940     0.940     0.940     0.940     0.940     0.940     0.940     0.940     0.940     0.940     0.940     0.940     0.940     0.940     0.940     0.940     0.940     0.940     0.940     0.940     0.941     0.941     0.941     0.941
 Constant Volume Heat Capacity (cal/mol-K):           1.987     1.987     1.987     1.987     1.987     1.987     1.987     1.987     1.987     1.987     1.987     1.987     1.987     1.987     1.987     1.987     1.987     1.987     1.987     1.987     1.987     1.987     1.987     1.987     1.987     1.987     1.987     1.987     1.987     1.987     1.987     1.987     1.987     1.987     1.987     1.987     1.987     1.987     1.987     1.987     1.987     1.987     1.987     1.987     1.987     1.987     1.987     1.987     1.987     1.987     1.987     1.987     1.987     1.987     1.987     1.987     1.987     1.987

       Summary of energy terms
                                                   hartree              eV         kcal/mol           kJ/mol
                                      --------------------     -----------       ----------      -----------
      Energy from Engine:               -0.214725145599692         -5.8430          -134.74          -563.76
      Nuclear Internal Energy:           0.283861527716154          7.7243           178.13           745.28
  (c) Nuclear Internal Energy:           0.247113434645695          6.7243           155.07           648.80
      Internal Energy U:                 0.069136382116461          1.8813            43.38           181.52
      pV/n = RT:                         0.001498378709645          0.0408             0.94             3.93
      Enthalpy H:                        0.070634760826107          1.9221            44.32           185.45
      -T*S:                             -0.723444938154867        -19.6859          -453.97         -1899.40
  (c) -T*S:                             -0.792035231714868        -21.5524          -497.01         -2079.49
      Gibbs free energy:                -0.652810177328760        -17.7639          -409.64         -1713.95
 
 
 
  (c) The properties marked with this symbol have been corrected using 'low vibrational frequency free rotor
      interpolation corrections'. For those terms all positive frequencies are used (also ones below 20 1/cm),
      but the contribution to the partition function of small vibrational frequencies is modified as described
      in the following paper:
      S. Grimme, 'Supramolecular Binding Thermodynamics by Dispersion-Corrected Density Functional Theory'
      (Chem. Eur. J. 2012, 18, 9955-9964)
      Configuration: Dampener Frequency          :   100.000 1/cm
                     Dampener Alpha              :     4.000
                     Averaging Moment of Inertia : 1.000E-44 kg m2
-----------
Bond orders
-----------

Description: Unknown
Only bonds with bond orders > 0.200 are printed.

 Index  Atom    Index  Atom    BondOrder
     1    Se        2    Se        3.000
     1    Se       48    Se        3.000
     4    Se        5    Se        3.000
     6    Se       40    Se        3.000
     7    Se        8    Se        3.000
     9    Se       41    Se        3.000
     9    Se       43    Se        3.000
    10    Se       11    Se        3.000
    12    Se       44    Se        3.000
    12    Se       46    Se        3.000
    13    Se       14    Se        3.000
    15    Se       49    Se        3.000
    16    Se       17    Se        3.000
    18    Se       50    Se        3.000
    18    Se       52    Se        3.000
    19    Se       20    Se        3.000
    21    Se       53    Se        3.000
    21    Se       55    Se        3.000
    22    Se       23    Se        3.000
    25    Se       26    Se        3.000
    28    Se       29    Se        3.000
    31    Se       32    Se        3.000
    33    Se       67    Se        3.000
    34    Se       35    Se        3.000
    36    Se       68    Se        3.000
    36    Se       70    Se        3.000
    37    Se       38    Se        3.000
    39    Se       71    Se        3.000
    39    Se       73    Se        3.000
    40    Se       41    Se        3.000
    42    Se       76    Se        3.000
    43    Se       44    Se        3.000
    45    Se       77    Se        3.000
    45    Se       79    Se        3.000
    46    Se       47    Se        3.000
    48    Se       80    Se        3.000
    49    Se       50    Se        3.000
    52    Se       53    Se        3.000
    55    Se       56    Se        3.000
    58    Se       59    Se        3.000
    61    Se       62    Se        3.000
    64    Se       65    Se        3.000
    67    Se       68    Se        3.000
    70    Se       71    Se        3.000
    73    Se       74    Se        3.000
    76    Se       77    Se        3.000
    79    Se       80    Se        3.000


--------------
Atomic charges
--------------
  Index   Atom    Charge
      1     Se    0.0000
      2     Se    0.0000
      3     Se    0.0000
      4     Se    0.0000
      5     Se    0.0000
      6     Se    0.0000
      7     Se    0.0000
      8     Se    0.0000
      9     Se    0.0000
     10     Se    0.0000
     11     Se    0.0000
     12     Se    0.0000
     13     Se    0.0000
     14     Se    0.0000
     15     Se    0.0000
     16     Se    0.0000
     17     Se    0.0000
     18     Se    0.0000
     19     Se    0.0000
     20     Se    0.0000
     21     Se    0.0000
     22     Se    0.0000
     23     Se    0.0000
     24     Se    0.0000
     25     Se    0.0000
     26     Se    0.0000
     27     Se    0.0000
     28     Se    0.0000
     29     Se    0.0000
     30     Se    0.0000
     31     Se    0.0000
     32     Se    0.0000
     33     Se    0.0000
     34     Se    0.0000
     35     Se    0.0000
     36     Se    0.0000
     37     Se    0.0000
     38     Se    0.0000
     39     Se    0.0000
     40     Se    0.0000
     41     Se    0.0000
     42     Se    0.0000
     43     Se    0.0000
     44     Se    0.0000
     45     Se    0.0000
     46     Se    0.0000
     47     Se    0.0000
     48     Se    0.0000
     49     Se    0.0000
     50     Se    0.0000
     51     Se    0.0000
     52     Se    0.0000
     53     Se    0.0000
     54     Se    0.0000
     55     Se    0.0000
     56     Se    0.0000
     57     Se    0.0000
     58     Se    0.0000
     59     Se    0.0000
     60     Se    0.0000
     61     Se    0.0000
     62     Se    0.0000
     63     Se    0.0000
     64     Se    0.0000
     65     Se    0.0000
     66     Se    0.0000
     67     Se    0.0000
     68     Se    0.0000
     69     Se    0.0000
     70     Se    0.0000
     71     Se    0.0000
     72     Se    0.0000
     73     Se    0.0000
     74     Se    0.0000
     75     Se    0.0000
     76     Se    0.0000
     77     Se    0.0000
     78     Se    0.0000
     79     Se    0.0000
     80     Se    0.0000
     81     Se    0.0000
     82     At    0.0000


Dipole moment vector    (Debye):     0.00000000    0.00000000    0.00000000
              magnitude (Debye):     0.00000000

 
--------------------
Energy Decomposition
--------------------
Total Energy (hartree)                -0.21472515
Total Energy (eV)                     -5.84296850
Bond bending (hartree)                 0.00113513
Bond stretching (hartree)              0.00010231
Bond torsion (hartree)                 0.00602386
Bond inversion (hartree)               0.00000000
Van Der Waals (hartree)               -0.22198645
Coulomb (hartree)                      0.00000000
Embedding (hartree)                    0.00000000
Total Bonded (hartree)                 0.00726131
Total NonBonded (hartree)             -0.22198645
 

Final PES point is a local minimum. Geometry optimization successful!


AMS application finished. Exiting.
NORMAL TERMINATION
     Total cpu time:       4.19
  Total system time:       2.10
 Total elapsed time:       9.22
