

 Parallel Execution: Process Information
 ==============================================================================
 Rank   Node Name                              NodeID   MyNodeRank  NodeMaster
    0   lxir124                                   0          0          0
    1   lxir124                                   0          1         -1
    2   lxir124                                   0          2         -1
    3   lxir124                                   0          3         -1
    4   lxir124                                   0          4         -1
    5   lxir124                                   0          5         -1
    6   lxir124                                   0          6         -1
    7   lxir124                                   0          7         -1
    8   lxir124                                   0          8         -1
    9   lxir124                                   0          9         -1
   10   lxir124                                   0         10         -1
   11   lxir124                                   0         11         -1
   12   lxir124                                   0         12         -1
   13   lxir124                                   0         13         -1
   14   lxir124                                   0         14         -1
   15   lxir124                                   0         15         -1
   16   lxir124                                   0         16         -1
   17   lxir124                                   0         17         -1
   18   lxir124                                   0         18         -1
   19   lxir124                                   0         19         -1
 ==============================================================================


May use up to 122942MB of RAM as shared memory on node 0

 *******************************************************************************
 *                                                                             *
 *  --------------------------------                                           *
 *   Amsterdam Modeling Suite (AMS)              2024.101                      *
 *  --------------------------------                                           *
 *                                               r121099 2024-04-19            *
 *                                                                             *
 *                                                                             *
 *                              =================                              *
 *                              |               |                              *
 *                              |     A M S     |                              *
 *                              |               |                              *
 *                              =================                              *
 *                                                                             *
 *                                                                             *
 *   Online information and documentation:  https://www.scm.com/support/       *
 *   E-mail:  support@scm.com   info@scm.com                                   *
 *                                                                             *
 *   Scientific publications using AMS results must be properly referenced     *
 *   See the User Manuals (or the web site) for recommended citations          *
 *   The terms and conditions of the End User License Agreement apply to       *
 *   the use of AMS, https://www.scm.com/license-terms/                        *
 *                                                                             *
 **********************  x86_64_linux_intel / intelmpi  ************************
 
 Licensed to: Dr. Valeria Pershina / GSI Helmholtzzentrum f?r Schwerionenforschung GmbH / Darmstadt / Germany 2024-05-07 16:20:14
 SCM User ID: u15059
  
 AMS 2024.101  RunTime: May25-2024 19:29:17  ShM Nodes: 1  Procs: 20

 AMS jobname: ams
 AMS jobid  : 738044168

 Start   directory: /data.local1/milias/work/open-collection/theoretical_chemistry/software/ams/runs/adsoptions/Se_trigonal_slab/tmp.milias.5043.0.noindex/
 Results directory: /data.local1/milias/work/open-collection/theoretical_chemistry/software/ams/runs/adsoptions/Se_trigonal_slab/AtOH.geopt_phonons_uff.results/
 Scratch directory: /data.local1/milias/scratch/amstmp_ams_kid0.738044168/


 Communication costs MPI_COMM_WORLD:      1.895 usec per message,   0.0095 usec per 8-byte item
 Communication costs for intra-node:      1.884 usec per message,   0.0092 usec per 8-byte item

 RNG seed: -641876147 883994480 1200219816 548622383 1052269833 -366024643 -1367501501 -1494400263

       ***************************
       *  GEOMETRY OPTIMIZATION  *
       ***************************

FIRE optimizer config
       nMin:  5 steps
    dtStart:  0.2500 fs
      dtMax:  1.0000 fs
       fInc:  1.1000
       fDec:  0.5000
 alphaStart:  0.1000
     fAlpha:  0.9900
 Opt. latt.:  F
Convergence criteria:
       Energy:  0.000010 Ha per atom
    Gradients:  0.001000 Ha/Angstrom
         Step:  0.010000 Angstrom
Stress energy:  0.000500 Ha per atom
 
--------
Geometry
--------
Formula: HAtO
Atoms
  Index Symbol   x (angstrom)   y (angstrom)   z (angstrom)
      1     At    -1.59798563    -0.25116486     0.00000000       ForceField.Type=At ForceField.Charge=0.0
      2      O     0.54783054    -0.28731425     0.00000000       ForceField.Type=O_2 ForceField.Charge=0.0
      3      H     1.05015509     0.53847911     0.00000000       ForceField.Type=H_ ForceField.Charge=0.0
 
Total System Charge             0.00000
Bonding info available!
 
 
------------------------
MM Engine configuration
------------------------
Force field type             UFF
 

Relaxing 9 nuclear degrees of freedom with FIRE.
 Rigid motions settings for: FIRE
 Atomic rotations (x,y,z):     T T T
 Atomic translations (x,y,z):  T T T
 Tolerance:                   1.000000000000000E-006
 
------------------------
UFF Engine configuration
------------------------
UFF Parameters file          general_db
UFF Elements file            elements_db
UFF MMAtomTypes file         mmatomtypes_db
 
  atom type UFF index
          1       110
          2        19
          3         1
-----------------------
Assumed Input Structure
-----------------------
Atoms [Angstrom]
      At      -1.5979856300   -0.2511648600    0.0000000000          At   0.000000000000
      O        0.5478305400   -0.2873142500    0.0000000000         O_2   0.000000000000
      H        1.0501550900    0.5384791100    0.0000000000          H_   0.000000000000
End

Bonds
    1      2    1.000000000000
    2      3    1.000000000000
End


Geometry at FIRE step 1:
 
--------
Geometry
--------
Formula: HAtO
Atoms
  Index Symbol   x (angstrom)   y (angstrom)   z (angstrom)
      1     At    -1.59798245    -0.25116584     0.00000000       ForceField.Type=At ForceField.Charge=0.0
      2      O     0.54783346    -0.28731573     0.00000000       ForceField.Type=O_2 ForceField.Charge=0.0
      3      H     1.05014899     0.53848157     0.00000000       ForceField.Type=H_ ForceField.Charge=0.0
 
Total System Charge             0.00000
Bonding info available!
 
Geometry optimization converged

Optimized geometry:
 
--------
Geometry
--------
Formula: HAtO
Atoms
  Index Symbol   x (angstrom)   y (angstrom)   z (angstrom)
      1     At    -1.59798245    -0.25116584     0.00000000       ForceField.Type=At ForceField.Charge=0.0
      2      O     0.54783346    -0.28731573     0.00000000       ForceField.Type=O_2 ForceField.Charge=0.0
      3      H     1.05014899     0.53848157     0.00000000       ForceField.Type=H_ ForceField.Charge=0.0
 
Total System Charge             0.00000
Bonding info available!
 
Performing a single point calculation on the final geometry ...

-----------------------
Assumed Input Structure
-----------------------
Atoms [Angstrom]
      At      -1.5979824531   -0.2511658396    0.0000000000          At   0.000000000000
      O        0.5478334605   -0.2873157287    0.0000000000         O_2   0.000000000000
      H        1.0501489926    0.5384815682    0.0000000000          H_   0.000000000000
End

Bonds
    1      2    1.000000000000
    2      3    1.000000000000
End

Scanning modes in range provided by user.


    =====================
     CALCULATION RESULTS
    =====================

Energy (hartree)             0.00000175

Gradients (hartree/bohr)
  Index   Atom            d/dx            d/dy            d/dz
      1     At   -0.0001743713   -0.0001303572    0.0000000000
      2      O   -0.0001524686    0.0001624534    0.0000000000
      3      H    0.0003268399   -0.0000320962    0.0000000000

 Symmetry: C(S)

 -----------------------
 Normal Mode Frequencies
 -----------------------

 Index   Frequency (cm-1)   Red. mass (u)  F const (Ha/Bohr^2)   Intensity (km/mol)    Irrep
     7           504.3124          6.5755             0.063288               0.0000       A'
     8           891.6587          1.1613             0.034940               0.0000       A'
     9          3871.5955          1.0677             0.605637               0.0000       A'

 Zero-point energy (Hartree):     0.0120

 ------------
 Normal Modes
 ------------

 Number of removed rigid normal modes: 6
 
 Mode:     7      Frequency (cm-1):      504.3124     Intensity (km/mol):        0.0000     Irrep: A'
 Index  Atom      ---- Displacements (x/y/z) ----
     1    At      -0.048192  -0.000797  -0.000000
     2     O       0.582064   0.017439  -0.000000
     3     H       0.803947  -0.110652   0.000000
 
 Mode:     8      Frequency (cm-1):      891.6587     Intensity (km/mol):        0.0000     Irrep: A'
 Index  Atom      ---- Displacements (x/y/z) ----
     1    At       0.002004  -0.002184  -0.000000
     2     O      -0.080228   0.060663  -0.000000
     3     H       0.855694  -0.507605   0.000000
 
 Mode:     9      Frequency (cm-1):     3871.5955     Intensity (km/mol):        0.0000     Irrep: A'
 Index  Atom      ---- Displacements (x/y/z) ----
     1    At       0.000042   0.000002  -0.000000
     2     O      -0.033151  -0.053803   0.000000
     3     H       0.517426   0.853391   0.000000

 Vibrational polarizability tensor (a.u.):
                  X                   Y                   Z
 X               0.00000             0.00000             0.00000
 Y               0.00000             0.00000             0.00000
 Z               0.00000             0.00000             0.00000

 Isotropic =      0.0000    atomic units

PES point character: Geometry corresponds to a local minimum on the PES.




 ============================
 Statistical Thermal Analysis  ***  ideal gas assumed  ***
 ============================
  
 Pressure:                  1.000000 atm.

 Lowest Temperature:      298.150000 K
 Highest Temperature:     473.150000 K
 Nr. of T-steps:            3



 Moments of Inertia [amu*bohr^2] and principal axis
 ==================================================

           2.2847        266.7513        269.0360
 ------------------------------------------------
          -0.9999         -0.0112          0.0000
          -0.0112          0.9999          0.0000
           0.0000          0.0000          1.0000


 The rotational contribution to the molecular entropy includes
 a term, dependent on the symmetry number sigma. The results 
 reported below were computed using sigma = 1, determined from
 the point group symmetry of the input geometry (C(S)). 
 If this is not the correct symmetry, try symmetrizing the molecule before
 running the calculation (note: linear molecules should be aligned along one
 of the Cartesian axes).
 Contributions from frequencies below 20 1/cm are not included in vibrational sums.
 Their contributions, if any, are reported separately.


     Temp                                                        Transl      Rotat     Vibrat     Total
     ----                                                        ------      -----     ------     -----

     298.15   Entropy (cal/mol-K):                               42.162     19.734      0.792     62.687
              Nuclear Internal Energy (kcal/mol):                 0.889      0.889      7.704      9.481
              Constant Volume Heat Capacity (cal/mol-K):          2.981      2.981      1.752      7.714
          (c) Constant Volume Heat Capacity (cal/mol-K):          2.981      2.981      1.752      7.713

       Summary of energy terms
                                                   hartree              eV         kcal/mol           kJ/mol
                                      --------------------     -----------       ----------      -----------
      Energy from Engine:                0.000001747436137          0.0000             0.00             0.00
      Nuclear Internal Energy:           0.015109614982096          0.4112             9.48            39.67
  (c) Nuclear Internal Energy:           0.015107970063517          0.4111             9.48            39.67
      Internal Energy U:                 0.015111362418233          0.4112             9.48            39.67
      pV/n = RT:                         0.000944186013486          0.0257             0.59             2.48
      Enthalpy H:                        0.016055548431719          0.4369            10.08            42.15
      -T*S:                             -0.029784612033111         -0.8105           -18.69           -78.20
  (c) -T*S:                             -0.029785092116308         -0.8105           -18.69           -78.20
      Gibbs free energy:                -0.013729063601393         -0.3736            -8.62           -36.05
 
 
 
  (c) The properties marked with this symbol have been corrected using 'low vibrational frequency free rotor
      interpolation corrections'. For those terms all positive frequencies are used (also ones below 20 1/cm),
      but the contribution to the partition function of small vibrational frequencies is modified as described
      in the following paper:
      S. Grimme, 'Supramolecular Binding Thermodynamics by Dispersion-Corrected Density Functional Theory'
      (Chem. Eur. J. 2012, 18, 9955-9964)
      Configuration: Dampener Frequency          :   100.000 1/cm
                     Dampener Alpha              :     4.000
                     Averaging Moment of Inertia : 1.000E-44 kg m2


     Temp                                                        Transl      Rotat     Vibrat     Total
     ----                                                        ------      -----     ------     -----

     323.15   Entropy (cal/mol-K):                               42.562     19.974      0.940     63.476
              Nuclear Internal Energy (kcal/mol):                 0.963      0.963      7.750      9.677
              Constant Volume Heat Capacity (cal/mol-K):          2.981      2.981      1.941      7.903
          (c) Constant Volume Heat Capacity (cal/mol-K):          2.981      2.981      1.941      7.902

       Summary of energy terms
                                                   hartree              eV         kcal/mol           kJ/mol
                                      --------------------     -----------       ----------      -----------
      Energy from Engine:                0.000001747436137          0.0000             0.00             0.00
      Nuclear Internal Energy:           0.015420750005740          0.4196             9.68            40.49
  (c) Nuclear Internal Energy:           0.015419089903620          0.4196             9.68            40.48
      Internal Energy U:                 0.015422497441877          0.4197             9.68            40.49
      pV/n = RT:                         0.001023356398651          0.0278             0.64             2.69
      Enthalpy H:                        0.016445853840529          0.4475            10.32            43.18
      -T*S:                             -0.032688241293652         -0.8895           -20.51           -85.82
  (c) -T*S:                             -0.032688745870688         -0.8895           -20.51           -85.82
      Gibbs free energy:                -0.016242387453124         -0.4420           -10.19           -42.64
 
 
 
  (c) The properties marked with this symbol have been corrected using 'low vibrational frequency free rotor
      interpolation corrections'. For those terms all positive frequencies are used (also ones below 20 1/cm),
      but the contribution to the partition function of small vibrational frequencies is modified as described
      in the following paper:
      S. Grimme, 'Supramolecular Binding Thermodynamics by Dispersion-Corrected Density Functional Theory'
      (Chem. Eur. J. 2012, 18, 9955-9964)
      Configuration: Dampener Frequency          :   100.000 1/cm
                     Dampener Alpha              :     4.000
                     Averaging Moment of Inertia : 1.000E-44 kg m2


     Temp                                                        Transl      Rotat     Vibrat     Total
     ----                                                        ------      -----     ------     -----

     373.15   Entropy (cal/mol-K):                               43.276     20.402      1.244     64.922
              Nuclear Internal Energy (kcal/mol):                 1.112      1.112      7.856     10.080
              Constant Volume Heat Capacity (cal/mol-K):          2.981      2.981      2.269      8.231
          (c) Constant Volume Heat Capacity (cal/mol-K):          2.981      2.981      2.269      8.230

       Summary of energy terms
                                                   hartree              eV         kcal/mol           kJ/mol
                                      --------------------     -----------       ----------      -----------
      Energy from Engine:                0.000001747436137          0.0000             0.00             0.00
      Nuclear Internal Energy:           0.016063955025422          0.4371            10.08            42.18
  (c) Nuclear Internal Energy:           0.016062248652469          0.4371            10.08            42.17
      Internal Energy U:                 0.016065702461559          0.4372            10.08            42.18
      pV/n = RT:                         0.001181697168983          0.0322             0.74             3.10
      Enthalpy H:                        0.017247399630542          0.4693            10.82            45.28
      -T*S:                             -0.038606239433915         -1.0505           -24.23          -101.36
  (c) -T*S:                             -0.038606772651026         -1.0505           -24.23          -101.36
      Gibbs free energy:                -0.021358839803374         -0.5812           -13.40           -56.08
 
 
 
  (c) The properties marked with this symbol have been corrected using 'low vibrational frequency free rotor
      interpolation corrections'. For those terms all positive frequencies are used (also ones below 20 1/cm),
      but the contribution to the partition function of small vibrational frequencies is modified as described
      in the following paper:
      S. Grimme, 'Supramolecular Binding Thermodynamics by Dispersion-Corrected Density Functional Theory'
      (Chem. Eur. J. 2012, 18, 9955-9964)
      Configuration: Dampener Frequency          :   100.000 1/cm
                     Dampener Alpha              :     4.000
                     Averaging Moment of Inertia : 1.000E-44 kg m2


     Temp                                                        Transl      Rotat     Vibrat     Total
     ----                                                        ------      -----     ------     -----

     473.15   Entropy (cal/mol-K):                               44.456     21.110      1.842     67.408
              Nuclear Internal Energy (kcal/mol):                 1.410      1.410      8.109     10.929
              Constant Volume Heat Capacity (cal/mol-K):          2.981      2.981      2.756      8.717
          (c) Constant Volume Heat Capacity (cal/mol-K):          2.981      2.981      2.755      8.716

       Summary of energy terms
                                                   hartree              eV         kcal/mol           kJ/mol
                                      --------------------     -----------       ----------      -----------
      Energy from Engine:                0.000001747436137          0.0000             0.00             0.00
      Nuclear Internal Energy:           0.017417044569814          0.4739            10.93            45.73
  (c) Nuclear Internal Energy:           0.017415199553058          0.4739            10.93            45.72
      Internal Energy U:                 0.017418792005951          0.4740            10.93            45.73
      pV/n = RT:                         0.001498378709645          0.0408             0.94             3.93
      Enthalpy H:                        0.018917170715597          0.5148            11.87            49.67
      -T*S:                             -0.050826393198638         -1.3831           -31.89          -133.44
  (c) -T*S:                             -0.050826914689463         -1.3831           -31.89          -133.45
      Gibbs free energy:                -0.031909222483042         -0.8683           -20.02           -83.78
 
 
 
  (c) The properties marked with this symbol have been corrected using 'low vibrational frequency free rotor
      interpolation corrections'. For those terms all positive frequencies are used (also ones below 20 1/cm),
      but the contribution to the partition function of small vibrational frequencies is modified as described
      in the following paper:
      S. Grimme, 'Supramolecular Binding Thermodynamics by Dispersion-Corrected Density Functional Theory'
      (Chem. Eur. J. 2012, 18, 9955-9964)
      Configuration: Dampener Frequency          :   100.000 1/cm
                     Dampener Alpha              :     4.000
                     Averaging Moment of Inertia : 1.000E-44 kg m2
-----------
Bond orders
-----------

Description: Unknown
Only bonds with bond orders > 0.200 are printed.

 Index  Atom    Index  Atom    BondOrder
     1    At        2     O        1.000
     2     O        3     H        1.000


--------------
Atomic charges
--------------
  Index   Atom    Charge
      1     At    0.0000
      2      O    0.0000
      3      H    0.0000


Dipole moment vector    (Debye):     0.00000000    0.00000000    0.00000000
              magnitude (Debye):     0.00000000

 
--------------------
Energy Decomposition
--------------------
Total Energy (hartree)                 0.00000175
Total Energy (eV)                      0.00004755
Bond bending (hartree)                 0.00000163
Bond stretching (hartree)              0.00000011
Bond torsion (hartree)                 0.00000000
Bond inversion (hartree)               0.00000000
Van Der Waals (hartree)                0.00000000
Coulomb (hartree)                      0.00000000
Embedding (hartree)                    0.00000000
Total Bonded (hartree)                 0.00000175
Total NonBonded (hartree)              0.00000000
 

Final PES point is a local minimum. Geometry optimization successful!


AMS application finished. Exiting.
NORMAL TERMINATION
     Total cpu time:       1.04
  Total system time:       0.40
 Total elapsed time:       2.79
