

 Parallel Execution: Process Information
 ==============================================================================
 Rank   Node Name                              NodeID   MyNodeRank  NodeMaster
    0   lxir124                                   0          0          0
    1   lxir124                                   0          1         -1
    2   lxir124                                   0          2         -1
    3   lxir124                                   0          3         -1
    4   lxir124                                   0          4         -1
    5   lxir124                                   0          5         -1
    6   lxir124                                   0          6         -1
    7   lxir124                                   0          7         -1
    8   lxir124                                   0          8         -1
    9   lxir124                                   0          9         -1
   10   lxir124                                   0         10         -1
   11   lxir124                                   0         11         -1
   12   lxir124                                   0         12         -1
   13   lxir124                                   0         13         -1
   14   lxir124                                   0         14         -1
   15   lxir124                                   0         15         -1
   16   lxir124                                   0         16         -1
   17   lxir124                                   0         17         -1
   18   lxir124                                   0         18         -1
   19   lxir124                                   0         19         -1
 ==============================================================================


May use up to 122942MB of RAM as shared memory on node 0

 *******************************************************************************
 *                                                                             *
 *  --------------------------------                                           *
 *   Amsterdam Modeling Suite (AMS)              2024.101                      *
 *  --------------------------------                                           *
 *                                               r121099 2024-04-19            *
 *                                                                             *
 *                                                                             *
 *                              =================                              *
 *                              |               |                              *
 *                              |     A M S     |                              *
 *                              |               |                              *
 *                              =================                              *
 *                                                                             *
 *                                                                             *
 *   Online information and documentation:  https://www.scm.com/support/       *
 *   E-mail:  support@scm.com   info@scm.com                                   *
 *                                                                             *
 *   Scientific publications using AMS results must be properly referenced     *
 *   See the User Manuals (or the web site) for recommended citations          *
 *   The terms and conditions of the End User License Agreement apply to       *
 *   the use of AMS, https://www.scm.com/license-terms/                        *
 *                                                                             *
 **********************  x86_64_linux_intel / intelmpi  ************************
 
 Licensed to: Dr. Valeria Pershina / GSI Helmholtzzentrum f?r Schwerionenforschung GmbH / Darmstadt / Germany 2024-05-07 16:20:14
 SCM User ID: u15059
  
 AMS 2024.101  RunTime: May25-2024 19:13:19  ShM Nodes: 1  Procs: 20

 AMS jobname: ams
 AMS jobid  : 1760868313

 Start   directory: /data.local1/milias/work/open-collection/theoretical_chemistry/software/ams/runs/adsoptions/Se_trigonal_slab/tmp.milias.582.0.noindex/
 Results directory: /data.local1/milias/work/open-collection/theoretical_chemistry/software/ams/runs/adsoptions/Se_trigonal_slab/AtOH_on_Se81_from3x3x3.geopt_phonons_uff.results/
 Scratch directory: /data.local1/milias/scratch/amstmp_ams_kid0.1760868313/


 Communication costs MPI_COMM_WORLD:      1.892 usec per message,   0.0091 usec per 8-byte item
 Communication costs for intra-node:      1.942 usec per message,   0.0091 usec per 8-byte item

 RNG seed: -2008406377 -1901863938 -1781036040 -713059511 1967751193 -1768234829 -55586575 -721690968

       ***************************
       *  GEOMETRY OPTIMIZATION  *
       ***************************

FIRE optimizer config
       nMin:  5 steps
    dtStart:  0.2500 fs
      dtMax:  1.0000 fs
       fInc:  1.1000
       fDec:  0.5000
 alphaStart:  0.1000
     fAlpha:  0.9900
 Opt. latt.:  F
Convergence criteria:
       Energy:  0.000010 Ha per atom
    Gradients:  0.001000 Ha/Angstrom
         Step:  0.010000 Angstrom
Stress energy:  0.000500 Ha per atom
 
--------
Geometry
--------
Formula: HAtOSe81
Atoms
  Index Symbol   x (angstrom)   y (angstrom)   z (angstrom)
      1     Se     2.83112730     4.55287094     5.75986012       ForceField.Type=Se3+2 ForceField.Charge=0.0
      2     Se     1.22246559     4.45310359     6.99764400       ForceField.Type=Se3+2 ForceField.Charge=0.0
      3     Se     3.32586171     8.04737384     3.66583034       ForceField.Type=Se3+2 ForceField.Charge=0.0
      4     Se    -2.42998336    -3.98765980    -1.82418559       ForceField.Type=Se3+2 ForceField.Charge=0.0
      5     Se    -4.04057510    -3.01648735    -1.05678861       ForceField.Type=Se3+2 ForceField.Charge=0.0
      6     Se    -1.52790606    -0.30374675    -3.36189266       ForceField.Type=Se3+2 ForceField.Charge=0.0
      7     Se    -1.31146311    -4.49870982     2.04396082       ForceField.Type=Se3+2 ForceField.Charge=0.0
      8     Se    -3.06446255    -3.87989455     2.86232355       ForceField.Type=Se3+2 ForceField.Charge=0.0
      9     Se    -1.18713417    -0.76848645     0.36398450       ForceField.Type=Se3+2 ForceField.Charge=0.0
     10     Se    -0.03092609    -4.80738001     5.86965565       ForceField.Type=Se3+2 ForceField.Charge=0.0
     11     Se    -1.36275724    -3.75862163     6.98814311       ForceField.Type=Se3+2 ForceField.Charge=0.0
     12     Se    -0.73360579    -1.05287541     4.09205769       ForceField.Type=Se3+2 ForceField.Charge=0.0
     13     Se    -5.26823229     1.07944223    -3.39775751       ForceField.Type=Se3+2 ForceField.Charge=0.0
     14     Se    -4.88664837     0.86135416    -1.41525430       ForceField.Type=Se3+2 ForceField.Charge=0.0
     15     Se    -3.16275958     4.71397361    -3.78957425       ForceField.Type=Se3+2 ForceField.Charge=0.0
     16     Se    -4.32005996     0.01373964     2.38401538       ForceField.Type=Se3+2 ForceField.Charge=0.0
     17     Se    -6.03869708    -1.04137064     2.14864518       ForceField.Type=Se3+2 ForceField.Charge=0.0
     18     Se    -3.43017354     4.15047822    -0.06767089       ForceField.Type=Se3+2 ForceField.Charge=0.0
     19     Se    -4.06419180    -0.87948028     6.18658634       ForceField.Type=Se3+2 ForceField.Charge=0.0
     20     Se    -3.80491152     0.60823517     7.54456143       ForceField.Type=Se3+2 ForceField.Charge=0.0
     21     Se    -3.54123157     3.52142320     3.62794822       ForceField.Type=Se3+2 ForceField.Charge=0.0
     22     Se    -6.93759844     4.56063822    -2.30344550       ForceField.Type=Se3+2 ForceField.Charge=0.0
     23     Se    -6.28904561     6.44378980    -1.90599052       ForceField.Type=Se3+2 ForceField.Charge=0.0
     24     Se    -2.97951068     8.73660814    -2.90245583       ForceField.Type=Se3+2 ForceField.Charge=0.0
     25     Se    -6.95517053     3.04936696     1.40374291       ForceField.Type=Se3+2 ForceField.Charge=0.0
     26     Se    -6.82015762     5.00544920     1.93467829       ForceField.Type=Se3+2 ForceField.Charge=0.0
     27     Se    -4.04840977     8.11269160     0.98531826       ForceField.Type=Se3+2 ForceField.Charge=0.0
     28     Se    -6.90336611     1.80584412     5.16486752       ForceField.Type=Se3+2 ForceField.Charge=0.0
     29     Se    -6.76408937     3.67893469     5.93793059       ForceField.Type=Se3+2 ForceField.Charge=0.0
     30     Se    -4.91931771     7.29909721     4.82085471       ForceField.Type=Se3+2 ForceField.Charge=0.0
     31     Se     1.56189493    -4.75267073    -2.59351632       ForceField.Type=Se3+2 ForceField.Charge=0.0
     32     Se     1.65195335    -4.01397600    -0.70430265       ForceField.Type=Se3+2 ForceField.Charge=0.0
     33     Se     4.04603023    -1.62372163    -3.02708172       ForceField.Type=Se3+2 ForceField.Charge=0.0
     34     Se     2.66558349    -5.72795154     2.83196305       ForceField.Type=Se3+2 ForceField.Charge=0.0
     35     Se     2.65082761    -3.71282117     3.08138892       ForceField.Type=Se3+2 ForceField.Charge=0.0
     36     Se     4.63401776    -1.26751260     0.68027542       ForceField.Type=Se3+2 ForceField.Charge=0.0
     37     Se     3.87423414    -3.53575074     6.82248220       ForceField.Type=Se3+2 ForceField.Charge=0.0
     38     Se     2.68477646    -2.75182762     8.27046994       ForceField.Type=Se3+2 ForceField.Charge=0.0
     39     Se     5.14276606    -0.64125552     4.39787037       ForceField.Type=Se3+2 ForceField.Charge=0.0
     40     Se     0.08993830    -0.84327574    -2.25710610       ForceField.Type=Se3+2 ForceField.Charge=0.0
     41     Se    -0.33234673     0.59302951    -0.88288829       ForceField.Type=Se3+2 ForceField.Charge=0.0
     42     Se     1.95451514     2.89121900    -2.94948055       ForceField.Type=Se3+2 ForceField.Charge=0.0
     43     Se     0.52078304    -0.90934933     1.46192135       ForceField.Type=Se3+2 ForceField.Charge=0.0
     44     Se    -0.17402591     0.43569851     2.82259177       ForceField.Type=Se3+2 ForceField.Charge=0.0
     45     Se     1.98070374     2.98478481     0.83278698       ForceField.Type=Se3+2 ForceField.Charge=0.0
     46     Se     0.98745859    -0.86356953     5.15896869       ForceField.Type=Se3+2 ForceField.Charge=0.0
     47     Se     0.03950210     0.23835656     6.57883875       ForceField.Type=Se3+2 ForceField.Charge=0.0
     48     Se     2.01815453     3.13905246     4.54629988       ForceField.Type=Se3+2 ForceField.Charge=0.0
     49     Se    -1.94447479     3.68685246    -2.52907646       ForceField.Type=Se3+2 ForceField.Charge=0.0
     50     Se    -2.04979779     5.18005130    -1.15161317       ForceField.Type=Se3+2 ForceField.Charge=0.0
     51     Se     0.76270006     7.13261757    -3.27142642       ForceField.Type=Se3+2 ForceField.Charge=0.0
     52     Se    -1.98687098     3.42699668     1.17125143       ForceField.Type=Se3+2 ForceField.Charge=0.0
     53     Se    -2.40799880     4.84168800     2.57250984       ForceField.Type=Se3+2 ForceField.Charge=0.0
     54     Se     0.10649534     7.75736928     0.98695754       ForceField.Type=Se3+2 ForceField.Charge=0.0
     55     Se    -1.98907179     3.10488075     4.87302906       ForceField.Type=Se3+2 ForceField.Charge=0.0
     56     Se    -2.75804937     4.32884345     6.30060879       ForceField.Type=Se3+2 ForceField.Charge=0.0
     57     Se    -0.63925224     7.50893119     5.01451415       ForceField.Type=Se3+2 ForceField.Charge=0.0
     58     Se     7.15009564    -3.82842148    -1.48248396       ForceField.Type=Se3+2 ForceField.Charge=0.0
     59     Se     5.52406602    -4.84714097    -0.81590957       ForceField.Type=Se3+2 ForceField.Charge=0.0
     60     Se     8.21890083    -0.93682707    -4.44275433       ForceField.Type=Se3+2 ForceField.Charge=0.0
     61     Se     7.89375299    -2.94536481     2.37349476       ForceField.Type=Se3+2 ForceField.Charge=0.0
     62     Se     6.53524388    -4.27935546     3.07971284       ForceField.Type=Se3+2 ForceField.Charge=0.0
     63     Se     8.85530748    -0.15828728    -0.42352663       ForceField.Type=Se3+2 ForceField.Charge=0.0
     64     Se     8.03952678    -2.48920344     6.39577872       ForceField.Type=Se3+2 ForceField.Charge=0.0
     65     Se     7.32487644    -1.47696437     8.00498793       ForceField.Type=Se3+2 ForceField.Charge=0.0
     66     Se     9.05625084     0.73747345     3.60300826       ForceField.Type=Se3+2 ForceField.Charge=0.0
     67     Se     5.14671713    -0.25662435    -2.00414867       ForceField.Type=Se3+2 ForceField.Charge=0.0
     68     Se     3.66492180    -0.04748787    -0.62917936       ForceField.Type=Se3+2 ForceField.Charge=0.0
     69     Se     6.03262613     2.71001510    -4.40433357       ForceField.Type=Se3+2 ForceField.Charge=0.0
     70     Se     5.41465830     0.33371691     1.66543442       ForceField.Type=Se3+2 ForceField.Charge=0.0
     71     Se     3.92317688     0.26786989     3.04714260       ForceField.Type=Se3+2 ForceField.Charge=0.0
     72     Se     6.85157821     3.43693759    -0.26581635       ForceField.Type=Se3+2 ForceField.Charge=0.0
     73     Se     5.51397743     1.13162609     5.32598255       ForceField.Type=Se3+2 ForceField.Charge=0.0
     74     Se     4.16968968     0.69909481     6.78814678       ForceField.Type=Se3+2 ForceField.Charge=0.0
     75     Se     6.55834177     4.54781177     3.68337404       ForceField.Type=Se3+2 ForceField.Charge=0.0
     76     Se     3.25120526     3.77881039    -1.66084207       ForceField.Type=Se3+2 ForceField.Charge=0.0
     77     Se     1.71228196     4.47320800    -0.52717125       ForceField.Type=Se3+2 ForceField.Charge=0.0
     78     Se     4.72596197     6.62086216    -4.15006560       ForceField.Type=Se3+2 ForceField.Charge=0.0
     79     Se     3.04706664     4.21839651     2.04802124       ForceField.Type=Se3+2 ForceField.Charge=0.0
     80     Se     1.41337888     4.55385609     3.21494342       ForceField.Type=Se3+2 ForceField.Charge=0.0
     81     Se     4.83132033     7.15692528    -0.04018962       ForceField.Type=Se3+2 ForceField.Charge=0.0
     82     At     0.73635492    -1.95328874    -5.78118577       ForceField.Type=At ForceField.Charge=0.0
     83      O     2.79861516    -2.31279321    -6.24506945       ForceField.Type=O_2 ForceField.Charge=0.0
     84      H     3.15838348    -2.03760253    -7.09832283       ForceField.Type=H_ ForceField.Charge=0.0
 
Total System Charge             0.00000
Bonding info available!
 
 
------------------------
MM Engine configuration
------------------------
Force field type             UFF
 

Relaxing 252 nuclear degrees of freedom with FIRE.
 Rigid motions settings for: FIRE
 Atomic rotations (x,y,z):     T T T
 Atomic translations (x,y,z):  T T T
 Tolerance:                   1.000000000000000E-006
 
------------------------
UFF Engine configuration
------------------------
UFF Parameters file          general_db
UFF Elements file            elements_db
UFF MMAtomTypes file         mmatomtypes_db
 
  atom type UFF index
          1        55
          2       110
          3        19
          4         1
-----------------------
Assumed Input Structure
-----------------------
Atoms [Angstrom]
      Se       2.8311273028    4.5528709416    5.7598601175       Se3+2   0.000000000000
      Se       1.2224655888    4.4531035941    6.9976440004       Se3+2   0.000000000000
      Se       3.3258617136    8.0473738374    3.6658303377       Se3+2   0.000000000000
      Se      -2.4299833554   -3.9876597970   -1.8241855933       Se3+2   0.000000000000
      Se      -4.0405751002   -3.0164873459   -1.0567886132       Se3+2   0.000000000000
      Se      -1.5279060559   -0.3037467475   -3.3618926622       Se3+2   0.000000000000
      Se      -1.3114631083   -4.4987098234    2.0439608196       Se3+2   0.000000000000
      Se      -3.0644625459   -3.8798945497    2.8623235492       Se3+2   0.000000000000
      Se      -1.1871341722   -0.7684864473    0.3639844956       Se3+2   0.000000000000
      Se      -0.0309260893   -4.8073800131    5.8696556457       Se3+2   0.000000000000
      Se      -1.3627572386   -3.7586216279    6.9881431053       Se3+2   0.000000000000
      Se      -0.7336057876   -1.0528754058    4.0920576901       Se3+2   0.000000000000
      Se      -5.2682322867    1.0794422299   -3.3977575071       Se3+2   0.000000000000
      Se      -4.8866483727    0.8613541565   -1.4152543026       Se3+2   0.000000000000
      Se      -3.1627595759    4.7139736058   -3.7895742498       Se3+2   0.000000000000
      Se      -4.3200599637    0.0137396428    2.3840153756       Se3+2   0.000000000000
      Se      -6.0386970815   -1.0413706386    2.1486451822       Se3+2   0.000000000000
      Se      -3.4301735427    4.1504782166   -0.0676708922       Se3+2   0.000000000000
      Se      -4.0641917952   -0.8794802768    6.1865863389       Se3+2   0.000000000000
      Se      -3.8049115212    0.6082351708    7.5445614259       Se3+2   0.000000000000
      Se      -3.5412315659    3.5214231961    3.6279482208       Se3+2   0.000000000000
      Se      -6.9375984439    4.5606382197   -2.3034455017       Se3+2   0.000000000000
      Se      -6.2890456074    6.4437898040   -1.9059905156       Se3+2   0.000000000000
      Se      -2.9795106787    8.7366081438   -2.9024558328       Se3+2   0.000000000000
      Se      -6.9551705297    3.0493669571    1.4037429146       Se3+2   0.000000000000
      Se      -6.8201576181    5.0054492009    1.9346782896       Se3+2   0.000000000000
      Se      -4.0484097724    8.1126916045    0.9853182611       Se3+2   0.000000000000
      Se      -6.9033661061    1.8058441234    5.1648675163       Se3+2   0.000000000000
      Se      -6.7640893701    3.6789346880    5.9379305894       Se3+2   0.000000000000
      Se      -4.9193177087    7.2990972112    4.8208547089       Se3+2   0.000000000000
      Se       1.5618949309   -4.7526707298   -2.5935163210       Se3+2   0.000000000000
      Se       1.6519533528   -4.0139759995   -0.7043026495       Se3+2   0.000000000000
      Se       4.0460302347   -1.6237216291   -3.0270817209       Se3+2   0.000000000000
      Se       2.6655834947   -5.7279515357    2.8319630454       Se3+2   0.000000000000
      Se       2.6508276079   -3.7128211692    3.0813889174       Se3+2   0.000000000000
      Se       4.6340177553   -1.2675126020    0.6802754217       Se3+2   0.000000000000
      Se       3.8742341388   -3.5357507449    6.8224821988       Se3+2   0.000000000000
      Se       2.6847764622   -2.7518276196    8.2704699409       Se3+2   0.000000000000
      Se       5.1427660646   -0.6412555163    4.3978703689       Se3+2   0.000000000000
      Se       0.0899383021   -0.8432757427   -2.2571060984       Se3+2   0.000000000000
      Se      -0.3323467285    0.5930295079   -0.8828882887       Se3+2   0.000000000000
      Se       1.9545151364    2.8912190027   -2.9494805529       Se3+2   0.000000000000
      Se       0.5207830432   -0.9093493266    1.4619213549       Se3+2   0.000000000000
      Se      -0.1740259072    0.4356985126    2.8225917674       Se3+2   0.000000000000
      Se       1.9807037421    2.9847848050    0.8327869789       Se3+2   0.000000000000
      Se       0.9874585878   -0.8635695272    5.1589686927       Se3+2   0.000000000000
      Se       0.0395021004    0.2383565598    6.5788387466       Se3+2   0.000000000000
      Se       2.0181545312    3.1390524604    4.5462998754       Se3+2   0.000000000000
      Se      -1.9444747943    3.6868524627   -2.5290764642       Se3+2   0.000000000000
      Se      -2.0497977852    5.1800512986   -1.1516131658       Se3+2   0.000000000000
      Se       0.7627000550    7.1326175694   -3.2714264153       Se3+2   0.000000000000
      Se      -1.9868709785    3.4269966778    1.1712514316       Se3+2   0.000000000000
      Se      -2.4079988026    4.8416880037    2.5725098398       Se3+2   0.000000000000
      Se       0.1064953412    7.7573692769    0.9869575448       Se3+2   0.000000000000
      Se      -1.9890717916    3.1048807527    4.8730290605       Se3+2   0.000000000000
      Se      -2.7580493657    4.3288434462    6.3006087919       Se3+2   0.000000000000
      Se      -0.6392522403    7.5089311924    5.0145141467       Se3+2   0.000000000000
      Se       7.1500956427   -3.8284214782   -1.4824839613       Se3+2   0.000000000000
      Se       5.5240660172   -4.8471409723   -0.8159095749       Se3+2   0.000000000000
      Se       8.2189008322   -0.9368270749   -4.4427543295       Se3+2   0.000000000000
      Se       7.8937529904   -2.9453648100    2.3734947578       Se3+2   0.000000000000
      Se       6.5352438817   -4.2793554597    3.0797128416       Se3+2   0.000000000000
      Se       8.8553074769   -0.1582872776   -0.4235266345       Se3+2   0.000000000000
      Se       8.0395267790   -2.4892034429    6.3957787166       Se3+2   0.000000000000
      Se       7.3248764446   -1.4769643740    8.0049879274       Se3+2   0.000000000000
      Se       9.0562508377    0.7374734541    3.6030082614       Se3+2   0.000000000000
      Se       5.1467171315   -0.2566243470   -2.0041486653       Se3+2   0.000000000000
      Se       3.6649217999   -0.0474878745   -0.6291793629       Se3+2   0.000000000000
      Se       6.0326261275    2.7100150967   -4.4043335690       Se3+2   0.000000000000
      Se       5.4146582962    0.3337169134    1.6654344154       Se3+2   0.000000000000
      Se       3.9231768793    0.2678698950    3.0471425951       Se3+2   0.000000000000
      Se       6.8515782095    3.4369375934   -0.2658163539       Se3+2   0.000000000000
      Se       5.5139774323    1.1316260910    5.3259825525       Se3+2   0.000000000000
      Se       4.1696896769    0.6990948069    6.7881467787       Se3+2   0.000000000000
      Se       6.5583417677    4.5478117743    3.6833740368       Se3+2   0.000000000000
      Se       3.2512052645    3.7788103910   -1.6608420719       Se3+2   0.000000000000
      Se       1.7122819566    4.4732080022   -0.5271712499       Se3+2   0.000000000000
      Se       4.7259619680    6.6208621578   -4.1500655959       Se3+2   0.000000000000
      Se       3.0470666375    4.2183965085    2.0480212375       Se3+2   0.000000000000
      Se       1.4133788829    4.5538560861    3.2149434160       Se3+2   0.000000000000
      Se       4.8313203313    7.1569252814   -0.0401896156       Se3+2   0.000000000000
      At       0.7363549151   -1.9532887361   -5.7811857746          At   0.000000000000
      O        2.7986151641   -2.3127932093   -6.2450694453         O_2   0.000000000000
      H        3.1583834819   -2.0376025266   -7.0983228268          H_   0.000000000000
End

Bonds
    1      2    3.000000000000
    1     48    3.000000000000
    4      5    3.000000000000
    6     40    3.000000000000
    7      8    3.000000000000
    9     41    3.000000000000
    9     43    3.000000000000
   10     11    3.000000000000
   12     44    3.000000000000
   12     46    3.000000000000
   13     14    3.000000000000
   15     49    3.000000000000
   16     17    3.000000000000
   18     50    3.000000000000
   18     52    3.000000000000
   19     20    3.000000000000
   21     53    3.000000000000
   21     55    3.000000000000
   22     23    3.000000000000
   25     26    3.000000000000
   28     29    3.000000000000
   31     32    3.000000000000
   33     67    3.000000000000
   34     35    3.000000000000
   36     68    3.000000000000
   36     70    3.000000000000
   37     38    3.000000000000
   39     71    3.000000000000
   39     73    3.000000000000
   40     41    3.000000000000
   42     76    3.000000000000
   43     44    3.000000000000
   45     77    3.000000000000
   45     79    3.000000000000
   46     47    3.000000000000
   48     80    3.000000000000
   49     50    3.000000000000
   52     53    3.000000000000
   55     56    3.000000000000
   58     59    3.000000000000
   61     62    3.000000000000
   64     65    3.000000000000
   67     68    3.000000000000
   70     71    3.000000000000
   73     74    3.000000000000
   76     77    3.000000000000
   79     80    3.000000000000
   82     83    1.000000000000
   83     84    1.000000000000
End


Geometry at FIRE step 1:
 
--------
Geometry
--------
Formula: HAtOSe81
Atoms
  Index Symbol   x (angstrom)   y (angstrom)   z (angstrom)
      1     Se     2.83112888     4.55286982     5.75985920       ForceField.Type=Se3+2 ForceField.Charge=0.0
      2     Se     1.22246753     4.45310391     6.99764364       ForceField.Type=Se3+2 ForceField.Charge=0.0
      3     Se     3.32586346     8.04737257     3.66583059       ForceField.Type=Se3+2 ForceField.Charge=0.0
      4     Se    -2.42998454    -3.98765972    -1.82418426       ForceField.Type=Se3+2 ForceField.Charge=0.0
      5     Se    -4.04057677    -3.01648782    -1.05678777       ForceField.Type=Se3+2 ForceField.Charge=0.0
      6     Se    -1.52795154    -0.30371317    -3.36184135       ForceField.Type=Se3+2 ForceField.Charge=0.0
      7     Se    -1.31146329    -4.49870960     2.04396095       ForceField.Type=Se3+2 ForceField.Charge=0.0
      8     Se    -3.06446292    -3.87989528     2.86232398       ForceField.Type=Se3+2 ForceField.Charge=0.0
      9     Se    -1.18713586    -0.76848585     0.36398785       ForceField.Type=Se3+2 ForceField.Charge=0.0
     10     Se    -0.03092558    -4.80737918     5.86965591       ForceField.Type=Se3+2 ForceField.Charge=0.0
     11     Se    -1.36275529    -3.75862023     6.98814454       ForceField.Type=Se3+2 ForceField.Charge=0.0
     12     Se    -0.73360581    -1.05287369     4.09205671       ForceField.Type=Se3+2 ForceField.Charge=0.0
     13     Se    -5.26823110     1.07944312    -3.39775617       ForceField.Type=Se3+2 ForceField.Charge=0.0
     14     Se    -4.88664591     0.86135496    -1.41525333       ForceField.Type=Se3+2 ForceField.Charge=0.0
     15     Se    -3.16276033     4.71397374    -3.78957298       ForceField.Type=Se3+2 ForceField.Charge=0.0
     16     Se    -4.32005911     0.01374047     2.38401673       ForceField.Type=Se3+2 ForceField.Charge=0.0
     17     Se    -6.03869644    -1.04136965     2.14864665       ForceField.Type=Se3+2 ForceField.Charge=0.0
     18     Se    -3.43017341     4.15047841    -0.06766994       ForceField.Type=Se3+2 ForceField.Charge=0.0
     19     Se    -4.06419110    -0.87948016     6.18658736       ForceField.Type=Se3+2 ForceField.Charge=0.0
     20     Se    -3.80491133     0.60823593     7.54456181       ForceField.Type=Se3+2 ForceField.Charge=0.0
     21     Se    -3.54123109     3.52142355     3.62794937       ForceField.Type=Se3+2 ForceField.Charge=0.0
     22     Se    -6.93759823     4.56063878    -2.30344366       ForceField.Type=Se3+2 ForceField.Charge=0.0
     23     Se    -6.28904566     6.44379022    -1.90598762       ForceField.Type=Se3+2 ForceField.Charge=0.0
     24     Se    -2.97951068     8.73660836    -2.90245460       ForceField.Type=Se3+2 ForceField.Charge=0.0
     25     Se    -6.95516961     3.04936756     1.40374447       ForceField.Type=Se3+2 ForceField.Charge=0.0
     26     Se    -6.82015688     5.00544962     1.93468055       ForceField.Type=Se3+2 ForceField.Charge=0.0
     27     Se    -4.04840761     8.11269251     0.98532010       ForceField.Type=Se3+2 ForceField.Charge=0.0
     28     Se    -6.90336526     1.80584461     5.16486907       ForceField.Type=Se3+2 ForceField.Charge=0.0
     29     Se    -6.76408838     3.67893511     5.93793225       ForceField.Type=Se3+2 ForceField.Charge=0.0
     30     Se    -4.91931751     7.29909785     4.82085587       ForceField.Type=Se3+2 ForceField.Charge=0.0
     31     Se     1.56189371    -4.75267197    -2.59351604       ForceField.Type=Se3+2 ForceField.Charge=0.0
     32     Se     1.65195097    -4.01397542    -0.70430273       ForceField.Type=Se3+2 ForceField.Charge=0.0
     33     Se     4.04603193    -1.62372003    -3.02707994       ForceField.Type=Se3+2 ForceField.Charge=0.0
     34     Se     2.66558405    -5.72795091     2.83196270       ForceField.Type=Se3+2 ForceField.Charge=0.0
     35     Se     2.65082778    -3.71282051     3.08138834       ForceField.Type=Se3+2 ForceField.Charge=0.0
     36     Se     4.63401911    -1.26751591     0.68027713       ForceField.Type=Se3+2 ForceField.Charge=0.0
     37     Se     3.87423562    -3.53575094     6.82248086       ForceField.Type=Se3+2 ForceField.Charge=0.0
     38     Se     2.68477774    -2.75182731     8.27046817       ForceField.Type=Se3+2 ForceField.Charge=0.0
     39     Se     5.14276405    -0.64125743     4.39787092       ForceField.Type=Se3+2 ForceField.Charge=0.0
     40     Se     0.08992300    -0.84325840    -2.25704937       ForceField.Type=Se3+2 ForceField.Charge=0.0
     41     Se    -0.33234896     0.59303070    -0.88288551       ForceField.Type=Se3+2 ForceField.Charge=0.0
     42     Se     1.95451478     2.89121874    -2.94948147       ForceField.Type=Se3+2 ForceField.Charge=0.0
     43     Se     0.52078394    -0.90935049     1.46192165       ForceField.Type=Se3+2 ForceField.Charge=0.0
     44     Se    -0.17402612     0.43569918     2.82259239       ForceField.Type=Se3+2 ForceField.Charge=0.0
     45     Se     1.98070350     2.98478429     0.83278699       ForceField.Type=Se3+2 ForceField.Charge=0.0
     46     Se     0.98745982    -0.86356914     5.15896564       ForceField.Type=Se3+2 ForceField.Charge=0.0
     47     Se     0.03950076     0.23835525     6.57883500       ForceField.Type=Se3+2 ForceField.Charge=0.0
     48     Se     2.01815474     3.13905177     4.54629953       ForceField.Type=Se3+2 ForceField.Charge=0.0
     49     Se    -1.94447527     3.68685228    -2.52907573       ForceField.Type=Se3+2 ForceField.Charge=0.0
     50     Se    -2.04979761     5.18005139    -1.15161238       ForceField.Type=Se3+2 ForceField.Charge=0.0
     51     Se     0.76269923     7.13261520    -3.27142715       ForceField.Type=Se3+2 ForceField.Charge=0.0
     52     Se    -1.98687068     3.42699692     1.17125234       ForceField.Type=Se3+2 ForceField.Charge=0.0
     53     Se    -2.40799832     4.84168835     2.57251050       ForceField.Type=Se3+2 ForceField.Charge=0.0
     54     Se     0.10649752     7.75736862     0.98695727       ForceField.Type=Se3+2 ForceField.Charge=0.0
     55     Se    -1.98907101     3.10488121     4.87302970       ForceField.Type=Se3+2 ForceField.Charge=0.0
     56     Se    -2.75804774     4.32884433     6.30060936       ForceField.Type=Se3+2 ForceField.Charge=0.0
     57     Se    -0.63925089     7.50893210     5.01451362       ForceField.Type=Se3+2 ForceField.Charge=0.0
     58     Se     7.15009277    -3.82842016    -1.48248562       ForceField.Type=Se3+2 ForceField.Charge=0.0
     59     Se     5.52406502    -4.84714168    -0.81590983       ForceField.Type=Se3+2 ForceField.Charge=0.0
     60     Se     8.21889819    -0.93682935    -4.44275642       ForceField.Type=Se3+2 ForceField.Charge=0.0
     61     Se     7.89375294    -2.94536520     2.37349284       ForceField.Type=Se3+2 ForceField.Charge=0.0
     62     Se     6.53524355    -4.27935474     3.07971235       ForceField.Type=Se3+2 ForceField.Charge=0.0
     63     Se     8.85530607    -0.15828849    -0.42352926       ForceField.Type=Se3+2 ForceField.Charge=0.0
     64     Se     8.03952830    -2.48920287     6.39577837       ForceField.Type=Se3+2 ForceField.Charge=0.0
     65     Se     7.32487568    -1.47696464     8.00498704       ForceField.Type=Se3+2 ForceField.Charge=0.0
     66     Se     9.05625021     0.73747451     3.60300625       ForceField.Type=Se3+2 ForceField.Charge=0.0
     67     Se     5.14671605    -0.25662439    -2.00414296       ForceField.Type=Se3+2 ForceField.Charge=0.0
     68     Se     3.66492197    -0.04749064    -0.62918458       ForceField.Type=Se3+2 ForceField.Charge=0.0
     69     Se     6.03262541     2.71001504    -4.40433588       ForceField.Type=Se3+2 ForceField.Charge=0.0
     70     Se     5.41465536     0.33372180     1.66543472       ForceField.Type=Se3+2 ForceField.Charge=0.0
     71     Se     3.92317846     0.26787301     3.04714231       ForceField.Type=Se3+2 ForceField.Charge=0.0
     72     Se     6.85157868     3.43693656    -0.26581735       ForceField.Type=Se3+2 ForceField.Charge=0.0
     73     Se     5.51397810     1.13162578     5.32597739       ForceField.Type=Se3+2 ForceField.Charge=0.0
     74     Se     4.16969153     0.69909035     6.78814000       ForceField.Type=Se3+2 ForceField.Charge=0.0
     75     Se     6.55834318     4.54781218     3.68337200       ForceField.Type=Se3+2 ForceField.Charge=0.0
     76     Se     3.25120521     3.77881003    -1.66084262       ForceField.Type=Se3+2 ForceField.Charge=0.0
     77     Se     1.71228245     4.47320807    -0.52717135       ForceField.Type=Se3+2 ForceField.Charge=0.0
     78     Se     4.72596116     6.62086004    -4.15006550       ForceField.Type=Se3+2 ForceField.Charge=0.0
     79     Se     3.04706748     4.21839549     2.04802107       ForceField.Type=Se3+2 ForceField.Charge=0.0
     80     Se     1.41338004     4.55385609     3.21494348       ForceField.Type=Se3+2 ForceField.Charge=0.0
     81     Se     4.83131912     7.15692418    -0.04018997       ForceField.Type=Se3+2 ForceField.Charge=0.0
     82     At     0.73640377    -1.95333740    -5.78129116       ForceField.Type=At ForceField.Charge=0.0
     83      O     2.79861526    -2.31279808    -6.24506758       ForceField.Type=O_2 ForceField.Charge=0.0
     84      H     3.15838266    -2.03760035    -7.09832754       ForceField.Type=H_ ForceField.Charge=0.0
 
Total System Charge             0.00000
Bonding info available!
 

Geometry at FIRE step 2:
 
--------
Geometry
--------
Formula: HAtOSe81
Atoms
  Index Symbol   x (angstrom)   y (angstrom)   z (angstrom)
      1     Se     2.83113358     4.55286644     5.75985648       ForceField.Type=Se3+2 ForceField.Charge=0.0
      2     Se     1.22247330     4.45310486     6.99764254       ForceField.Type=Se3+2 ForceField.Charge=0.0
      3     Se     3.32586867     8.04736875     3.66583136       ForceField.Type=Se3+2 ForceField.Charge=0.0
      4     Se    -2.42998808    -3.98765950    -1.82418027       ForceField.Type=Se3+2 ForceField.Charge=0.0
      5     Se    -4.04058176    -3.01648927    -1.05678525       ForceField.Type=Se3+2 ForceField.Charge=0.0
      6     Se    -1.52808745    -0.30361267    -3.36168727       ForceField.Type=Se3+2 ForceField.Charge=0.0
      7     Se    -1.31146384    -4.49870892     2.04396133       ForceField.Type=Se3+2 ForceField.Charge=0.0
      8     Se    -3.06446404    -3.87989750     2.86232524       ForceField.Type=Se3+2 ForceField.Charge=0.0
      9     Se    -1.18714091    -0.76848404     0.36399792       ForceField.Type=Se3+2 ForceField.Charge=0.0
     10     Se    -0.03092407    -4.80737670     5.86965669       ForceField.Type=Se3+2 ForceField.Charge=0.0
     11     Se    -1.36274945    -3.75861605     6.98814883       ForceField.Type=Se3+2 ForceField.Charge=0.0
     12     Se    -0.73360588    -1.05286857     4.09205376       ForceField.Type=Se3+2 ForceField.Charge=0.0
     13     Se    -5.26822751     1.07944577    -3.39775220       ForceField.Type=Se3+2 ForceField.Charge=0.0
     14     Se    -4.88663853     0.86135736    -1.41525044       ForceField.Type=Se3+2 ForceField.Charge=0.0
     15     Se    -3.16276259     4.71397414    -3.78956919       ForceField.Type=Se3+2 ForceField.Charge=0.0
     16     Se    -4.32005654     0.01374293     2.38402076       ForceField.Type=Se3+2 ForceField.Charge=0.0
     17     Se    -6.03869451    -1.04136669     2.14865102       ForceField.Type=Se3+2 ForceField.Charge=0.0
     18     Se    -3.43017301     4.15047896    -0.06766712       ForceField.Type=Se3+2 ForceField.Charge=0.0
     19     Se    -4.06418903    -0.87947983     6.18659041       ForceField.Type=Se3+2 ForceField.Charge=0.0
     20     Se    -3.80491079     0.60823819     7.54456294       ForceField.Type=Se3+2 ForceField.Charge=0.0
     21     Se    -3.54122968     3.52142460     3.62795278       ForceField.Type=Se3+2 ForceField.Charge=0.0
     22     Se    -6.93759756     4.56064043    -2.30343817       ForceField.Type=Se3+2 ForceField.Charge=0.0
     23     Se    -6.28904583     6.44379145    -1.90597896       ForceField.Type=Se3+2 ForceField.Charge=0.0
     24     Se    -2.97951068     8.73660901    -2.90245092       ForceField.Type=Se3+2 ForceField.Charge=0.0
     25     Se    -6.95516685     3.04936935     1.40374909       ForceField.Type=Se3+2 ForceField.Charge=0.0
     26     Se    -6.82015468     5.00545087     1.93468731       ForceField.Type=Se3+2 ForceField.Charge=0.0
     27     Se    -4.04840113     8.11269521     0.98532561       ForceField.Type=Se3+2 ForceField.Charge=0.0
     28     Se    -6.90336276     1.80584605     5.16487370       ForceField.Type=Se3+2 ForceField.Charge=0.0
     29     Se    -6.76408542     3.67893637     5.93793718       ForceField.Type=Se3+2 ForceField.Charge=0.0
     30     Se    -4.91931695     7.29909977     4.82085933       ForceField.Type=Se3+2 ForceField.Charge=0.0
     31     Se     1.56189008    -4.75267568    -2.59351519       ForceField.Type=Se3+2 ForceField.Charge=0.0
     32     Se     1.65194384    -4.01397367    -0.70430299       ForceField.Type=Se3+2 ForceField.Charge=0.0
     33     Se     4.04603706    -1.62371524    -3.02707458       ForceField.Type=Se3+2 ForceField.Charge=0.0
     34     Se     2.66558572    -5.72794903     2.83196167       ForceField.Type=Se3+2 ForceField.Charge=0.0
     35     Se     2.65082831    -3.71281853     3.08138660       ForceField.Type=Se3+2 ForceField.Charge=0.0
     36     Se     4.63402315    -1.26752570     0.68028224       ForceField.Type=Se3+2 ForceField.Charge=0.0
     37     Se     3.87424005    -3.53575151     6.82247687       ForceField.Type=Se3+2 ForceField.Charge=0.0
     38     Se     2.68478156    -2.75182639     8.27046286       ForceField.Type=Se3+2 ForceField.Charge=0.0
     39     Se     5.14275799    -0.64126312     4.39787255       ForceField.Type=Se3+2 ForceField.Charge=0.0
     40     Se     0.08987686    -0.84320674    -2.25688015       ForceField.Type=Se3+2 ForceField.Charge=0.0
     41     Se    -0.33235577     0.59303477    -0.88287657       ForceField.Type=Se3+2 ForceField.Charge=0.0
     42     Se     1.95451375     2.89121798    -2.94948420       ForceField.Type=Se3+2 ForceField.Charge=0.0
     43     Se     0.52078662    -0.90935396     1.46192255       ForceField.Type=Se3+2 ForceField.Charge=0.0
     44     Se    -0.17402676     0.43570116     2.82259422       ForceField.Type=Se3+2 ForceField.Charge=0.0
     45     Se     1.98070278     2.98478274     0.83278701       ForceField.Type=Se3+2 ForceField.Charge=0.0
     46     Se     0.98746347    -0.86356800     5.15895647       ForceField.Type=Se3+2 ForceField.Charge=0.0
     47     Se     0.03949673     0.23835131     6.57882378       ForceField.Type=Se3+2 ForceField.Charge=0.0
     48     Se     2.01815536     3.13904971     4.54629849       ForceField.Type=Se3+2 ForceField.Charge=0.0
     49     Se    -1.94447667     3.68685174    -2.52907355       ForceField.Type=Se3+2 ForceField.Charge=0.0
     50     Se    -2.04979709     5.18005166    -1.15161002       ForceField.Type=Se3+2 ForceField.Charge=0.0
     51     Se     0.76269678     7.13260809    -3.27142934       ForceField.Type=Se3+2 ForceField.Charge=0.0
     52     Se    -1.98686980     3.42699765     1.17125505       ForceField.Type=Se3+2 ForceField.Charge=0.0
     53     Se    -2.40799688     4.84168937     2.57251246       ForceField.Type=Se3+2 ForceField.Charge=0.0
     54     Se     0.10650405     7.75736665     0.98695644       ForceField.Type=Se3+2 ForceField.Charge=0.0
     55     Se    -1.98906869     3.10488258     4.87303161       ForceField.Type=Se3+2 ForceField.Charge=0.0
     56     Se    -2.75804288     4.32884695     6.30061104       ForceField.Type=Se3+2 ForceField.Charge=0.0
     57     Se    -0.63924689     7.50893480     5.01451204       ForceField.Type=Se3+2 ForceField.Charge=0.0
     58     Se     7.15008420    -3.82841619    -1.48249058       ForceField.Type=Se3+2 ForceField.Charge=0.0
     59     Se     5.52406207    -4.84714378    -0.81591058       ForceField.Type=Se3+2 ForceField.Charge=0.0
     60     Se     8.21889031    -0.93683617    -4.44276266       ForceField.Type=Se3+2 ForceField.Charge=0.0
     61     Se     7.89375278    -2.94536634     2.37348711       ForceField.Type=Se3+2 ForceField.Charge=0.0
     62     Se     6.53524256    -4.27935258     3.07971090       ForceField.Type=Se3+2 ForceField.Charge=0.0
     63     Se     8.85530186    -0.15829211    -0.42353711       ForceField.Type=Se3+2 ForceField.Charge=0.0
     64     Se     8.03953285    -2.48920114     6.39577738       ForceField.Type=Se3+2 ForceField.Charge=0.0
     65     Se     7.32487336    -1.47696542     8.00498440       ForceField.Type=Se3+2 ForceField.Charge=0.0
     66     Se     9.05624830     0.73747769     3.60300025       ForceField.Type=Se3+2 ForceField.Charge=0.0
     67     Se     5.14671295    -0.25662451    -2.00412592       ForceField.Type=Se3+2 ForceField.Charge=0.0
     68     Se     3.66492243    -0.04749898    -0.62920005       ForceField.Type=Se3+2 ForceField.Charge=0.0
     69     Se     6.03262328     2.71001490    -4.40434279       ForceField.Type=Se3+2 ForceField.Charge=0.0
     70     Se     5.41464660     0.33373642     1.66543559       ForceField.Type=Se3+2 ForceField.Charge=0.0
     71     Se     3.92318315     0.26788235     3.04714150       ForceField.Type=Se3+2 ForceField.Charge=0.0
     72     Se     6.85158010     3.43693347    -0.26582032       ForceField.Type=Se3+2 ForceField.Charge=0.0
     73     Se     5.51398011     1.13162484     5.32596193       ForceField.Type=Se3+2 ForceField.Charge=0.0
     74     Se     4.16969704     0.69907700     6.78811969       ForceField.Type=Se3+2 ForceField.Charge=0.0
     75     Se     6.55834741     4.54781339     3.68336593       ForceField.Type=Se3+2 ForceField.Charge=0.0
     76     Se     3.25120507     3.77880896    -1.66084426       ForceField.Type=Se3+2 ForceField.Charge=0.0
     77     Se     1.71228392     4.47320828    -0.52717165       ForceField.Type=Se3+2 ForceField.Charge=0.0
     78     Se     4.72595876     6.62085369    -4.15006521       ForceField.Type=Se3+2 ForceField.Charge=0.0
     79     Se     3.04707000     4.21839242     2.04802056       ForceField.Type=Se3+2 ForceField.Charge=0.0
     80     Se     1.41338349     4.55385609     3.21494368       ForceField.Type=Se3+2 ForceField.Charge=0.0
     81     Se     4.83131549     7.15692087    -0.04019099       ForceField.Type=Se3+2 ForceField.Charge=0.0
     82     At     0.73654958    -1.95348320    -5.78160698       ForceField.Type=At ForceField.Charge=0.0
     83      O     2.79861634    -2.31281270    -6.24506237       ForceField.Type=O_2 ForceField.Charge=0.0
     84      H     3.15838020    -2.03759388    -7.09834145       ForceField.Type=H_ ForceField.Charge=0.0
 
Total System Charge             0.00000
Bonding info available!
 

Geometry at FIRE step 3:
 
--------
Geometry
--------
Formula: HAtOSe81
Atoms
  Index Symbol   x (angstrom)   y (angstrom)   z (angstrom)
      1     Se     2.83114131     4.55286082     5.75985199       ForceField.Type=Se3+2 ForceField.Charge=0.0
      2     Se     1.22248280     4.45310643     6.99764074       ForceField.Type=Se3+2 ForceField.Charge=0.0
      3     Se     3.32587726     8.04736242     3.66583271       ForceField.Type=Se3+2 ForceField.Charge=0.0
      4     Se    -2.42999388    -3.98765916    -1.82417369       ForceField.Type=Se3+2 ForceField.Charge=0.0
      5     Se    -4.04059000    -3.01649172    -1.05678116       ForceField.Type=Se3+2 ForceField.Charge=0.0
      6     Se    -1.52831214    -0.30344596    -3.36142985       ForceField.Type=Se3+2 ForceField.Charge=0.0
      7     Se    -1.31146472    -4.49870781     2.04396192       ForceField.Type=Se3+2 ForceField.Charge=0.0
      8     Se    -3.06446589    -3.87990122     2.86232728       ForceField.Type=Se3+2 ForceField.Charge=0.0
      9     Se    -1.18714926    -0.76848090     0.36401482       ForceField.Type=Se3+2 ForceField.Charge=0.0
     10     Se    -0.03092158    -4.80737258     5.86965796       ForceField.Type=Se3+2 ForceField.Charge=0.0
     11     Se    -1.36273979    -3.75860911     6.98815593       ForceField.Type=Se3+2 ForceField.Charge=0.0
     12     Se    -0.73360604    -1.05286015     4.09204886       ForceField.Type=Se3+2 ForceField.Charge=0.0
     13     Se    -5.26822147     1.07945017    -3.39774569       ForceField.Type=Se3+2 ForceField.Charge=0.0
     14     Se    -4.88662617     0.86136133    -1.41524572       ForceField.Type=Se3+2 ForceField.Charge=0.0
     15     Se    -3.16276628     4.71397478    -3.78956295       ForceField.Type=Se3+2 ForceField.Charge=0.0
     16     Se    -4.32005228     0.01374700     2.38402739       ForceField.Type=Se3+2 ForceField.Charge=0.0
     17     Se    -6.03869129    -1.04136181     2.14865817       ForceField.Type=Se3+2 ForceField.Charge=0.0
     18     Se    -3.43017234     4.15047987    -0.06766249       ForceField.Type=Se3+2 ForceField.Charge=0.0
     19     Se    -4.06418565    -0.87947933     6.18659539       ForceField.Type=Se3+2 ForceField.Charge=0.0
     20     Se    -3.80491000     0.60824191     7.54456473       ForceField.Type=Se3+2 ForceField.Charge=0.0
     21     Se    -3.54122739     3.52142632     3.62795839       ForceField.Type=Se3+2 ForceField.Charge=0.0
     22     Se    -6.93759642     4.56064313    -2.30342915       ForceField.Type=Se3+2 ForceField.Charge=0.0
     23     Se    -6.28904609     6.44379346    -1.90596466       ForceField.Type=Se3+2 ForceField.Charge=0.0
     24     Se    -2.97951066     8.73661007    -2.90244483       ForceField.Type=Se3+2 ForceField.Charge=0.0
     25     Se    -6.95516227     3.04937226     1.40375666       ForceField.Type=Se3+2 ForceField.Charge=0.0
     26     Se    -6.82015105     5.00545289     1.93469844       ForceField.Type=Se3+2 ForceField.Charge=0.0
     27     Se    -4.04839038     8.11269967     0.98533471       ForceField.Type=Se3+2 ForceField.Charge=0.0
     28     Se    -6.90335866     1.80584838     5.16488127       ForceField.Type=Se3+2 ForceField.Charge=0.0
     29     Se    -6.76408060     3.67893839     5.93794527       ForceField.Type=Se3+2 ForceField.Charge=0.0
     30     Se    -4.91931613     7.29910291     4.82086501       ForceField.Type=Se3+2 ForceField.Charge=0.0
     31     Se     1.56188414    -4.75268185    -2.59351375       ForceField.Type=Se3+2 ForceField.Charge=0.0
     32     Se     1.65193203    -4.01397076    -0.70430341       ForceField.Type=Se3+2 ForceField.Charge=0.0
     33     Se     4.04604569    -1.62370725    -3.02706561       ForceField.Type=Se3+2 ForceField.Charge=0.0
     34     Se     2.66558854    -5.72794587     2.83195997       ForceField.Type=Se3+2 ForceField.Charge=0.0
     35     Se     2.65082920    -3.71281523     3.08138373       ForceField.Type=Se3+2 ForceField.Charge=0.0
     36     Se     4.63402985    -1.26754155     0.68029075       ForceField.Type=Se3+2 ForceField.Charge=0.0
     37     Se     3.87424737    -3.53575246     6.82247026       ForceField.Type=Se3+2 ForceField.Charge=0.0
     38     Se     2.68478783    -2.75182484     8.27045403       ForceField.Type=Se3+2 ForceField.Charge=0.0
     39     Se     5.14274789    -0.64127251     4.39787521       ForceField.Type=Se3+2 ForceField.Charge=0.0
     40     Se     0.08979905    -0.84312200    -2.25660150       ForceField.Type=Se3+2 ForceField.Charge=0.0
     41     Se    -0.33236761     0.59304332    -0.88285954       ForceField.Type=Se3+2 ForceField.Charge=0.0
     42     Se     1.95451210     2.89121672    -2.94948872       ForceField.Type=Se3+2 ForceField.Charge=0.0
     43     Se     0.52079098    -0.90935964     1.46192414       ForceField.Type=Se3+2 ForceField.Charge=0.0
     44     Se    -0.17402774     0.43570444     2.82259713       ForceField.Type=Se3+2 ForceField.Charge=0.0
     45     Se     1.98070157     2.98478020     0.83278707       ForceField.Type=Se3+2 ForceField.Charge=0.0
     46     Se     0.98746946    -0.86356607     5.15894120       ForceField.Type=Se3+2 ForceField.Charge=0.0
     47     Se     0.03948995     0.23834475     6.57880507       ForceField.Type=Se3+2 ForceField.Charge=0.0
     48     Se     2.01815631     3.13904628     4.54629678       ForceField.Type=Se3+2 ForceField.Charge=0.0
     49     Se    -1.94447896     3.68685085    -2.52906996       ForceField.Type=Se3+2 ForceField.Charge=0.0
     50     Se    -2.04979622     5.18005207    -1.15160615       ForceField.Type=Se3+2 ForceField.Charge=0.0
     51     Se     0.76269272     7.13259624    -3.27143300       ForceField.Type=Se3+2 ForceField.Charge=0.0
     52     Se    -1.98686834     3.42699884     1.17125950       ForceField.Type=Se3+2 ForceField.Charge=0.0
     53     Se    -2.40799456     4.84169104     2.57251568       ForceField.Type=Se3+2 ForceField.Charge=0.0
     54     Se     0.10651490     7.75736336     0.98695506       ForceField.Type=Se3+2 ForceField.Charge=0.0
     55     Se    -1.98906490     3.10488483     4.87303474       ForceField.Type=Se3+2 ForceField.Charge=0.0
     56     Se    -2.75803490     4.32885131     6.30061380       ForceField.Type=Se3+2 ForceField.Charge=0.0
     57     Se    -0.63924033     7.50893929     5.01450939       ForceField.Type=Se3+2 ForceField.Charge=0.0
     58     Se     7.15006999    -3.82840951    -1.48249872       ForceField.Type=Se3+2 ForceField.Charge=0.0
     59     Se     5.52405723    -4.84714725    -0.81591175       ForceField.Type=Se3+2 ForceField.Charge=0.0
     60     Se     8.21887730    -0.93684746    -4.44277294       ForceField.Type=Se3+2 ForceField.Charge=0.0
     61     Se     7.89375253    -2.94536819     2.37347769       ForceField.Type=Se3+2 ForceField.Charge=0.0
     62     Se     6.53524093    -4.27934893     3.07970860       ForceField.Type=Se3+2 ForceField.Charge=0.0
     63     Se     8.85529489    -0.15829808    -0.42355004       ForceField.Type=Se3+2 ForceField.Charge=0.0
     64     Se     8.03954038    -2.48919820     6.39577586       ForceField.Type=Se3+2 ForceField.Charge=0.0
     65     Se     7.32486940    -1.47696668     8.00498011       ForceField.Type=Se3+2 ForceField.Charge=0.0
     66     Se     9.05624508     0.73748306     3.60299041       ForceField.Type=Se3+2 ForceField.Charge=0.0
     67     Se     5.14670821    -0.25662470    -2.00409776       ForceField.Type=Se3+2 ForceField.Charge=0.0
     68     Se     3.66492304    -0.04751302    -0.62922525       ForceField.Type=Se3+2 ForceField.Charge=0.0
     69     Se     6.03261983     2.71001471    -4.40435420       ForceField.Type=Se3+2 ForceField.Charge=0.0
     70     Se     5.41463212     0.33376060     1.66543693       ForceField.Type=Se3+2 ForceField.Charge=0.0
     71     Se     3.92319072     0.26789788     3.04714035       ForceField.Type=Se3+2 ForceField.Charge=0.0
     72     Se     6.85158248     3.43692836    -0.26582516       ForceField.Type=Se3+2 ForceField.Charge=0.0
     73     Se     5.51398339     1.13162324     5.32593629       ForceField.Type=Se3+2 ForceField.Charge=0.0
     74     Se     4.16970611     0.69905480     6.78808596       ForceField.Type=Se3+2 ForceField.Charge=0.0
     75     Se     6.55835438     4.54781546     3.68335592       ForceField.Type=Se3+2 ForceField.Charge=0.0
     76     Se     3.25120486     3.77880717    -1.66084696       ForceField.Type=Se3+2 ForceField.Charge=0.0
     77     Se     1.71228638     4.47320863    -0.52717212       ForceField.Type=Se3+2 ForceField.Charge=0.0
     78     Se     4.72595482     6.62084315    -4.15006463       ForceField.Type=Se3+2 ForceField.Charge=0.0
     79     Se     3.04707414     4.21838732     2.04801976       ForceField.Type=Se3+2 ForceField.Charge=0.0
     80     Se     1.41338918     4.55385611     3.21494403       ForceField.Type=Se3+2 ForceField.Charge=0.0
     81     Se     4.83130942     7.15691538    -0.04019262       ForceField.Type=Se3+2 ForceField.Charge=0.0
     82     At     0.73678999    -1.95372560    -5.78213231       ForceField.Type=At ForceField.Charge=0.0
     83      O     2.79862097    -2.31283713    -6.24505515       ForceField.Type=O_2 ForceField.Charge=0.0
     84      H     3.15837616    -2.03758340    -7.09836378       ForceField.Type=H_ ForceField.Charge=0.0
 
Total System Charge             0.00000
Bonding info available!
 

Geometry at FIRE step 4:
 
--------
Geometry
--------
Formula: HAtOSe81
Atoms
  Index Symbol   x (angstrom)   y (angstrom)   z (angstrom)
      1     Se     2.83115192     4.55285297     5.75984580       ForceField.Type=Se3+2 ForceField.Charge=0.0
      2     Se     1.22249582     4.45310862     6.99763823       ForceField.Type=Se3+2 ForceField.Charge=0.0
      3     Se     3.32588909     8.04735357     3.66583473       ForceField.Type=Se3+2 ForceField.Charge=0.0
      4     Se    -2.43000177    -3.98765873    -1.82416461       ForceField.Type=Se3+2 ForceField.Charge=0.0
      5     Se    -4.04060138    -3.01649523    -1.05677562       ForceField.Type=Se3+2 ForceField.Charge=0.0
      6     Se    -1.52862277    -0.30321424    -3.36106803       ForceField.Type=Se3+2 ForceField.Charge=0.0
      7     Se    -1.31146587    -4.49870629     2.04396263       ForceField.Type=Se3+2 ForceField.Charge=0.0
      8     Se    -3.06446846    -3.87990651     2.86232995       ForceField.Type=Se3+2 ForceField.Charge=0.0
      9     Se    -1.18716081    -0.76847623     0.36403873       ForceField.Type=Se3+2 ForceField.Charge=0.0
     10     Se    -0.03091817    -4.80736682     5.86965969       ForceField.Type=Se3+2 ForceField.Charge=0.0
     11     Se    -1.36272638    -3.75859943     6.98816578       ForceField.Type=Se3+2 ForceField.Charge=0.0
     12     Se    -0.73360636    -1.05284858     4.09204201       ForceField.Type=Se3+2 ForceField.Charge=0.0
     13     Se    -5.26821282     1.07945625    -3.39773684       ForceField.Type=Se3+2 ForceField.Charge=0.0
     14     Se    -4.88660875     0.86136681    -1.41523930       ForceField.Type=Se3+2 ForceField.Charge=0.0
     15     Se    -3.16277130     4.71397562    -3.78955435       ForceField.Type=Se3+2 ForceField.Charge=0.0
     16     Se    -4.32004634     0.01375259     2.38403647       ForceField.Type=Se3+2 ForceField.Charge=0.0
     17     Se    -6.03868675    -1.04135509     2.14866791       ForceField.Type=Se3+2 ForceField.Charge=0.0
     18     Se    -3.43017137     4.15048106    -0.06765615       ForceField.Type=Se3+2 ForceField.Charge=0.0
     19     Se    -4.06418108    -0.87947873     6.18660216       ForceField.Type=Se3+2 ForceField.Charge=0.0
     20     Se    -3.80490914     0.60824702     7.54456706       ForceField.Type=Se3+2 ForceField.Charge=0.0
     21     Se    -3.54122430     3.52142868     3.62796605       ForceField.Type=Se3+2 ForceField.Charge=0.0
     22     Se    -6.93759472     4.56064679    -2.30341682       ForceField.Type=Se3+2 ForceField.Charge=0.0
     23     Se    -6.28904641     6.44379616    -1.90594488       ForceField.Type=Se3+2 ForceField.Charge=0.0
     24     Se    -2.97951060     8.73661149    -2.90243643       ForceField.Type=Se3+2 ForceField.Charge=0.0
     25     Se    -6.95515589     3.04937621     1.40376696       ForceField.Type=Se3+2 ForceField.Charge=0.0
     26     Se    -6.82014606     5.00545558     1.93471373       ForceField.Type=Se3+2 ForceField.Charge=0.0
     27     Se    -4.04837542     8.11270584     0.98534729       ForceField.Type=Se3+2 ForceField.Charge=0.0
     28     Se    -6.90335308     1.80585150     5.16489157       ForceField.Type=Se3+2 ForceField.Charge=0.0
     29     Se    -6.76407408     3.67894107     5.93795631       ForceField.Type=Se3+2 ForceField.Charge=0.0
     30     Se    -4.91931523     7.29910720     4.82087274       ForceField.Type=Se3+2 ForceField.Charge=0.0
     31     Se     1.56187610    -4.75269044    -2.59351170       ForceField.Type=Se3+2 ForceField.Charge=0.0
     32     Se     1.65191566    -4.01396667    -0.70430403       ForceField.Type=Se3+2 ForceField.Charge=0.0
     33     Se     4.04605798    -1.62369603    -3.02705299       ForceField.Type=Se3+2 ForceField.Charge=0.0
     34     Se     2.66559256    -5.72794142     2.83195765       ForceField.Type=Se3+2 ForceField.Charge=0.0
     35     Se     2.65083047    -3.71281057     3.08137977       ForceField.Type=Se3+2 ForceField.Charge=0.0
     36     Se     4.63403915    -1.26756275     0.68030267       ForceField.Type=Se3+2 ForceField.Charge=0.0
     37     Se     3.87425748    -3.53575374     6.82246111       ForceField.Type=Se3+2 ForceField.Charge=0.0
     38     Se     2.68479640    -2.75182267     8.27044172       ForceField.Type=Se3+2 ForceField.Charge=0.0
     39     Se     5.14273373    -0.64128542     4.39787878       ForceField.Type=Se3+2 ForceField.Charge=0.0
     40     Se     0.08968811    -0.84300627    -2.25621872       ForceField.Type=Se3+2 ForceField.Charge=0.0
     41     Se    -0.33238522     0.59305917    -0.88283100       ForceField.Type=Se3+2 ForceField.Charge=0.0
     42     Se     1.95450996     2.89121503    -2.94949495       ForceField.Type=Se3+2 ForceField.Charge=0.0
     43     Se     0.52079688    -0.90936736     1.46192660       ForceField.Type=Se3+2 ForceField.Charge=0.0
     44     Se    -0.17402896     0.43570900     2.82260089       ForceField.Type=Se3+2 ForceField.Charge=0.0
     45     Se     1.98069989     2.98477671     0.83278717       ForceField.Type=Se3+2 ForceField.Charge=0.0
     46     Se     0.98747764    -0.86356338     5.15891982       ForceField.Type=Se3+2 ForceField.Charge=0.0
     47     Se     0.03948031     0.23833554     6.57877889       ForceField.Type=Se3+2 ForceField.Charge=0.0
     48     Se     2.01815747     3.13904150     4.54629444       ForceField.Type=Se3+2 ForceField.Charge=0.0
     49     Se    -1.94448205     3.68684962    -2.52906500       ForceField.Type=Se3+2 ForceField.Charge=0.0
     50     Se    -2.04979496     5.18005258    -1.15160083       ForceField.Type=Se3+2 ForceField.Charge=0.0
     51     Se     0.76268712     7.13257965    -3.27143810       ForceField.Type=Se3+2 ForceField.Charge=0.0
     52     Se    -1.98686634     3.42700045     1.17126563       ForceField.Type=Se3+2 ForceField.Charge=0.0
     53     Se    -2.40799143     4.84169331     2.57252012       ForceField.Type=Se3+2 ForceField.Charge=0.0
     54     Se     0.10653000     7.75735874     0.98695312       ForceField.Type=Se3+2 ForceField.Charge=0.0
     55     Se    -1.98905974     3.10488791     4.87303902       ForceField.Type=Se3+2 ForceField.Charge=0.0
     56     Se    -2.75802398     4.32885734     6.30061753       ForceField.Type=Se3+2 ForceField.Charge=0.0
     57     Se    -0.63923141     7.50894555     5.01450564       ForceField.Type=Se3+2 ForceField.Charge=0.0
     58     Se     7.15005028    -3.82840002    -1.48250989       ForceField.Type=Se3+2 ForceField.Charge=0.0
     59     Se     5.52405065    -4.84715202    -0.81591321       ForceField.Type=Se3+2 ForceField.Charge=0.0
     60     Se     8.21885933    -0.93686314    -4.44278703       ForceField.Type=Se3+2 ForceField.Charge=0.0
     61     Se     7.89375221    -2.94537064     2.37346476       ForceField.Type=Se3+2 ForceField.Charge=0.0
     62     Se     6.53523867    -4.27934371     3.07970558       ForceField.Type=Se3+2 ForceField.Charge=0.0
     63     Se     8.85528522    -0.15830629    -0.42356783       ForceField.Type=Se3+2 ForceField.Charge=0.0
     64     Se     8.03955078    -2.48919396     6.39577400       ForceField.Type=Se3+2 ForceField.Charge=0.0
     65     Se     7.32486360    -1.47696835     8.00497438       ForceField.Type=Se3+2 ForceField.Charge=0.0
     66     Se     9.05624048     0.73749074     3.60297695       ForceField.Type=Se3+2 ForceField.Charge=0.0
     67     Se     5.14670255    -0.25662495    -2.00405884       ForceField.Type=Se3+2 ForceField.Charge=0.0
     68     Se     3.66492351    -0.04753299    -0.62925925       ForceField.Type=Se3+2 ForceField.Charge=0.0
     69     Se     6.03261521     2.71001456    -4.40436997       ForceField.Type=Se3+2 ForceField.Charge=0.0
     70     Se     5.41461212     0.33379408     1.66543852       ForceField.Type=Se3+2 ForceField.Charge=0.0
     71     Se     3.92320079     0.26791954     3.04713913       ForceField.Type=Se3+2 ForceField.Charge=0.0
     72     Se     6.85158584     3.43692133    -0.26583167       ForceField.Type=Se3+2 ForceField.Charge=0.0
     73     Se     5.51398785     1.13162093     5.32590062       ForceField.Type=Se3+2 ForceField.Charge=0.0
     74     Se     4.16971855     0.69902387     6.78803902       ForceField.Type=Se3+2 ForceField.Charge=0.0
     75     Se     6.55836400     4.54781846     3.68334215       ForceField.Type=Se3+2 ForceField.Charge=0.0
     76     Se     3.25120463     3.77880470    -1.66085065       ForceField.Type=Se3+2 ForceField.Charge=0.0
     77     Se     1.71228983     4.47320909    -0.52717270       ForceField.Type=Se3+2 ForceField.Charge=0.0
     78     Se     4.72594942     6.62082847    -4.15006363       ForceField.Type=Se3+2 ForceField.Charge=0.0
     79     Se     3.04707985     4.21838020     2.04801874       ForceField.Type=Se3+2 ForceField.Charge=0.0
     80     Se     1.41339702     4.55385612     3.21494453       ForceField.Type=Se3+2 ForceField.Charge=0.0
     81     Se     4.83130085     7.15690778    -0.04019471       ForceField.Type=Se3+2 ForceField.Charge=0.0
     82     At     0.73712094    -1.95406376    -5.78286575       ForceField.Type=At ForceField.Charge=0.0
     83      O     2.79863368    -2.31287151    -6.24504813       ForceField.Type=O_2 ForceField.Charge=0.0
     84      H     3.15837069    -2.03756933    -7.09839327       ForceField.Type=H_ ForceField.Charge=0.0
 
Total System Charge             0.00000
Bonding info available!
 

Geometry at FIRE step 5:
 
--------
Geometry
--------
Formula: HAtOSe81
Atoms
  Index Symbol   x (angstrom)   y (angstrom)   z (angstrom)
      1     Se     2.83116517     4.55284290     5.75983803       ForceField.Type=Se3+2 ForceField.Charge=0.0
      2     Se     1.22251206     4.45311143     6.99763506       ForceField.Type=Se3+2 ForceField.Charge=0.0
      3     Se     3.32590393     8.04734224     3.66583757       ForceField.Type=Se3+2 ForceField.Charge=0.0
      4     Se    -2.43001151    -3.98765827    -1.82415320       ForceField.Type=Se3+2 ForceField.Charge=0.0
      5     Se    -4.04061574    -3.01649988    -1.05676886       ForceField.Type=Se3+2 ForceField.Charge=0.0
      6     Se    -1.52901535    -0.30291917    -3.36060014       ForceField.Type=Se3+2 ForceField.Charge=0.0
      7     Se    -1.31146722    -4.49870441     2.04396337       ForceField.Type=Se3+2 ForceField.Charge=0.0
      8     Se    -3.06447172    -3.87991346     2.86233308       ForceField.Type=Se3+2 ForceField.Charge=0.0
      9     Se    -1.18717542    -0.76846974     0.36406996       ForceField.Type=Se3+2 ForceField.Charge=0.0
     10     Se    -0.03091391    -4.80735946     5.86966182       ForceField.Type=Se3+2 ForceField.Charge=0.0
     11     Se    -1.36270937    -3.75858705     6.98817829       ForceField.Type=Se3+2 ForceField.Charge=0.0
     12     Se    -0.73360694    -1.05283409     4.09203323       ForceField.Type=Se3+2 ForceField.Charge=0.0
     13     Se    -5.26820140     1.07946394    -3.39772590       ForceField.Type=Se3+2 ForceField.Charge=0.0
     14     Se    -4.88658614     0.86137371    -1.41523140       ForceField.Type=Se3+2 ForceField.Charge=0.0
     15     Se    -3.16277749     4.71397660    -3.78954356       ForceField.Type=Se3+2 ForceField.Charge=0.0
     16     Se    -4.32003875     0.01375962     2.38404778       ForceField.Type=Se3+2 ForceField.Charge=0.0
     17     Se    -6.03868087    -1.04134666     2.14867993       ForceField.Type=Se3+2 ForceField.Charge=0.0
     18     Se    -3.43017009     4.15048249    -0.06764826       ForceField.Type=Se3+2 ForceField.Charge=0.0
     19     Se    -4.06417549    -0.87947815     6.18661050       ForceField.Type=Se3+2 ForceField.Charge=0.0
     20     Se    -3.80490847     0.60825343     7.54456971       ForceField.Type=Se3+2 ForceField.Charge=0.0
     21     Se    -3.54122054     3.52143161     3.62797558       ForceField.Type=Se3+2 ForceField.Charge=0.0
     22     Se    -6.93759236     4.56065127    -2.30340149       ForceField.Type=Se3+2 ForceField.Charge=0.0
     23     Se    -6.28904675     6.44379942    -1.90591989       ForceField.Type=Se3+2 ForceField.Charge=0.0
     24     Se    -2.97951044     8.73661324    -2.90242585       ForceField.Type=Se3+2 ForceField.Charge=0.0
     25     Se    -6.95514773     3.04938105     1.40377966       ForceField.Type=Se3+2 ForceField.Charge=0.0
     26     Se    -6.82013979     5.00545879     1.93473289       ForceField.Type=Se3+2 ForceField.Charge=0.0
     27     Se    -4.04835633     8.11271363     0.98536318       ForceField.Type=Se3+2 ForceField.Charge=0.0
     28     Se    -6.90334619     1.80585524     5.16490426       ForceField.Type=Se3+2 ForceField.Charge=0.0
     29     Se    -6.76406610     3.67894426     5.93796998       ForceField.Type=Se3+2 ForceField.Charge=0.0
     30     Se    -4.91931454     7.29911252     4.82088232       ForceField.Type=Se3+2 ForceField.Charge=0.0
     31     Se     1.56186621    -4.75270139    -2.59350899       ForceField.Type=Se3+2 ForceField.Charge=0.0
     32     Se     1.65189490    -4.01396140    -0.70430484       ForceField.Type=Se3+2 ForceField.Charge=0.0
     33     Se     4.04607415    -1.62368154    -3.02703663       ForceField.Type=Se3+2 ForceField.Charge=0.0
     34     Se     2.66559785    -5.72793564     2.83195476       ForceField.Type=Se3+2 ForceField.Charge=0.0
     35     Se     2.65083214    -3.71280452     3.08137479       ForceField.Type=Se3+2 ForceField.Charge=0.0
     36     Se     4.63405097    -1.26758822     0.68031797       ForceField.Type=Se3+2 ForceField.Charge=0.0
     37     Se     3.87427026    -3.53575534     6.82244952       ForceField.Type=Se3+2 ForceField.Charge=0.0
     38     Se     2.68480705    -2.75181984     8.27042599       ForceField.Type=Se3+2 ForceField.Charge=0.0
     39     Se     5.14271547    -0.64130161     4.39788313       ForceField.Type=Se3+2 ForceField.Charge=0.0
     40     Se     0.08954186    -0.84286255    -2.25573936       ForceField.Type=Se3+2 ForceField.Charge=0.0
     41     Se    -0.33240969     0.59308636    -0.88278600       ForceField.Type=Se3+2 ForceField.Charge=0.0
     42     Se     1.95450750     2.89121296    -2.94950280       ForceField.Type=Se3+2 ForceField.Charge=0.0
     43     Se     0.52080411    -0.90937691     1.46193013       ForceField.Type=Se3+2 ForceField.Charge=0.0
     44     Se    -0.17403025     0.43571480     2.82260518       ForceField.Type=Se3+2 ForceField.Charge=0.0
     45     Se     1.98069773     2.98477236     0.83278733       ForceField.Type=Se3+2 ForceField.Charge=0.0
     46     Se     0.98748778    -0.86355989     5.15889234       ForceField.Type=Se3+2 ForceField.Charge=0.0
     47     Se     0.03946765     0.23832365     6.57874523       ForceField.Type=Se3+2 ForceField.Charge=0.0
     48     Se     2.01815865     3.13903537     4.54629155       ForceField.Type=Se3+2 ForceField.Charge=0.0
     49     Se    -1.94448583     3.68684805    -2.52905876       ForceField.Type=Se3+2 ForceField.Charge=0.0
     50     Se    -2.04979330     5.18005308    -1.15159420       ForceField.Type=Se3+2 ForceField.Charge=0.0
     51     Se     0.76268005     7.13255829    -3.27144464       ForceField.Type=Se3+2 ForceField.Charge=0.0
     52     Se    -1.98686383     3.42700242     1.17127329       ForceField.Type=Se3+2 ForceField.Charge=0.0
     53     Se    -2.40798765     4.84169611     2.57252566       ForceField.Type=Se3+2 ForceField.Charge=0.0
     54     Se     0.10654927     7.75735276     0.98695061       ForceField.Type=Se3+2 ForceField.Charge=0.0
     55     Se    -1.98905340     3.10489174     4.87304433       ForceField.Type=Se3+2 ForceField.Charge=0.0
     56     Se    -2.75801041     4.32886498     6.30062211       ForceField.Type=Se3+2 ForceField.Charge=0.0
     57     Se    -0.63922038     7.50895355     5.01450074       ForceField.Type=Se3+2 ForceField.Charge=0.0
     58     Se     7.15002528    -3.82838758    -1.48252384       ForceField.Type=Se3+2 ForceField.Charge=0.0
     59     Se     5.52404252    -4.84715801    -0.81591476       ForceField.Type=Se3+2 ForceField.Charge=0.0
     60     Se     8.21883668    -0.93688307    -4.44280464       ForceField.Type=Se3+2 ForceField.Charge=0.0
     61     Se     7.89375188    -2.94537357     2.37344861       ForceField.Type=Se3+2 ForceField.Charge=0.0
     62     Se     6.53523579    -4.27933682     3.07970211       ForceField.Type=Se3+2 ForceField.Charge=0.0
     63     Se     8.85527293    -0.15831659    -0.42359016       ForceField.Type=Se3+2 ForceField.Charge=0.0
     64     Se     8.03956394    -2.48918830     6.39577212       ForceField.Type=Se3+2 ForceField.Charge=0.0
     65     Se     7.32485573    -1.47697032     8.00496748       ForceField.Type=Se3+2 ForceField.Charge=0.0
     66     Se     9.05623441     0.73750088     3.60296023       ForceField.Type=Se3+2 ForceField.Charge=0.0
     67     Se     5.14669698    -0.25662522    -2.00400967       ForceField.Type=Se3+2 ForceField.Charge=0.0
     68     Se     3.66492348    -0.04755919    -0.62930072       ForceField.Type=Se3+2 ForceField.Charge=0.0
     69     Se     6.03260964     2.71001455    -4.40438988       ForceField.Type=Se3+2 ForceField.Charge=0.0
     70     Se     5.41458686     0.33383651     1.66544010       ForceField.Type=Se3+2 ForceField.Charge=0.0
     71     Se     3.92321279     0.26794728     3.04713828       ForceField.Type=Se3+2 ForceField.Charge=0.0
     72     Se     6.85159022     3.43691248    -0.26583960       ForceField.Type=Se3+2 ForceField.Charge=0.0
     73     Se     5.51399338     1.13161784     5.32585519       ForceField.Type=Se3+2 ForceField.Charge=0.0
     74     Se     4.16973408     0.69898431     6.78797912       ForceField.Type=Se3+2 ForceField.Charge=0.0
     75     Se     6.55837612     4.54782251     3.68332484       ForceField.Type=Se3+2 ForceField.Charge=0.0
     76     Se     3.25120446     3.77880156    -1.66085524       ForceField.Type=Se3+2 ForceField.Charge=0.0
     77     Se     1.71229429     4.47320966    -0.52717332       ForceField.Type=Se3+2 ForceField.Charge=0.0
     78     Se     4.72594271     6.62080971    -4.15006203       ForceField.Type=Se3+2 ForceField.Charge=0.0
     79     Se     3.04708703     4.21837107     2.04801760       ForceField.Type=Se3+2 ForceField.Charge=0.0
     80     Se     1.41340688     4.55385615     3.21494521       ForceField.Type=Se3+2 ForceField.Charge=0.0
     81     Se     4.83128973     7.15689812    -0.04019707       ForceField.Type=Se3+2 ForceField.Charge=0.0
     82     At     0.73753655    -1.95449656    -5.78380548       ForceField.Type=At ForceField.Charge=0.0
     83      O     2.79866104    -2.31291610    -6.24504442       ForceField.Type=O_2 ForceField.Charge=0.0
     84      H     3.15836411    -2.03755225    -7.09842827       ForceField.Type=H_ ForceField.Charge=0.0
 
Total System Charge             0.00000
Bonding info available!
 

Geometry at FIRE step 6:
 
--------
Geometry
--------
Formula: HAtOSe81
Atoms
  Index Symbol   x (angstrom)   y (angstrom)   z (angstrom)
      1     Se     2.83118076     4.55283061     5.75982883       ForceField.Type=Se3+2 ForceField.Charge=0.0
      2     Se     1.22253113     4.45311483     6.99763127       ForceField.Type=Se3+2 ForceField.Charge=0.0
      3     Se     3.32592151     8.04732847     3.66584141       ForceField.Type=Se3+2 ForceField.Charge=0.0
      4     Se    -2.43002281    -3.98765786    -1.82413964       ForceField.Type=Se3+2 ForceField.Charge=0.0
      5     Se    -4.04063287    -3.01650580    -1.05676116       ForceField.Type=Se3+2 ForceField.Charge=0.0
      6     Se    -1.52948475    -0.30256291    -3.36002402       ForceField.Type=Se3+2 ForceField.Charge=0.0
      7     Se    -1.31146866    -4.49870221     2.04396397       ForceField.Type=Se3+2 ForceField.Charge=0.0
      8     Se    -3.06447562    -3.87992219     2.86233642       ForceField.Type=Se3+2 ForceField.Charge=0.0
      9     Se    -1.18719294    -0.76846099     0.36410897       ForceField.Type=Se3+2 ForceField.Charge=0.0
     10     Se    -0.03090891    -4.80735052     5.86966428       ForceField.Type=Se3+2 ForceField.Charge=0.0
     11     Se    -1.36268891    -3.75857204     6.98819332       ForceField.Type=Se3+2 ForceField.Charge=0.0
     12     Se    -0.73360791    -1.05281699     4.09202250       ForceField.Type=Se3+2 ForceField.Charge=0.0
     13     Se    -5.26818694     1.07947314    -3.39771325       ForceField.Type=Se3+2 ForceField.Charge=0.0
     14     Se    -4.88655817     0.86138193    -1.41522228       ForceField.Type=Se3+2 ForceField.Charge=0.0
     15     Se    -3.16278466     4.71397764    -3.78953076       ForceField.Type=Se3+2 ForceField.Charge=0.0
     16     Se    -4.32002954     0.01376795     2.38406103       ForceField.Type=Se3+2 ForceField.Charge=0.0
     17     Se    -6.03867361    -1.04133665     2.14869385       ForceField.Type=Se3+2 ForceField.Charge=0.0
     18     Se    -3.43016845     4.15048405    -0.06763905       ForceField.Type=Se3+2 ForceField.Charge=0.0
     19     Se    -4.06416909    -0.87947774     6.18662014       ForceField.Type=Se3+2 ForceField.Charge=0.0
     20     Se    -3.80490834     0.60826099     7.54457243       ForceField.Type=Se3+2 ForceField.Charge=0.0
     21     Se    -3.54121627     3.52143503     3.62798671       ForceField.Type=Se3+2 ForceField.Charge=0.0
     22     Se    -6.93758922     4.56065639    -2.30338357       ForceField.Type=Se3+2 ForceField.Charge=0.0
     23     Se    -6.28904705     6.44380310    -1.90589002       ForceField.Type=Se3+2 ForceField.Charge=0.0
     24     Se    -2.97951013     8.73661522    -2.90241324       ForceField.Type=Se3+2 ForceField.Charge=0.0
     25     Se    -6.95513782     3.04938658     1.40379433       ForceField.Type=Se3+2 ForceField.Charge=0.0
     26     Se    -6.82013237     5.00546233     1.93475552       ForceField.Type=Se3+2 ForceField.Charge=0.0
     27     Se    -4.04833325     8.11272293     0.98538216       ForceField.Type=Se3+2 ForceField.Charge=0.0
     28     Se    -6.90333823     1.80585939     5.16491892       ForceField.Type=Se3+2 ForceField.Charge=0.0
     29     Se    -6.76405698     3.67894773     5.93798588       ForceField.Type=Se3+2 ForceField.Charge=0.0
     30     Se    -4.91931440     7.29911871     4.82089345       ForceField.Type=Se3+2 ForceField.Charge=0.0
     31     Se     1.56185486    -4.75271465    -2.59350558       ForceField.Type=Se3+2 ForceField.Charge=0.0
     32     Se     1.65186997    -4.01395493    -0.70430589       ForceField.Type=Se3+2 ForceField.Charge=0.0
     33     Se     4.04609452    -1.62366375    -3.02701644       ForceField.Type=Se3+2 ForceField.Charge=0.0
     34     Se     2.66560453    -5.72792845     2.83195138       ForceField.Type=Se3+2 ForceField.Charge=0.0
     35     Se     2.65083423    -3.71279704     3.08136885       ForceField.Type=Se3+2 ForceField.Charge=0.0
     36     Se     4.63406519    -1.26761663     0.68033670       ForceField.Type=Se3+2 ForceField.Charge=0.0
     37     Se     3.87428553    -3.53575720     6.82243564       ForceField.Type=Se3+2 ForceField.Charge=0.0
     38     Se     2.68481951    -2.75181634     8.27040688       ForceField.Type=Se3+2 ForceField.Charge=0.0
     39     Se     5.14269308    -0.64132077     4.39788803       ForceField.Type=Se3+2 ForceField.Charge=0.0
     40     Se     0.08935748    -0.84269465    -2.25517321       ForceField.Type=Se3+2 ForceField.Charge=0.0
     41     Se    -0.33244242     0.59313015    -0.88271805       ForceField.Type=Se3+2 ForceField.Charge=0.0
     42     Se     1.95450497     2.89121059    -2.94951215       ForceField.Type=Se3+2 ForceField.Charge=0.0
     43     Se     0.52081239    -0.90938799     1.46193506       ForceField.Type=Se3+2 ForceField.Charge=0.0
     44     Se    -0.17403140     0.43572179     2.82260959       ForceField.Type=Se3+2 ForceField.Charge=0.0
     45     Se     1.98069512     2.98476723     0.83278760       ForceField.Type=Se3+2 ForceField.Charge=0.0
     46     Se     0.98749958    -0.86355560     5.15885874       ForceField.Type=Se3+2 ForceField.Charge=0.0
     47     Se     0.03945177     0.23830906     6.57870408       ForceField.Type=Se3+2 ForceField.Charge=0.0
     48     Se     2.01815962     3.13902792     4.54628817       ForceField.Type=Se3+2 ForceField.Charge=0.0
     49     Se    -1.94449013     3.68684618    -2.52905136       ForceField.Type=Se3+2 ForceField.Charge=0.0
     50     Se    -2.04979118     5.18005349    -1.15158639       ForceField.Type=Se3+2 ForceField.Charge=0.0
     51     Se     0.76267163     7.13253216    -3.27145261       ForceField.Type=Se3+2 ForceField.Charge=0.0
     52     Se    -1.98686087     3.42700468     1.17128235       ForceField.Type=Se3+2 ForceField.Charge=0.0
     53     Se    -2.40798341     4.84169935     2.57253220       ForceField.Type=Se3+2 ForceField.Charge=0.0
     54     Se     0.10657260     7.75734541     0.98694752       ForceField.Type=Se3+2 ForceField.Charge=0.0
     55     Se    -1.98904610     3.10489623     4.87305054       ForceField.Type=Se3+2 ForceField.Charge=0.0
     56     Se    -2.75799452     4.32887415     6.30062737       ForceField.Type=Se3+2 ForceField.Charge=0.0
     57     Se    -0.63920762     7.50896325     5.01449462       ForceField.Type=Se3+2 ForceField.Charge=0.0
     58     Se     7.14999523    -3.82837197    -1.48254025       ForceField.Type=Se3+2 ForceField.Charge=0.0
     59     Se     5.52403311    -4.84716509    -0.81591617       ForceField.Type=Se3+2 ForceField.Charge=0.0
     60     Se     8.21880970    -0.93690705    -4.44282538       ForceField.Type=Se3+2 ForceField.Charge=0.0
     61     Se     7.89375158    -2.94537679     2.37342962       ForceField.Type=Se3+2 ForceField.Charge=0.0
     62     Se     6.53523235    -4.27932811     3.07969848       ForceField.Type=Se3+2 ForceField.Charge=0.0
     63     Se     8.85525815    -0.15832879    -0.42361659       ForceField.Type=Se3+2 ForceField.Charge=0.0
     64     Se     8.03957968    -2.48918104     6.39577062       ForceField.Type=Se3+2 ForceField.Charge=0.0
     65     Se     7.32484543    -1.47697245     8.00495978       ForceField.Type=Se3+2 ForceField.Charge=0.0
     66     Se     9.05622673     0.73751372     3.60294069       ForceField.Type=Se3+2 ForceField.Charge=0.0
     67     Se     5.14669283    -0.25662548    -2.00395089       ForceField.Type=Se3+2 ForceField.Charge=0.0
     68     Se     3.66492245    -0.04759207    -0.62934791       ForceField.Type=Se3+2 ForceField.Charge=0.0
     69     Se     6.03260340     2.71001487    -4.40441366       ForceField.Type=Se3+2 ForceField.Charge=0.0
     70     Se     5.41455671     0.33388739     1.66544131       ForceField.Type=Se3+2 ForceField.Charge=0.0
     71     Se     3.92322600     0.26798100     3.04713835       ForceField.Type=Se3+2 ForceField.Charge=0.0
     72     Se     6.85159567     3.43690197    -0.26584859       ForceField.Type=Se3+2 ForceField.Charge=0.0
     73     Se     5.51399980     1.13161386     5.32580030       ForceField.Type=Se3+2 ForceField.Charge=0.0
     74     Se     4.16975234     0.69893631     6.78790662       ForceField.Type=Se3+2 ForceField.Charge=0.0
     75     Se     6.55839052     4.54782775     3.68330435       ForceField.Type=Se3+2 ForceField.Charge=0.0
[...]
 Entropy (cal/mol-K):                                11.326    10.002     9.593     9.454     9.366     9.270     9.201     9.109     8.979     8.692     8.577     8.570     8.530     8.462     8.306     8.268     8.219     8.176     8.153     8.047     7.979     7.924     7.861     7.825     7.786     7.749     7.698     7.652     7.632     7.584     7.549     7.517     7.509     7.464     7.444     7.387     7.375     7.314     7.278     7.258     7.230     7.225     7.179     7.151     7.129     7.089     7.078     7.075     7.050     7.026     6.975     6.953     6.938     6.911     6.893     6.873     6.852     6.824
 Nuclear Internal Energy (kcal/mol):                  0.642     0.642     0.642     0.642     0.642     0.642     0.642     0.642     0.642     0.642     0.642     0.642     0.642     0.642     0.642     0.642     0.642     0.642     0.642     0.642     0.642     0.642     0.642     0.642     0.642     0.642     0.642     0.642     0.642     0.642     0.642     0.642     0.642     0.642     0.642     0.642     0.642     0.642     0.642     0.642     0.642     0.642     0.642     0.642     0.642     0.642     0.642     0.642     0.642     0.643     0.643     0.643     0.643     0.643     0.643     0.643     0.643     0.643
 Constant Volume Heat Capacity (cal/mol-K):           1.987     1.987     1.987     1.987     1.987     1.987     1.987     1.987     1.987     1.987     1.987     1.987     1.987     1.987     1.987     1.987     1.987     1.987     1.987     1.987     1.987     1.987     1.987     1.987     1.987     1.987     1.987     1.987     1.987     1.987     1.987     1.987     1.987     1.987     1.987     1.986     1.986     1.986     1.986     1.986     1.986     1.986     1.986     1.986     1.986     1.986     1.986     1.986     1.986     1.986     1.986     1.986     1.986     1.986     1.986     1.986     1.986     1.986

       Summary of energy terms
                                                   hartree              eV         kcal/mol           kJ/mol
                                      --------------------     -----------       ----------      -----------
      Energy from Engine:               -0.216489144733680         -5.8910          -135.85          -568.39
      Nuclear Internal Energy:           0.216543657570394          5.8925           135.88           568.54
  (c) Nuclear Internal Energy:           0.190261780949417          5.1773           119.39           499.53
      Internal Energy U:                 0.000054512836714          0.0015             0.03             0.14
      pV/n = RT:                         0.001023356398651          0.0278             0.64             2.69
      Enthalpy H:                        0.001077869235366          0.0293             0.68             2.83
      -T*S:                             -0.432443635632282        -11.7674          -271.36         -1135.38
  (c) -T*S:                             -0.486600973536716        -13.2411          -305.35         -1277.57
      Gibbs free energy:                -0.431365766396917        -11.7381          -270.69         -1132.55
 
 
 
  (c) The properties marked with this symbol have been corrected using 'low vibrational frequency free rotor
      interpolation corrections'. For those terms all positive frequencies are used (also ones below 20 1/cm),
      but the contribution to the partition function of small vibrational frequencies is modified as described
      in the following paper:
      S. Grimme, 'Supramolecular Binding Thermodynamics by Dispersion-Corrected Density Functional Theory'
      (Chem. Eur. J. 2012, 18, 9955-9964)
      Configuration: Dampener Frequency          :   100.000 1/cm
                     Dampener Alpha              :     4.000
                     Averaging Moment of Inertia : 1.000E-44 kg m2


     Temp                                                        Transl      Rotat     Vibrat     Total
     ----                                                        ------      -----     ------     -----

     373.15   Entropy (cal/mol-K):                               53.366     48.684    787.349    889.399
              Nuclear Internal Energy (kcal/mol):                 1.112      1.112    150.822    153.046
              Constant Volume Heat Capacity (cal/mol-K):          2.981      2.981    340.339    346.301
          (c) Constant Volume Heat Capacity (cal/mol-K):          2.981      2.981    290.621    296.583

 Contributions from frequencies below 20 1/cm
 Frequency (1/cm):                                    2.044     3.980     4.889     5.244     5.480     5.752     5.955     6.237     6.660     7.692     8.151     8.182     8.345     8.636     9.344     9.523     9.760     9.974    10.090    10.646    11.017    11.321    11.687    11.901    12.139    12.369    12.689    12.984    13.120    13.438    13.675    13.899    13.951    14.276    14.420    14.841    14.929    15.393    15.673    15.831    16.058    16.103    16.474    16.715    16.893    17.236    17.337    17.362    17.579    17.795    18.263    18.462    18.601    18.856    19.026    19.226    19.423    19.704
 Entropy (cal/mol-K):                                11.612    10.288     9.879     9.739     9.652     9.556     9.487     9.395     9.264     8.978     8.863     8.856     8.816     8.748     8.592     8.554     8.505     8.462     8.439     8.332     8.264     8.210     8.147     8.111     8.072     8.034     7.984     7.938     7.917     7.870     7.835     7.803     7.795     7.750     7.730     7.672     7.661     7.600     7.564     7.544     7.516     7.510     7.465     7.436     7.415     7.375     7.364     7.361     7.336     7.312     7.260     7.239     7.224     7.197     7.179     7.158     7.138     7.109
 Nuclear Internal Energy (kcal/mol):                  0.742     0.742     0.742     0.742     0.742     0.742     0.742     0.742     0.742     0.742     0.742     0.742     0.742     0.742     0.742     0.742     0.742     0.742     0.742     0.742     0.742     0.742     0.742     0.742     0.742     0.742     0.742     0.742     0.742     0.742     0.742     0.742     0.742     0.742     0.742     0.742     0.742     0.742     0.742     0.742     0.742     0.742     0.742     0.742     0.742     0.742     0.742     0.742     0.742     0.742     0.742     0.742     0.742     0.742     0.742     0.742     0.742     0.742
 Constant Volume Heat Capacity (cal/mol-K):           1.987     1.987     1.987     1.987     1.987     1.987     1.987     1.987     1.987     1.987     1.987     1.987     1.987     1.987     1.987     1.987     1.987     1.987     1.987     1.987     1.987     1.987     1.987     1.987     1.987     1.987     1.987     1.987     1.987     1.987     1.987     1.987     1.987     1.987     1.987     1.987     1.987     1.987     1.987     1.987     1.987     1.987     1.987     1.987     1.987     1.986     1.986     1.986     1.986     1.986     1.986     1.986     1.986     1.986     1.986     1.986     1.986     1.986

       Summary of energy terms
                                                   hartree              eV         kcal/mol           kJ/mol
                                      --------------------     -----------       ----------      -----------
      Energy from Engine:               -0.216489144733680         -5.8910          -135.85          -568.39
      Nuclear Internal Energy:           0.243894762731447          6.6367           153.05           640.35
  (c) Nuclear Internal Energy:           0.213658114709108          5.8139           134.07           560.96
      Internal Energy U:                 0.027405617997767          0.7457            17.20            71.95
      pV/n = RT:                         0.001181697168983          0.0322             0.74             3.10
      Enthalpy H:                        0.028587315166750          0.7779            17.94            75.06
      -T*S:                             -0.528883379476330        -14.3916          -331.88         -1388.58
  (c) -T*S:                             -0.587174436592686        -15.9778          -368.46         -1541.63
      Gibbs free energy:                -0.500296064309581        -13.6137          -313.94         -1313.53
 
 
 
  (c) The properties marked with this symbol have been corrected using 'low vibrational frequency free rotor
      interpolation corrections'. For those terms all positive frequencies are used (also ones below 20 1/cm),
      but the contribution to the partition function of small vibrational frequencies is modified as described
      in the following paper:
      S. Grimme, 'Supramolecular Binding Thermodynamics by Dispersion-Corrected Density Functional Theory'
      (Chem. Eur. J. 2012, 18, 9955-9964)
      Configuration: Dampener Frequency          :   100.000 1/cm
                     Dampener Alpha              :     4.000
                     Averaging Moment of Inertia : 1.000E-44 kg m2


     Temp                                                        Transl      Rotat     Vibrat     Total
     ----                                                        ------      -----     ------     -----

     473.15   Entropy (cal/mol-K):                               54.546     49.391    869.170    973.107
              Nuclear Internal Energy (kcal/mol):                 1.410      1.410    185.298    188.119
              Constant Volume Heat Capacity (cal/mol-K):          2.981      2.981    348.378    354.340
          (c) Constant Volume Heat Capacity (cal/mol-K):          2.981      2.981    298.451    304.413

 Contributions from frequencies below 20 1/cm
 Frequency (1/cm):                                    2.044     3.980     4.889     5.244     5.480     5.752     5.955     6.237     6.660     7.692     8.151     8.182     8.345     8.636     9.344     9.523     9.760     9.974    10.090    10.646    11.017    11.321    11.687    11.901    12.139    12.369    12.689    12.984    13.120    13.438    13.675    13.899    13.951    14.276    14.420    14.841    14.929    15.393    15.673    15.831    16.058    16.103    16.474    16.715    16.893    17.236    17.337    17.362    17.579    17.795    18.263    18.462    18.601    18.856    19.026    19.226    19.423    19.704
 Entropy (cal/mol-K):                                12.084    10.759    10.351    10.211    10.124    10.027     9.959     9.867     9.736     9.450     9.335     9.327     9.288     9.220     9.063     9.026     8.977     8.934     8.911     8.804     8.736     8.682     8.619     8.583     8.543     8.506     8.455     8.410     8.389     8.341     8.307     8.274     8.267     8.221     8.201     8.144     8.132     8.072     8.036     8.016     7.988     7.982     7.937     7.908     7.887     7.847     7.835     7.832     7.808     7.784     7.732     7.710     7.696     7.668     7.651     7.630     7.610     7.581
 Nuclear Internal Energy (kcal/mol):                  0.940     0.940     0.940     0.940     0.940     0.940     0.940     0.940     0.940     0.940     0.940     0.940     0.940     0.940     0.940     0.940     0.940     0.940     0.940     0.940     0.940     0.940     0.940     0.940     0.940     0.940     0.940     0.940     0.940     0.940     0.940     0.940     0.940     0.940     0.940     0.940     0.940     0.940     0.940     0.940     0.940     0.940     0.940     0.940     0.940     0.940     0.940     0.940     0.940     0.940     0.940     0.940     0.940     0.941     0.941     0.941     0.941     0.941
 Constant Volume Heat Capacity (cal/mol-K):           1.987     1.987     1.987     1.987     1.987     1.987     1.987     1.987     1.987     1.987     1.987     1.987     1.987     1.987     1.987     1.987     1.987     1.987     1.987     1.987     1.987     1.987     1.987     1.987     1.987     1.987     1.987     1.987     1.987     1.987     1.987     1.987     1.987     1.987     1.987     1.987     1.987     1.987     1.987     1.987     1.987     1.987     1.987     1.987     1.987     1.987     1.987     1.987     1.987     1.987     1.987     1.987     1.987     1.987     1.987     1.987     1.987     1.987

       Summary of energy terms
                                                   hartree              eV         kcal/mol           kJ/mol
                                      --------------------     -----------       ----------      -----------
      Energy from Engine:               -0.216489144733680         -5.8910          -135.85          -568.39
      Nuclear Internal Energy:           0.299786586560934          8.1576           188.12           787.09
  (c) Nuclear Internal Energy:           0.261608315034993          7.1187           164.16           686.85
      Internal Energy U:                 0.083297441827254          2.2666            52.27           218.70
      pV/n = RT:                         0.001498378709645          0.0408             0.94             3.93
      Enthalpy H:                        0.084795820536900          2.3074            53.21           222.63
      -T*S:                             -0.733734972590648        -19.9659          -460.43         -1926.42
  (c) -T*S:                             -0.798726418778836        -21.7345          -501.21         -2097.06
      Gibbs free energy:                -0.648939152053749        -17.6585          -407.22         -1703.79
 
 
 
  (c) The properties marked with this symbol have been corrected using 'low vibrational frequency free rotor
      interpolation corrections'. For those terms all positive frequencies are used (also ones below 20 1/cm),
      but the contribution to the partition function of small vibrational frequencies is modified as described
      in the following paper:
      S. Grimme, 'Supramolecular Binding Thermodynamics by Dispersion-Corrected Density Functional Theory'
      (Chem. Eur. J. 2012, 18, 9955-9964)
      Configuration: Dampener Frequency          :   100.000 1/cm
                     Dampener Alpha              :     4.000
                     Averaging Moment of Inertia : 1.000E-44 kg m2
-----------
Bond orders
-----------

Description: Unknown
Only bonds with bond orders > 0.200 are printed.

 Index  Atom    Index  Atom    BondOrder
     1    Se        2    Se        3.000
     1    Se       48    Se        3.000
     4    Se        5    Se        3.000
     6    Se       40    Se        3.000
     7    Se        8    Se        3.000
     9    Se       41    Se        3.000
     9    Se       43    Se        3.000
    10    Se       11    Se        3.000
    12    Se       44    Se        3.000
    12    Se       46    Se        3.000
    13    Se       14    Se        3.000
    15    Se       49    Se        3.000
    16    Se       17    Se        3.000
    18    Se       50    Se        3.000
    18    Se       52    Se        3.000
    19    Se       20    Se        3.000
    21    Se       53    Se        3.000
    21    Se       55    Se        3.000
    22    Se       23    Se        3.000
    25    Se       26    Se        3.000
    28    Se       29    Se        3.000
    31    Se       32    Se        3.000
    33    Se       67    Se        3.000
    34    Se       35    Se        3.000
    36    Se       68    Se        3.000
    36    Se       70    Se        3.000
    37    Se       38    Se        3.000
    39    Se       71    Se        3.000
    39    Se       73    Se        3.000
    40    Se       41    Se        3.000
    42    Se       76    Se        3.000
    43    Se       44    Se        3.000
    45    Se       77    Se        3.000
    45    Se       79    Se        3.000
    46    Se       47    Se        3.000
    48    Se       80    Se        3.000
    49    Se       50    Se        3.000
    52    Se       53    Se        3.000
    55    Se       56    Se        3.000
    58    Se       59    Se        3.000
    61    Se       62    Se        3.000
    64    Se       65    Se        3.000
    67    Se       68    Se        3.000
    70    Se       71    Se        3.000
    73    Se       74    Se        3.000
    76    Se       77    Se        3.000
    79    Se       80    Se        3.000
    82    At       83     O        1.000
    83     O       84     H        1.000


--------------
Atomic charges
--------------
  Index   Atom    Charge
      1     Se    0.0000
      2     Se    0.0000
      3     Se    0.0000
      4     Se    0.0000
      5     Se    0.0000
      6     Se    0.0000
      7     Se    0.0000
      8     Se    0.0000
      9     Se    0.0000
     10     Se    0.0000
     11     Se    0.0000
     12     Se    0.0000
     13     Se    0.0000
     14     Se    0.0000
     15     Se    0.0000
     16     Se    0.0000
     17     Se    0.0000
     18     Se    0.0000
     19     Se    0.0000
     20     Se    0.0000
     21     Se    0.0000
     22     Se    0.0000
     23     Se    0.0000
     24     Se    0.0000
     25     Se    0.0000
     26     Se    0.0000
     27     Se    0.0000
     28     Se    0.0000
     29     Se    0.0000
     30     Se    0.0000
     31     Se    0.0000
     32     Se    0.0000
     33     Se    0.0000
     34     Se    0.0000
     35     Se    0.0000
     36     Se    0.0000
     37     Se    0.0000
     38     Se    0.0000
     39     Se    0.0000
     40     Se    0.0000
     41     Se    0.0000
     42     Se    0.0000
     43     Se    0.0000
     44     Se    0.0000
     45     Se    0.0000
     46     Se    0.0000
     47     Se    0.0000
     48     Se    0.0000
     49     Se    0.0000
     50     Se    0.0000
     51     Se    0.0000
     52     Se    0.0000
     53     Se    0.0000
     54     Se    0.0000
     55     Se    0.0000
     56     Se    0.0000
     57     Se    0.0000
     58     Se    0.0000
     59     Se    0.0000
     60     Se    0.0000
     61     Se    0.0000
     62     Se    0.0000
     63     Se    0.0000
     64     Se    0.0000
     65     Se    0.0000
     66     Se    0.0000
     67     Se    0.0000
     68     Se    0.0000
     69     Se    0.0000
     70     Se    0.0000
     71     Se    0.0000
     72     Se    0.0000
     73     Se    0.0000
     74     Se    0.0000
     75     Se    0.0000
     76     Se    0.0000
     77     Se    0.0000
     78     Se    0.0000
     79     Se    0.0000
     80     Se    0.0000
     81     Se    0.0000
     82     At    0.0000
     83      O    0.0000
     84      H    0.0000


Dipole moment vector    (Debye):     0.00000000    0.00000000    0.00000000
              magnitude (Debye):     0.00000000

 
--------------------
Energy Decomposition
--------------------
Total Energy (hartree)                -0.21648914
Total Energy (eV)                     -5.89096936
Bond bending (hartree)                 0.00105110
Bond stretching (hartree)              0.00008603
Bond torsion (hartree)                 0.00604376
Bond inversion (hartree)               0.00000000
Van Der Waals (hartree)               -0.22367003
Coulomb (hartree)                      0.00000000
Embedding (hartree)                    0.00000000
Total Bonded (hartree)                 0.00718089
Total NonBonded (hartree)             -0.22367003
 

Final PES point is a local minimum. Geometry optimization successful!


AMS application finished. Exiting.
NORMAL TERMINATION
     Total cpu time:       4.36
  Total system time:       2.16
 Total elapsed time:       9.51
