

 Parallel Execution: Process Information
 ==============================================================================
 Rank   Node Name                              NodeID   MyNodeRank  NodeMaster
    0   lxir124                                   0          0          0
    1   lxir124                                   0          1         -1
    2   lxir124                                   0          2         -1
    3   lxir124                                   0          3         -1
    4   lxir124                                   0          4         -1
    5   lxir124                                   0          5         -1
    6   lxir124                                   0          6         -1
    7   lxir124                                   0          7         -1
    8   lxir124                                   0          8         -1
    9   lxir124                                   0          9         -1
   10   lxir124                                   0         10         -1
   11   lxir124                                   0         11         -1
   12   lxir124                                   0         12         -1
   13   lxir124                                   0         13         -1
   14   lxir124                                   0         14         -1
   15   lxir124                                   0         15         -1
   16   lxir124                                   0         16         -1
   17   lxir124                                   0         17         -1
   18   lxir124                                   0         18         -1
   19   lxir124                                   0         19         -1
 ==============================================================================


May use up to 122942MB of RAM as shared memory on node 0

 *******************************************************************************
 *                                                                             *
 *  --------------------------------                                           *
 *   Amsterdam Modeling Suite (AMS)              2024.101                      *
 *  --------------------------------                                           *
 *                                               r121099 2024-04-19            *
 *                                                                             *
 *                                                                             *
 *                              =================                              *
 *                              |               |                              *
 *                              |     A M S     |                              *
 *                              |               |                              *
 *                              =================                              *
 *                                                                             *
 *                                                                             *
 *   Online information and documentation:  https://www.scm.com/support/       *
 *   E-mail:  support@scm.com   info@scm.com                                   *
 *                                                                             *
 *   Scientific publications using AMS results must be properly referenced     *
 *   See the User Manuals (or the web site) for recommended citations          *
 *   The terms and conditions of the End User License Agreement apply to       *
 *   the use of AMS, https://www.scm.com/license-terms/                        *
 *                                                                             *
 **********************  x86_64_linux_intel / intelmpi  ************************
 
 Licensed to: Dr. Valeria Pershina / GSI Helmholtzzentrum f?r Schwerionenforschung GmbH / Darmstadt / Germany 2024-05-07 16:20:14
 SCM User ID: u15059
  
 AMS 2024.101  RunTime: May25-2024 14:59:09  ShM Nodes: 1  Procs: 20

 AMS jobname: ams
 AMS jobid  : 985494265

 Start   directory: /data.local1/milias/work/open-collection/theoretical_chemistry/software/ams/runs/adsoptions/Se_trigonal_slab/tmp.milias.4193.0.noindex/
 Results directory: /data.local1/milias/work/open-collection/theoretical_chemistry/software/ams/runs/adsoptions/Se_trigonal_slab/Se81_from3x3x3.geopt_phonons_uff.results/
 Scratch directory: /data.local1/milias/scratch/amstmp_ams_kid0.985494265/


 Communication costs MPI_COMM_WORLD:      1.950 usec per message,   0.0115 usec per 8-byte item
 Communication costs for intra-node:      1.911 usec per message,   0.0116 usec per 8-byte item

 RNG seed: -1643179917 -847936739 967180297 -1873930120 -1293634785 -2135459104 -1988055348 -267679222

       ***************************
       *  GEOMETRY OPTIMIZATION  *
       ***************************

FIRE optimizer config
       nMin:  5 steps
    dtStart:  0.2500 fs
      dtMax:  1.0000 fs
       fInc:  1.1000
       fDec:  0.5000
 alphaStart:  0.1000
     fAlpha:  0.9900
 Opt. latt.:  F
Convergence criteria:
       Energy:  0.000010 Ha per atom
    Gradients:  0.001000 Ha/Angstrom
         Step:  0.010000 Angstrom
Stress energy:  0.000500 Ha per atom
 
--------
Geometry
--------
Formula: Se81
Atoms
  Index Symbol   x (angstrom)   y (angstrom)   z (angstrom)
      1     Se     2.83067286     4.56251907     5.70287436       ForceField.Type=Se3+2 ForceField.Charge=0.0
      2     Se     1.24517249     4.36772336     6.95884345       ForceField.Type=Se3+2 ForceField.Charge=0.0
      3     Se     3.26051700     8.11104737     3.60929360       ForceField.Type=Se3+2 ForceField.Charge=0.0
      4     Se    -2.40100238    -4.05487836    -1.89324664       ForceField.Type=Se3+2 ForceField.Charge=0.0
      5     Se    -3.92508364    -2.99772165    -1.06592333       ForceField.Type=Se3+2 ForceField.Charge=0.0
      6     Se    -1.47832744    -0.35066557    -3.40720969       ForceField.Type=Se3+2 ForceField.Charge=0.0
      7     Se    -1.35195039    -4.51952887     2.02862919       ForceField.Type=Se3+2 ForceField.Charge=0.0
      8     Se    -3.09764652    -3.88912615     2.85371281       ForceField.Type=Se3+2 ForceField.Charge=0.0
      9     Se    -1.14520886    -0.76556896     0.32405913       ForceField.Type=Se3+2 ForceField.Charge=0.0
     10     Se    -0.04598589    -4.89354152     5.91895431       ForceField.Type=Se3+2 ForceField.Charge=0.0
     11     Se    -1.44371332    -3.77961680     6.88280165       ForceField.Type=Se3+2 ForceField.Charge=0.0
     12     Se    -0.70590956    -1.04829321     4.03128063       ForceField.Type=Se3+2 ForceField.Charge=0.0
     13     Se    -5.16541693     1.08038091    -3.42996020       ForceField.Type=Se3+2 ForceField.Charge=0.0
     14     Se    -4.84420104     0.81002195    -1.44318240       ForceField.Type=Se3+2 ForceField.Charge=0.0
     15     Se    -3.11389964     4.62372336    -3.86171809       ForceField.Type=Se3+2 ForceField.Charge=0.0
     16     Se    -4.30251114     0.01200777     2.36690604       ForceField.Type=Se3+2 ForceField.Charge=0.0
     17     Se    -6.05998179    -0.99005081     2.19536946       ForceField.Type=Se3+2 ForceField.Charge=0.0
     18     Se    -3.46069485     4.11710808    -0.11273740       ForceField.Type=Se3+2 ForceField.Charge=0.0
     19     Se    -4.01725677    -0.86525504     6.17891667       ForceField.Type=Se3+2 ForceField.Charge=0.0
     20     Se    -3.77806219     0.56466813     7.60101902       ForceField.Type=Se3+2 ForceField.Charge=0.0
     21     Se    -3.57409938     3.51108214     3.59725085       ForceField.Type=Se3+2 ForceField.Charge=0.0
     22     Se    -6.82556816     4.52910834    -2.41809757       ForceField.Type=Se3+2 ForceField.Charge=0.0
     23     Se    -6.26639264     6.45150419    -2.07795791       ForceField.Type=Se3+2 ForceField.Charge=0.0
     24     Se    -2.92943717     8.62926954    -2.99120755       ForceField.Type=Se3+2 ForceField.Charge=0.0
     25     Se    -6.94502241     3.06602940     1.36478125       ForceField.Type=Se3+2 ForceField.Charge=0.0
     26     Se    -6.83595685     5.01159683     1.93879693       ForceField.Type=Se3+2 ForceField.Charge=0.0
     27     Se    -4.19957090     8.06633245     0.93375896       ForceField.Type=Se3+2 ForceField.Charge=0.0
     28     Se    -6.94201447     1.80912189     5.19890202       ForceField.Type=Se3+2 ForceField.Charge=0.0
     29     Se    -6.84281114     3.68294852     5.97689275       ForceField.Type=Se3+2 ForceField.Charge=0.0
     30     Se    -4.76692345     7.35571934     4.80964858       ForceField.Type=Se3+2 ForceField.Charge=0.0
     31     Se     1.49039187    -4.77742672    -2.58857321       ForceField.Type=Se3+2 ForceField.Charge=0.0
     32     Se     1.65184422    -4.09452389    -0.68301375       ForceField.Type=Se3+2 ForceField.Charge=0.0
     33     Se     4.02708347    -1.65426534    -3.08136908       ForceField.Type=Se3+2 ForceField.Charge=0.0
     34     Se     2.59988537    -5.80100198     2.97062975       ForceField.Type=Se3+2 ForceField.Charge=0.0
     35     Se     2.62429573    -3.77384535     3.08683886       ForceField.Type=Se3+2 ForceField.Charge=0.0
     36     Se     4.58445455    -1.28719016     0.62354059       ForceField.Type=Se3+2 ForceField.Charge=0.0
     37     Se     3.83616118    -3.41433690     6.84834468       ForceField.Type=Se3+2 ForceField.Charge=0.0
     38     Se     2.60543613    -2.69582442     8.29580067       ForceField.Type=Se3+2 ForceField.Charge=0.0
     39     Se     5.10134206    -0.68884008     4.32534832       ForceField.Type=Se3+2 ForceField.Charge=0.0
     40     Se     0.12899567    -0.90200815    -2.29389465       ForceField.Type=Se3+2 ForceField.Charge=0.0
     41     Se    -0.26533288     0.56258398    -0.94057289       ForceField.Type=Se3+2 ForceField.Charge=0.0
     42     Se     1.92672082     2.97752752    -3.01062320       ForceField.Type=Se3+2 ForceField.Charge=0.0
     43     Se     0.56531461    -0.93463155     1.41279602       ForceField.Type=Se3+2 ForceField.Charge=0.0
     44     Se    -0.10210306     0.42809317     2.76848439       ForceField.Type=Se3+2 ForceField.Charge=0.0
     45     Se     1.99390433     3.04189532     0.76008652       ForceField.Type=Se3+2 ForceField.Charge=0.0
     46     Se     1.00962151    -0.89445285     5.11138499       ForceField.Type=Se3+2 ForceField.Charge=0.0
     47     Se     0.07046902     0.23044439     6.51864107       ForceField.Type=Se3+2 ForceField.Charge=0.0
     48     Se     2.05686860     3.14554594     4.46822630       ForceField.Type=Se3+2 ForceField.Charge=0.0
     49     Se    -1.94711901     3.60412782    -2.54818474       ForceField.Type=Se3+2 ForceField.Charge=0.0
     50     Se    -2.06800027     5.12439875    -1.20182375       ForceField.Type=Se3+2 ForceField.Charge=0.0
     51     Se     0.83640233     7.24464561    -3.20747835       ForceField.Type=Se3+2 ForceField.Charge=0.0
     52     Se    -2.02736849     3.38789265     1.13507085       ForceField.Type=Se3+2 ForceField.Charge=0.0
     53     Se    -2.43612450     4.81597265     2.52715768       ForceField.Type=Se3+2 ForceField.Charge=0.0
     54     Se    -0.04116078     7.81403470     0.95625392       ForceField.Type=Se3+2 ForceField.Charge=0.0
     55     Se    -2.00927628     3.06384532     4.81607184       ForceField.Type=Se3+2 ForceField.Charge=0.0
     56     Se    -2.74353106     4.28317728     6.26549415       ForceField.Type=Se3+2 ForceField.Charge=0.0
     57     Se    -0.57831961     7.50587535     5.02564574       ForceField.Type=Se3+2 ForceField.Charge=0.0
     58     Se     7.16931311    -3.77545478    -1.41509170       ForceField.Type=Se3+2 ForceField.Charge=0.0
     59     Se     5.53812814    -4.87972454    -0.91937059       ForceField.Type=Se3+2 ForceField.Charge=0.0
     60     Se     8.33575532    -0.87460797    -4.41776282       ForceField.Type=Se3+2 ForceField.Charge=0.0
     61     Se     7.80953370    -2.96526737     2.44158413       ForceField.Type=Se3+2 ForceField.Charge=0.0
     62     Se     6.50294624    -4.40562314     3.02686845       ForceField.Type=Se3+2 ForceField.Charge=0.0
     63     Se     8.88529180    -0.15014763    -0.39058414       ForceField.Type=Se3+2 ForceField.Charge=0.0
     64     Se     8.04332914    -2.52640131     6.33704271       ForceField.Type=Se3+2 ForceField.Charge=0.0
     65     Se     7.40956250    -1.42230238     7.91918601       ForceField.Type=Se3+2 ForceField.Charge=0.0
     66     Se     9.17242717     0.67498112     3.66366183       ForceField.Type=Se3+2 ForceField.Charge=0.0
     67     Se     5.19815834    -0.34299277    -2.06217806       ForceField.Type=Se3+2 ForceField.Charge=0.0
     68     Se     3.71522978    -0.01949506    -0.71122389       ForceField.Type=Se3+2 ForceField.Charge=0.0
     69     Se     6.01352144     2.74960007    -4.38100992       ForceField.Type=Se3+2 ForceField.Charge=0.0
     70     Se     5.45674574     0.27072876     1.60100723       ForceField.Type=Se3+2 ForceField.Charge=0.0
     71     Se     3.95560336     0.30727308     2.97186737       ForceField.Type=Se3+2 ForceField.Charge=0.0
     72     Se     6.74822134     3.40606047    -0.25233614       ForceField.Type=Se3+2 ForceField.Charge=0.0
     73     Se     5.59200002     1.05247362     5.25583356       ForceField.Type=Se3+2 ForceField.Charge=0.0
     74     Se     4.20685950     0.71459713     6.70416138       ForceField.Type=Se3+2 ForceField.Charge=0.0
     75     Se     6.48860754     4.56312588     3.69021219       ForceField.Type=Se3+2 ForceField.Charge=0.0
     76     Se     3.21191677     3.90273158    -1.73697393       ForceField.Type=Se3+2 ForceField.Charge=0.0
     77     Se     1.66783620     4.53920458    -0.57681427       ForceField.Type=Se3+2 ForceField.Charge=0.0
     78     Se     4.68834269     6.70425180    -4.25096870       ForceField.Type=Se3+2 ForceField.Charge=0.0
     79     Se     3.03060766     4.29491611     1.98109859       ForceField.Type=Se3+2 ForceField.Charge=0.0
     80     Se     1.39783754     4.56349388     3.16646474       ForceField.Type=Se3+2 ForceField.Charge=0.0
     81     Se     4.94335599     7.19268330    -0.02920765       ForceField.Type=Se3+2 ForceField.Charge=0.0
 
Total System Charge             0.00000
Bonding info available!
 
 
------------------------
MM Engine configuration
------------------------
Force field type             UFF
 

Relaxing 243 nuclear degrees of freedom with FIRE.
 Rigid motions settings for: FIRE
 Atomic rotations (x,y,z):     T T T
 Atomic translations (x,y,z):  T T T
 Tolerance:                   1.000000000000000E-006
 
------------------------
UFF Engine configuration
------------------------
UFF Parameters file          general_db
UFF Elements file            elements_db
UFF MMAtomTypes file         mmatomtypes_db
 
  atom type UFF index
          1        55
-----------------------
Assumed Input Structure
-----------------------
Atoms [Angstrom]
      Se       2.8306728624    4.5625190709    5.7028743624       Se3+2   0.000000000000
      Se       1.2451724939    4.3677233559    6.9588434469       Se3+2   0.000000000000
      Se       3.2605170002    8.1110473708    3.6092936032       Se3+2   0.000000000000
      Se      -2.4010023775   -4.0548783591   -1.8932466401       Se3+2   0.000000000000
      Se      -3.9250836360   -2.9977216503   -1.0659233299       Se3+2   0.000000000000
      Se      -1.4783274425   -0.3506655686   -3.4072096906       Se3+2   0.000000000000
      Se      -1.3519503911   -4.5195288660    2.0286291949       Se3+2   0.000000000000
      Se      -3.0976465174   -3.8891261465    2.8537128085       Se3+2   0.000000000000
      Se      -1.1452088614   -0.7655689596    0.3240591307       Se3+2   0.000000000000
      Se      -0.0459858865   -4.8935415155    5.9189543134       Se3+2   0.000000000000
      Se      -1.4437133165   -3.7796167981    6.8828016495       Se3+2   0.000000000000
      Se      -0.7059095587   -1.0482932057    4.0312806282       Se3+2   0.000000000000
      Se      -5.1654169338    1.0803809089   -3.4299602040       Se3+2   0.000000000000
      Se      -4.8442010407    0.8100219534   -1.4431823960       Se3+2   0.000000000000
      Se      -3.1138996372    4.6237233555   -3.8617180887       Se3+2   0.000000000000
      Se      -4.3025111441    0.0120077664    2.3669060441       Se3+2   0.000000000000
      Se      -6.0599817943   -0.9900508089    2.1953694621       Se3+2   0.000000000000
      Se      -3.4606948543    4.1171080799   -0.1127373975       Se3+2   0.000000000000
      Se      -4.0172567703   -0.8652550445    6.1789166699       Se3+2   0.000000000000
      Se      -3.7780621880    0.5646681289    7.6010190248       Se3+2   0.000000000000
      Se      -3.5740993848    3.5110821434    3.5972508529       Se3+2   0.000000000000
      Se      -6.8255681575    4.5291083426   -2.4180975677       Se3+2   0.000000000000
      Se      -6.2663926391    6.4515041876   -2.0779579150       Se3+2   0.000000000000
      Se      -2.9294371746    8.6292695350   -2.9912075534       Se3+2   0.000000000000
      Se      -6.9450224098    3.0660294016    1.3647812462       Se3+2   0.000000000000
      Se      -6.8359568494    5.0115968290    1.9387969301       Se3+2   0.000000000000
      Se      -4.1995708979    8.0663324475    0.9337589638       Se3+2   0.000000000000
      Se      -6.9420144741    1.8091218893    5.1989020185       Se3+2   0.000000000000
      Se      -6.8428111381    3.6829485168    5.9768927483       Se3+2   0.000000000000
      Se      -4.7669234485    7.3557193438    4.8096485813       Se3+2   0.000000000000
      Se       1.4903918716   -4.7774267235   -2.5885732102       Se3+2   0.000000000000
      Se       1.6518442235   -4.0945238912   -0.6830137528       Se3+2   0.000000000000
      Se       4.0270834682   -1.6542653426   -3.0813690812       Se3+2   0.000000000000
      Se       2.5998853681   -5.8010019795    2.9706297539       Se3+2   0.000000000000
      Se       2.6242957252   -3.7738453496    3.0868388638       Se3+2   0.000000000000
      Se       4.5844545480   -1.2871901595    0.6235405937       Se3+2   0.000000000000
      Se       3.8361611778   -3.4143368965    6.8483446819       Se3+2   0.000000000000
      Se       2.6054361340   -2.6958244181    8.2958006746       Se3+2   0.000000000000
      Se       5.1013420631   -0.6888400785    4.3253483199       Se3+2   0.000000000000
      Se       0.1289956722   -0.9020081534   -2.2938946486       Se3+2   0.000000000000
      Se      -0.2653328797    0.5625839768   -0.9405728901       Se3+2   0.000000000000
      Se       1.9267208233    2.9775275204   -3.0106231982       Se3+2   0.000000000000
      Se       0.5653146075   -0.9346315549    1.4127960240       Se3+2   0.000000000000
      Se      -0.1021030623    0.4280931656    2.7684843922       Se3+2   0.000000000000
      Se       1.9939043331    3.0418953225    0.7600865200       Se3+2   0.000000000000
      Se       1.0096215113   -0.8944528543    5.1113849926       Se3+2   0.000000000000
      Se       0.0704690244    0.2304443940    6.5186410678       Se3+2   0.000000000000
      Se       2.0568686004    3.1455459366    4.4682262979       Se3+2   0.000000000000
      Se      -1.9471190087    3.6041278173   -2.5481847408       Se3+2   0.000000000000
      Se      -2.0680002688    5.1243987499   -1.2018237494       Se3+2   0.000000000000
      Se       0.8364023275    7.2446456079   -3.2074783517       Se3+2   0.000000000000
      Se      -2.0273684878    3.3878926536    1.1350708535       Se3+2   0.000000000000
      Se      -2.4361244968    4.8159726516    2.5271576795       Se3+2   0.000000000000
      Se      -0.0411607799    7.8140347047    0.9562539194       Se3+2   0.000000000000
      Se      -2.0092762840    3.0638453168    4.8160718351       Se3+2   0.000000000000
      Se      -2.7435310603    4.2831772805    6.2654941546       Se3+2   0.000000000000
      Se      -0.5783196084    7.5058753507    5.0256457376       Se3+2   0.000000000000
      Se       7.1693131078   -3.7754547816   -1.4150916978       Se3+2   0.000000000000
      Se       5.5381281388   -4.8797245376   -0.9193705887       Se3+2   0.000000000000
      Se       8.3357553185   -0.8746079685   -4.4177628237       Se3+2   0.000000000000
      Se       7.8095337047   -2.9652673748    2.4415841305       Se3+2   0.000000000000
      Se       6.5029462447   -4.4056231380    3.0268684549       Se3+2   0.000000000000
      Se       8.8852917964   -0.1501476346   -0.3905841433       Se3+2   0.000000000000
      Se       8.0433291441   -2.5264013050    6.3370427076       Se3+2   0.000000000000
      Se       7.4095624997   -1.4223023806    7.9191860095       Se3+2   0.000000000000
      Se       9.1724271709    0.6749811194    3.6636618278       Se3+2   0.000000000000
      Se       5.1981583384   -0.3429927670   -2.0621780553       Se3+2   0.000000000000
      Se       3.7152297808   -0.0194950594   -0.7112238921       Se3+2   0.000000000000
      Se       6.0135214434    2.7496000661   -4.3810099207       Se3+2   0.000000000000
      Se       5.4567457354    0.2707287564    1.6010072275       Se3+2   0.000000000000
      Se       3.9556033595    0.3072730819    2.9718673732       Se3+2   0.000000000000
      Se       6.7482213397    3.4060604702   -0.2523361427       Se3+2   0.000000000000
      Se       5.5920000162    1.0524736175    5.2558335577       Se3+2   0.000000000000
      Se       4.2068594995    0.7145971309    6.7041613797       Se3+2   0.000000000000
      Se       6.4886075363    4.5631258828    3.6902121896       Se3+2   0.000000000000
      Se       3.2119167735    3.9027315847   -1.7369739305       Se3+2   0.000000000000
      Se       1.6678362010    4.5392045830   -0.5768142734       Se3+2   0.000000000000
      Se       4.6883426879    6.7042518045   -4.2509687040       Se3+2   0.000000000000
      Se       3.0306076568    4.2949161110    1.9810985900       Se3+2   0.000000000000
      Se       1.3978375395    4.5634938771    3.1664647405       Se3+2   0.000000000000
      Se       4.9433559916    7.1926832961   -0.0292076523       Se3+2   0.000000000000
End

Bonds
    1      2    3.000000000000
    1     48    3.000000000000
    4      5    3.000000000000
    6     40    3.000000000000
    7      8    3.000000000000
    9     41    3.000000000000
    9     43    3.000000000000
   10     11    3.000000000000
   12     44    3.000000000000
   12     46    3.000000000000
   13     14    3.000000000000
   15     49    3.000000000000
   16     17    3.000000000000
   18     50    3.000000000000
   18     52    3.000000000000
   19     20    3.000000000000
   21     53    3.000000000000
   21     55    3.000000000000
   22     23    3.000000000000
   25     26    3.000000000000
   28     29    3.000000000000
   31     32    3.000000000000
   33     67    3.000000000000
   34     35    3.000000000000
   36     68    3.000000000000
   36     70    3.000000000000
   37     38    3.000000000000
   39     71    3.000000000000
   39     73    3.000000000000
   40     41    3.000000000000
   42     76    3.000000000000
   43     44    3.000000000000
   45     77    3.000000000000
   45     79    3.000000000000
   46     47    3.000000000000
   48     80    3.000000000000
   49     50    3.000000000000
   52     53    3.000000000000
   55     56    3.000000000000
   58     59    3.000000000000
   61     62    3.000000000000
   64     65    3.000000000000
   67     68    3.000000000000
   70     71    3.000000000000
   73     74    3.000000000000
   76     77    3.000000000000
   79     80    3.000000000000
End


Geometry at FIRE step 1:
 
--------
Geometry
--------
Formula: Se81
Atoms
  Index Symbol   x (angstrom)   y (angstrom)   z (angstrom)
      1     Se     2.83067217     4.56251831     5.70287491       ForceField.Type=Se3+2 ForceField.Charge=0.0
      2     Se     1.24517121     4.36772613     6.95884359       ForceField.Type=Se3+2 ForceField.Charge=0.0
      3     Se     3.26051803     8.11104527     3.60929358       ForceField.Type=Se3+2 ForceField.Charge=0.0
      4     Se    -2.40100411    -4.05487841    -1.89324409       ForceField.Type=Se3+2 ForceField.Charge=0.0
      5     Se    -3.92509040    -2.99772621    -1.06592394       ForceField.Type=Se3+2 ForceField.Charge=0.0
      6     Se    -1.47832609    -0.35066533    -3.40721132       ForceField.Type=Se3+2 ForceField.Charge=0.0
      7     Se    -1.35194850    -4.51952725     2.02863039       ForceField.Type=Se3+2 ForceField.Charge=0.0
      8     Se    -3.09764568    -3.88912594     2.85371347       ForceField.Type=Se3+2 ForceField.Charge=0.0
      9     Se    -1.14520925    -0.76556936     0.32405861       ForceField.Type=Se3+2 ForceField.Charge=0.0
     10     Se    -0.04598487    -4.89353879     5.91895210       ForceField.Type=Se3+2 ForceField.Charge=0.0
     11     Se    -1.44371099    -3.77961568     6.88280376       ForceField.Type=Se3+2 ForceField.Charge=0.0
     12     Se    -0.70591062    -1.04829251     4.03128125       ForceField.Type=Se3+2 ForceField.Charge=0.0
     13     Se    -5.16541712     1.08037783    -3.42996042       ForceField.Type=Se3+2 ForceField.Charge=0.0
     14     Se    -4.84420024     0.81002259    -1.44318270       ForceField.Type=Se3+2 ForceField.Charge=0.0
     15     Se    -3.11390012     4.62372660    -3.86171673       ForceField.Type=Se3+2 ForceField.Charge=0.0
     16     Se    -4.30250887     0.01200558     2.36690501       ForceField.Type=Se3+2 ForceField.Charge=0.0
     17     Se    -6.05998056    -0.99005136     2.19536831       ForceField.Type=Se3+2 ForceField.Charge=0.0
     18     Se    -3.46069316     4.11710955    -0.11273707       ForceField.Type=Se3+2 ForceField.Charge=0.0
     19     Se    -4.01725967    -0.86525232     6.17891437       ForceField.Type=Se3+2 ForceField.Charge=0.0
     20     Se    -3.77806286     0.56467041     7.60101715       ForceField.Type=Se3+2 ForceField.Charge=0.0
     21     Se    -3.57409825     3.51108215     3.59725049       ForceField.Type=Se3+2 ForceField.Charge=0.0
     22     Se    -6.82557220     4.52910813    -2.41809388       ForceField.Type=Se3+2 ForceField.Charge=0.0
     23     Se    -6.26639308     6.45150318    -2.07795463       ForceField.Type=Se3+2 ForceField.Charge=0.0
     24     Se    -2.92943864     8.62927203    -2.99120565       ForceField.Type=Se3+2 ForceField.Charge=0.0
     25     Se    -6.94502365     3.06602832     1.36478216       ForceField.Type=Se3+2 ForceField.Charge=0.0
     26     Se    -6.83595709     5.01159661     1.93879544       ForceField.Type=Se3+2 ForceField.Charge=0.0
     27     Se    -4.19956672     8.06633271     0.93375679       ForceField.Type=Se3+2 ForceField.Charge=0.0
     28     Se    -6.94201135     1.80912269     5.19890059       ForceField.Type=Se3+2 ForceField.Charge=0.0
     29     Se    -6.84280667     3.68294839     5.97688985       ForceField.Type=Se3+2 ForceField.Charge=0.0
     30     Se    -4.76692727     7.35571770     4.80964971       ForceField.Type=Se3+2 ForceField.Charge=0.0
     31     Se     1.49039539    -4.77742668    -2.58857360       ForceField.Type=Se3+2 ForceField.Charge=0.0
     32     Se     1.65184393    -4.09452380    -0.68301383       ForceField.Type=Se3+2 ForceField.Charge=0.0
     33     Se     4.02708359    -1.65426311    -3.08137027       ForceField.Type=Se3+2 ForceField.Charge=0.0
     34     Se     2.59988670    -5.80100044     2.97062707       ForceField.Type=Se3+2 ForceField.Charge=0.0
     35     Se     2.62429769    -3.77384400     3.08683901       ForceField.Type=Se3+2 ForceField.Charge=0.0
     36     Se     4.58445382    -1.28719003     0.62354039       ForceField.Type=Se3+2 ForceField.Charge=0.0
     37     Se     3.83616148    -3.41434082     6.84834527       ForceField.Type=Se3+2 ForceField.Charge=0.0
     38     Se     2.60543663    -2.69582424     8.29579964       ForceField.Type=Se3+2 ForceField.Charge=0.0
     39     Se     5.10134093    -0.68883941     4.32534842       ForceField.Type=Se3+2 ForceField.Charge=0.0
     40     Se     0.12899621    -0.90200761    -2.29389493       ForceField.Type=Se3+2 ForceField.Charge=0.0
     41     Se    -0.26533390     0.56258406    -0.94057318       ForceField.Type=Se3+2 ForceField.Charge=0.0
     42     Se     1.92672246     2.97752685    -3.01062304       ForceField.Type=Se3+2 ForceField.Charge=0.0
     43     Se     0.56531364    -0.93463065     1.41279638       ForceField.Type=Se3+2 ForceField.Charge=0.0
     44     Se    -0.10210495     0.42809382     2.76848454       ForceField.Type=Se3+2 ForceField.Charge=0.0
     45     Se     1.99390454     3.04189324     0.76008763       ForceField.Type=Se3+2 ForceField.Charge=0.0
     46     Se     1.00962080    -0.89445199     5.11138506       ForceField.Type=Se3+2 ForceField.Charge=0.0
     47     Se     0.07046888     0.23044489     6.51864172       ForceField.Type=Se3+2 ForceField.Charge=0.0
     48     Se     2.05686662     3.14554512     4.46822784       ForceField.Type=Se3+2 ForceField.Charge=0.0
     49     Se    -1.94711835     3.60413001    -2.54818535       ForceField.Type=Se3+2 ForceField.Charge=0.0
     50     Se    -2.06799797     5.12439985    -1.20182304       ForceField.Type=Se3+2 ForceField.Charge=0.0
     51     Se     0.83639925     7.24464519    -3.20748085       ForceField.Type=Se3+2 ForceField.Charge=0.0
     52     Se    -2.02736696     3.38789268     1.13507076       ForceField.Type=Se3+2 ForceField.Charge=0.0
     53     Se    -2.43612227     4.81597238     2.52715828       ForceField.Type=Se3+2 ForceField.Charge=0.0
     54     Se    -0.04115835     7.81403162     0.95625435       ForceField.Type=Se3+2 ForceField.Charge=0.0
     55     Se    -2.00927658     3.06384518     4.81607305       ForceField.Type=Se3+2 ForceField.Charge=0.0
     56     Se    -2.74353132     4.28317881     6.26549398       ForceField.Type=Se3+2 ForceField.Charge=0.0
     57     Se    -0.57832149     7.50587340     5.02564511       ForceField.Type=Se3+2 ForceField.Charge=0.0
     58     Se     7.16931350    -3.77545617    -1.41509368       ForceField.Type=Se3+2 ForceField.Charge=0.0
     59     Se     5.53812791    -4.87972342    -0.91936864       ForceField.Type=Se3+2 ForceField.Charge=0.0
     60     Se     8.33575490    -0.87460925    -4.41776360       ForceField.Type=Se3+2 ForceField.Charge=0.0
     61     Se     7.80953545    -2.96526872     2.44157798       ForceField.Type=Se3+2 ForceField.Charge=0.0
     62     Se     6.50294636    -4.40561986     3.02686877       ForceField.Type=Se3+2 ForceField.Charge=0.0
     63     Se     8.88529214    -0.15014792    -0.39058414       ForceField.Type=Se3+2 ForceField.Charge=0.0
     64     Se     8.04332923    -2.52640113     6.33704618       ForceField.Type=Se3+2 ForceField.Charge=0.0
     65     Se     7.40956033    -1.42230190     7.91918868       ForceField.Type=Se3+2 ForceField.Charge=0.0
     66     Se     9.17242476     0.67498194     3.66366029       ForceField.Type=Se3+2 ForceField.Charge=0.0
     67     Se     5.19815756    -0.34299106    -2.06217766       ForceField.Type=Se3+2 ForceField.Charge=0.0
     68     Se     3.71522843    -0.01949505    -0.71122381       ForceField.Type=Se3+2 ForceField.Charge=0.0
     69     Se     6.01352238     2.74959974    -4.38101047       ForceField.Type=Se3+2 ForceField.Charge=0.0
     70     Se     5.45674416     0.27072899     1.60100725       ForceField.Type=Se3+2 ForceField.Charge=0.0
     71     Se     3.95560195     0.30727260     2.97186727       ForceField.Type=Se3+2 ForceField.Charge=0.0
     72     Se     6.74822394     3.40606169    -0.25233668       ForceField.Type=Se3+2 ForceField.Charge=0.0
     73     Se     5.59199772     1.05247451     5.25583333       ForceField.Type=Se3+2 ForceField.Charge=0.0
     74     Se     4.20685850     0.71459708     6.70416191       ForceField.Type=Se3+2 ForceField.Charge=0.0
     75     Se     6.48860996     4.56312610     3.69021210       ForceField.Type=Se3+2 ForceField.Charge=0.0
     76     Se     3.21191752     3.90272968    -1.73697241       ForceField.Type=Se3+2 ForceField.Charge=0.0
     77     Se     1.66783672     4.53920215    -0.57681324       ForceField.Type=Se3+2 ForceField.Charge=0.0
     78     Se     4.68834499     6.70424982    -4.25096705       ForceField.Type=Se3+2 ForceField.Charge=0.0
     79     Se     3.03060751     4.29491383     1.98110002       ForceField.Type=Se3+2 ForceField.Charge=0.0
     80     Se     1.39783696     4.56349265     3.16646519       ForceField.Type=Se3+2 ForceField.Charge=0.0
     81     Se     4.94335333     7.19268156    -0.02920906       ForceField.Type=Se3+2 ForceField.Charge=0.0
 
Total System Charge             0.00000
Bonding info available!
 
Geometry optimization converged

Optimized geometry:
 
--------
Geometry
--------
Formula: Se81
Atoms
  Index Symbol   x (angstrom)   y (angstrom)   z (angstrom)
      1     Se     2.83067217     4.56251831     5.70287491       ForceField.Type=Se3+2 ForceField.Charge=0.0
      2     Se     1.24517121     4.36772613     6.95884359       ForceField.Type=Se3+2 ForceField.Charge=0.0
      3     Se     3.26051803     8.11104527     3.60929358       ForceField.Type=Se3+2 ForceField.Charge=0.0
      4     Se    -2.40100411    -4.05487841    -1.89324409       ForceField.Type=Se3+2 ForceField.Charge=0.0
      5     Se    -3.92509040    -2.99772621    -1.06592394       ForceField.Type=Se3+2 ForceField.Charge=0.0
      6     Se    -1.47832609    -0.35066533    -3.40721132       ForceField.Type=Se3+2 ForceField.Charge=0.0
      7     Se    -1.35194850    -4.51952725     2.02863039       ForceField.Type=Se3+2 ForceField.Charge=0.0
      8     Se    -3.09764568    -3.88912594     2.85371347       ForceField.Type=Se3+2 ForceField.Charge=0.0
      9     Se    -1.14520925    -0.76556936     0.32405861       ForceField.Type=Se3+2 ForceField.Charge=0.0
     10     Se    -0.04598487    -4.89353879     5.91895210       ForceField.Type=Se3+2 ForceField.Charge=0.0
     11     Se    -1.44371099    -3.77961568     6.88280376       ForceField.Type=Se3+2 ForceField.Charge=0.0
     12     Se    -0.70591062    -1.04829251     4.03128125       ForceField.Type=Se3+2 ForceField.Charge=0.0
     13     Se    -5.16541712     1.08037783    -3.42996042       ForceField.Type=Se3+2 ForceField.Charge=0.0
     14     Se    -4.84420024     0.81002259    -1.44318270       ForceField.Type=Se3+2 ForceField.Charge=0.0
     15     Se    -3.11390012     4.62372660    -3.86171673       ForceField.Type=Se3+2 ForceField.Charge=0.0
     16     Se    -4.30250887     0.01200558     2.36690501       ForceField.Type=Se3+2 ForceField.Charge=0.0
     17     Se    -6.05998056    -0.99005136     2.19536831       ForceField.Type=Se3+2 ForceField.Charge=0.0
     18     Se    -3.46069316     4.11710955    -0.11273707       ForceField.Type=Se3+2 ForceField.Charge=0.0
     19     Se    -4.01725967    -0.86525232     6.17891437       ForceField.Type=Se3+2 ForceField.Charge=0.0
     20     Se    -3.77806286     0.56467041     7.60101715       ForceField.Type=Se3+2 ForceField.Charge=0.0
     21     Se    -3.57409825     3.51108215     3.59725049       ForceField.Type=Se3+2 ForceField.Charge=0.0
     22     Se    -6.82557220     4.52910813    -2.41809388       ForceField.Type=Se3+2 ForceField.Charge=0.0
     23     Se    -6.26639308     6.45150318    -2.07795463       ForceField.Type=Se3+2 ForceField.Charge=0.0
     24     Se    -2.92943864     8.62927203    -2.99120565       ForceField.Type=Se3+2 ForceField.Charge=0.0
     25     Se    -6.94502365     3.06602832     1.36478216       ForceField.Type=Se3+2 ForceField.Charge=0.0
     26     Se    -6.83595709     5.01159661     1.93879544       ForceField.Type=Se3+2 ForceField.Charge=0.0
     27     Se    -4.19956672     8.06633271     0.93375679       ForceField.Type=Se3+2 ForceField.Charge=0.0
     28     Se    -6.94201135     1.80912269     5.19890059       ForceField.Type=Se3+2 ForceField.Charge=0.0
     29     Se    -6.84280667     3.68294839     5.97688985       ForceField.Type=Se3+2 ForceField.Charge=0.0
     30     Se    -4.76692727     7.35571770     4.80964971       ForceField.Type=Se3+2 ForceField.Charge=0.0
     31     Se     1.49039539    -4.77742668    -2.58857360       ForceField.Type=Se3+2 ForceField.Charge=0.0
     32     Se     1.65184393    -4.09452380    -0.68301383       ForceField.Type=Se3+2 ForceField.Charge=0.0
     33     Se     4.02708359    -1.65426311    -3.08137027       ForceField.Type=Se3+2 ForceField.Charge=0.0
     34     Se     2.59988670    -5.80100044     2.97062707       ForceField.Type=Se3+2 ForceField.Charge=0.0
     35     Se     2.62429769    -3.77384400     3.08683901       ForceField.Type=Se3+2 ForceField.Charge=0.0
     36     Se     4.58445382    -1.28719003     0.62354039       ForceField.Type=Se3+2 ForceField.Charge=0.0
     37     Se     3.83616148    -3.41434082     6.84834527       ForceField.Type=Se3+2 ForceField.Charge=0.0
     38     Se     2.60543663    -2.69582424     8.29579964       ForceField.Type=Se3+2 ForceField.Charge=0.0
     39     Se     5.10134093    -0.68883941     4.32534842       ForceField.Type=Se3+2 ForceField.Charge=0.0
     40     Se     0.12899621    -0.90200761    -2.29389493       ForceField.Type=Se3+2 ForceField.Charge=0.0
     41     Se    -0.26533390     0.56258406    -0.94057318       ForceField.Type=Se3+2 ForceField.Charge=0.0
     42     Se     1.92672246     2.97752685    -3.01062304       ForceField.Type=Se3+2 ForceField.Charge=0.0
     43     Se     0.56531364    -0.93463065     1.41279638       ForceField.Type=Se3+2 ForceField.Charge=0.0
     44     Se    -0.10210495     0.42809382     2.76848454       ForceField.Type=Se3+2 ForceField.Charge=0.0
     45     Se     1.99390454     3.04189324     0.76008763       ForceField.Type=Se3+2 ForceField.Charge=0.0
     46     Se     1.00962080    -0.89445199     5.11138506       ForceField.Type=Se3+2 ForceField.Charge=0.0
     47     Se     0.07046888     0.23044489     6.51864172       ForceField.Type=Se3+2 ForceField.Charge=0.0
     48     Se     2.05686662     3.14554512     4.46822784       ForceField.Type=Se3+2 ForceField.Charge=0.0
     49     Se    -1.94711835     3.60413001    -2.54818535       ForceField.Type=Se3+2 ForceField.Charge=0.0
     50     Se    -2.06799797     5.12439985    -1.20182304       ForceField.Type=Se3+2 ForceField.Charge=0.0
     51     Se     0.83639925     7.24464519    -3.20748085       ForceField.Type=Se3+2 ForceField.Charge=0.0
     52     Se    -2.02736696     3.38789268     1.13507076       ForceField.Type=Se3+2 ForceField.Charge=0.0
     53     Se    -2.43612227     4.81597238     2.52715828       ForceField.Type=Se3+2 ForceField.Charge=0.0
     54     Se    -0.04115835     7.81403162     0.95625435       ForceField.Type=Se3+2 ForceField.Charge=0.0
     55     Se    -2.00927658     3.06384518     4.81607305       ForceField.Type=Se3+2 ForceField.Charge=0.0
     56     Se    -2.74353132     4.28317881     6.26549398       ForceField.Type=Se3+2 ForceField.Charge=0.0
     57     Se    -0.57832149     7.50587340     5.02564511       ForceField.Type=Se3+2 ForceField.Charge=0.0
     58     Se     7.16931350    -3.77545617    -1.41509368       ForceField.Type=Se3+2 ForceField.Charge=0.0
     59     Se     5.53812791    -4.87972342    -0.91936864       ForceField.Type=Se3+2 ForceField.Charge=0.0
     60     Se     8.33575490    -0.87460925    -4.41776360       ForceField.Type=Se3+2 ForceField.Charge=0.0
     61     Se     7.80953545    -2.96526872     2.44157798       ForceField.Type=Se3+2 ForceField.Charge=0.0
     62     Se     6.50294636    -4.40561986     3.02686877       ForceField.Type=Se3+2 ForceField.Charge=0.0
     63     Se     8.88529214    -0.15014792    -0.39058414       ForceField.Type=Se3+2 ForceField.Charge=0.0
     64     Se     8.04332923    -2.52640113     6.33704618       ForceField.Type=Se3+2 ForceField.Charge=0.0
     65     Se     7.40956033    -1.42230190     7.91918868       ForceField.Type=Se3+2 ForceField.Charge=0.0
     66     Se     9.17242476     0.67498194     3.66366029       ForceField.Type=Se3+2 ForceField.Charge=0.0
     67     Se     5.19815756    -0.34299106    -2.06217766       ForceField.Type=Se3+2 ForceField.Charge=0.0
     68     Se     3.71522843    -0.01949505    -0.71122381       ForceField.Type=Se3+2 ForceField.Charge=0.0
     69     Se     6.01352238     2.74959974    -4.38101047       ForceField.Type=Se3+2 ForceField.Charge=0.0
     70     Se     5.45674416     0.27072899     1.60100725       ForceField.Type=Se3+2 ForceField.Charge=0.0
     71     Se     3.95560195     0.30727260     2.97186727       ForceField.Type=Se3+2 ForceField.Charge=0.0
     72     Se     6.74822394     3.40606169    -0.25233668       ForceField.Type=Se3+2 ForceField.Charge=0.0
     73     Se     5.59199772     1.05247451     5.25583333       ForceField.Type=Se3+2 ForceField.Charge=0.0
     74     Se     4.20685850     0.71459708     6.70416191       ForceField.Type=Se3+2 ForceField.Charge=0.0
     75     Se     6.48860996     4.56312610     3.69021210       ForceField.Type=Se3+2 ForceField.Charge=0.0
     76     Se     3.21191752     3.90272968    -1.73697241       ForceField.Type=Se3+2 ForceField.Charge=0.0
     77     Se     1.66783672     4.53920215    -0.57681324       ForceField.Type=Se3+2 ForceField.Charge=0.0
     78     Se     4.68834499     6.70424982    -4.25096705       ForceField.Type=Se3+2 ForceField.Charge=0.0
     79     Se     3.03060751     4.29491383     1.98110002       ForceField.Type=Se3+2 ForceField.Charge=0.0
     80     Se     1.39783696     4.56349265     3.16646519       ForceField.Type=Se3+2 ForceField.Charge=0.0
     81     Se     4.94335333     7.19268156    -0.02920906       ForceField.Type=Se3+2 ForceField.Charge=0.0
 
Total System Charge             0.00000
Bonding info available!
 
Performing a single point calculation on the final geometry ...

-----------------------
Assumed Input Structure
-----------------------
Atoms [Angstrom]
      Se       2.8306721676    4.5625183062    5.7028749097       Se3+2   0.000000000000
      Se       1.2451712079    4.3677261262    6.9588435859       Se3+2   0.000000000000
      Se       3.2605180292    8.1110452667    3.6092935822       Se3+2   0.000000000000
      Se      -2.4010041115   -4.0548784126   -1.8932440945       Se3+2   0.000000000000
      Se      -3.9250903954   -2.9977262134   -1.0659239426       Se3+2   0.000000000000
      Se      -1.4783260948   -0.3506653276   -3.4072113210       Se3+2   0.000000000000
      Se      -1.3519484953   -4.5195272547    2.0286303925       Se3+2   0.000000000000
      Se      -3.0976456788   -3.8891259368    2.8537134740       Se3+2   0.000000000000
      Se      -1.1452092541   -0.7655693649    0.3240586114       Se3+2   0.000000000000
      Se      -0.0459848679   -4.8935387936    5.9189521024       Se3+2   0.000000000000
      Se      -1.4437109938   -3.7796156826    6.8828037600       Se3+2   0.000000000000
      Se      -0.7059106163   -1.0482925141    4.0312812472       Se3+2   0.000000000000
      Se      -5.1654171192    1.0803778254   -3.4299604224       Se3+2   0.000000000000
      Se      -4.8442002412    0.8100225850   -1.4431827002       Se3+2   0.000000000000
      Se      -3.1139001164    4.6237266019   -3.8617167324       Se3+2   0.000000000000
      Se      -4.3025088729    0.0120055789    2.3669050145       Se3+2   0.000000000000
      Se      -6.0599805632   -0.9900513623    2.1953683083       Se3+2   0.000000000000
      Se      -3.4606931565    4.1171095462   -0.1127370690       Se3+2   0.000000000000
      Se      -4.0172596731   -0.8652523216    6.1789143690       Se3+2   0.000000000000
      Se      -3.7780628555    0.5646704079    7.6010171490       Se3+2   0.000000000000
      Se      -3.5740982452    3.5110821520    3.5972504939       Se3+2   0.000000000000
      Se      -6.8255721993    4.5291081321   -2.4180938763       Se3+2   0.000000000000
      Se      -6.2663930801    6.4515031797   -2.0779546327       Se3+2   0.000000000000
      Se      -2.9294386377    8.6292720310   -2.9912056549       Se3+2   0.000000000000
      Se      -6.9450236528    3.0660283183    1.3647821558       Se3+2   0.000000000000
      Se      -6.8359570876    5.0115966090    1.9387954403       Se3+2   0.000000000000
      Se      -4.1995667217    8.0663327148    0.9337567908       Se3+2   0.000000000000
      Se      -6.9420113470    1.8091226932    5.1989005865       Se3+2   0.000000000000
      Se      -6.8428066655    3.6829483897    5.9768898457       Se3+2   0.000000000000
      Se      -4.7669272684    7.3557176957    4.8096497111       Se3+2   0.000000000000
      Se       1.4903953941   -4.7774266815   -2.5885736007       Se3+2   0.000000000000
      Se       1.6518439264   -4.0945237985   -0.6830138264       Se3+2   0.000000000000
      Se       4.0270835880   -1.6542631052   -3.0813702701       Se3+2   0.000000000000
      Se       2.5998866979   -5.8010004359    2.9706270708       Se3+2   0.000000000000
      Se       2.6242976916   -3.7738439972    3.0868390135       Se3+2   0.000000000000
      Se       4.5844538213   -1.2871900252    0.6235403866       Se3+2   0.000000000000
      Se       3.8361614770   -3.4143408248    6.8483452712       Se3+2   0.000000000000
      Se       2.6054366270   -2.6958242364    8.2957996382       Se3+2   0.000000000000
      Se       5.1013409311   -0.6888394068    4.3253484181       Se3+2   0.000000000000
      Se       0.1289962123   -0.9020076062   -2.2938949308       Se3+2   0.000000000000
      Se      -0.2653339010    0.5625840574   -0.9405731803       Se3+2   0.000000000000
      Se       1.9267224614    2.9775268483   -3.0106230414       Se3+2   0.000000000000
      Se       0.5653136415   -0.9346306489    1.4127963782       Se3+2   0.000000000000
      Se      -0.1021049530    0.4280938208    2.7684845415       Se3+2   0.000000000000
      Se       1.9939045393    3.0418932402    0.7600876314       Se3+2   0.000000000000
      Se       1.0096207979   -0.8944519920    5.1113850559       Se3+2   0.000000000000
      Se       0.0704688814    0.2304448869    6.5186417196       Se3+2   0.000000000000
      Se       2.0568666212    3.1455451238    4.4682278371       Se3+2   0.000000000000
      Se      -1.9471183520    3.6041300137   -2.5481853504       Se3+2   0.000000000000
      Se      -2.0679979659    5.1243998516   -1.2018230428       Se3+2   0.000000000000
      Se       0.8363992495    7.2446451906   -3.2074808458       Se3+2   0.000000000000
      Se      -2.0273669635    3.3878926809    1.1350707634       Se3+2   0.000000000000
      Se      -2.4361222669    4.8159723828    2.5271582777       Se3+2   0.000000000000
      Se      -0.0411583470    7.8140316158    0.9562543481       Se3+2   0.000000000000
      Se      -2.0092765826    3.0638451812    4.8160730486       Se3+2   0.000000000000
      Se      -2.7435313225    4.2831788082    6.2654939765       Se3+2   0.000000000000
      Se      -0.5783214867    7.5058734030    5.0256451066       Se3+2   0.000000000000
      Se       7.1693135000   -3.7754561734   -1.4150936782       Se3+2   0.000000000000
      Se       5.5381279071   -4.8797234235   -0.9193686352       Se3+2   0.000000000000
      Se       8.3357548990   -0.8746092516   -4.4177636020       Se3+2   0.000000000000
      Se       7.8095354473   -2.9652687209    2.4415779803       Se3+2   0.000000000000
      Se       6.5029463561   -4.4056198556    3.0268687693       Se3+2   0.000000000000
      Se       8.8852921379   -0.1501479156   -0.3905841430       Se3+2   0.000000000000
      Se       8.0433292251   -2.5264011254    6.3370461766       Se3+2   0.000000000000
      Se       7.4095603322   -1.4223018988    7.9191886820       Se3+2   0.000000000000
      Se       9.1724247590    0.6749819427    3.6636602876       Se3+2   0.000000000000
      Se       5.1981575618   -0.3429910611   -2.0621776555       Se3+2   0.000000000000
      Se       3.7152284332   -0.0194950519   -0.7112238109       Se3+2   0.000000000000
      Se       6.0135223787    2.7495997447   -4.3810104745       Se3+2   0.000000000000
      Se       5.4567441570    0.2707289862    1.6010072538       Se3+2   0.000000000000
      Se       3.9556019549    0.3072725976    2.9718672707       Se3+2   0.000000000000
      Se       6.7482239387    3.4060616942   -0.2523366754       Se3+2   0.000000000000
      Se       5.5919977167    1.0524745138    5.2558333313       Se3+2   0.000000000000
      Se       4.2068585004    0.7145970758    6.7041619079       Se3+2   0.000000000000
      Se       6.4886099604    4.5631260950    3.6902120979       Se3+2   0.000000000000
      Se       3.2119175231    3.9027296842   -1.7369724107       Se3+2   0.000000000000
      Se       1.6678367159    4.5392021460   -0.5768132387       Se3+2   0.000000000000
      Se       4.6883449881    6.7042498215   -4.2509670517       Se3+2   0.000000000000
      Se       3.0306075075    4.2949138278    1.9811000185       Se3+2   0.000000000000
      Se       1.3978369615    4.5634926517    3.1664651854       Se3+2   0.000000000000
      Se       4.9433533271    7.1926815605   -0.0292090643       Se3+2   0.000000000000
End

Bonds
    1      2    3.000000000000
    1     48    3.000000000000
    4      5    3.000000000000
    6     40    3.000000000000
    7      8    3.000000000000
    9     41    3.000000000000
    9     43    3.000000000000
   10     11    3.000000000000
   12     44    3.000000000000
   12     46    3.000000000000
   13     14    3.000000000000
   15     49    3.000000000000
   16     17    3.000000000000
   18     50    3.000000000000
   18     52    3.000000000000
   19     20    3.000000000000
   21     53    3.000000000000
   21     55    3.000000000000
   22     23    3.000000000000
   25     26    3.000000000000
   28     29    3.000000000000
   31     32    3.000000000000
   33     67    3.000000000000
   34     35    3.000000000000
   36     68    3.000000000000
   36     70    3.000000000000
   37     38    3.000000000000
   39     71    3.000000000000
   39     73    3.000000000000
   40     41    3.000000000000
   42     76    3.000000000000
   43     44    3.000000000000
   45     77    3.000000000000
   45     79    3.000000000000
   46     47    3.000000000000
   48     80    3.000000000000
   49     50    3.000000000000
   52     53    3.000000000000
   55     56    3.000000000000
   58     59    3.000000000000
   61     62    3.000000000000
   64     65    3.000000000000
   67     68    3.000000000000
   70     71    3.000000000000
   73     74    3.000000000000
   76     77    3.000000000000
   79     80    3.000000000000
End

Scanning modes in range provided by user.
Scanning Mode: 7
Old/New Frequency [cm-1]:    -4.914926/   -4.909233

Scanning Mode: 8
Old/New Frequency [cm-1]:    -2.937828/   -2.939518

Scanning Mode: 9
Old/New Frequency [cm-1]:    -1.634526/   -1.637622

Scanning Mode: 10
Old/New Frequency [cm-1]:    -1.051014/   -1.046602

Scanning Mode: 11
Old/New Frequency [cm-1]:     2.761301/    2.761919

Scanning Mode: 12
Old/New Frequency [cm-1]:     4.397552/    4.399096

Scanning Mode: 13
Old/New Frequency [cm-1]:     4.713847/    4.715233

Scanning Mode: 14
Old/New Frequency [cm-1]:     5.063615/    5.065361

Scanning Mode: 15
Old/New Frequency [cm-1]:     5.554727/    5.556981

Scanning Mode: 16
Old/New Frequency [cm-1]:     6.522301/    6.524307

Scanning Mode: 17
Old/New Frequency [cm-1]:     6.641262/    6.643231

Scanning Mode: 18
Old/New Frequency [cm-1]:     7.303073/    7.305838

Scanning Mode: 19
Old/New Frequency [cm-1]:     7.625241/    7.628433

Scanning Mode: 20
Old/New Frequency [cm-1]:     8.061352/    8.064940

Scanning Mode: 21
Old/New Frequency [cm-1]:     8.241293/    8.244765

Scanning Mode: 22
Old/New Frequency [cm-1]:     8.616011/    8.619692

Scanning Mode: 23
Old/New Frequency [cm-1]:     8.881068/    8.884770

Scanning Mode: 24
Old/New Frequency [cm-1]:     9.191981/    9.195934

Scanning Mode: 25
Old/New Frequency [cm-1]:     9.370130/    9.373948

Scanning Mode: 26
Old/New Frequency [cm-1]:     9.923878/    9.927455



    =====================
     CALCULATION RESULTS
    =====================

Energy (hartree)            -0.21105441

Gradients (hartree/bohr)
  Index   Atom            d/dx            d/dy            d/dz
      1     Se    0.0000447212    0.0000492588   -0.0000352782
      2     Se    0.0000830019   -0.0001786485   -0.0000089976
      3     Se   -0.0000663660    0.0001357035    0.0000013508
      4     Se    0.0001118726    0.0000034084   -0.0001642096
      5     Se    0.0004358814    0.0002943061    0.0000395272
      6     Se   -0.0000869204   -0.0000155449    0.0001051291
      7     Se   -0.0001221517   -0.0001039620   -0.0000772890
      8     Se   -0.0000541970   -0.0000134759   -0.0000428645
      9     Se    0.0000254681    0.0000261904    0.0000334960
     10     Se   -0.0000655993   -0.0001756225    0.0001425301
     11     Se   -0.0001498931   -0.0000718836   -0.0001360574
     12     Se    0.0000682337   -0.0000445880   -0.0000399140
     13     Se    0.0000119896    0.0001988279    0.0000142887
     14     Se   -0.0000516021   -0.0000407049    0.0000194068
     15     Se    0.0000309430   -0.0002094100   -0.0000874560
     16     Se   -0.0001464257    0.0001410918    0.0000664118
     17     Se   -0.0000794506    0.0000356633    0.0000744091
     18     Se   -0.0001095739   -0.0000945279   -0.0000212099
     19     Se    0.0001871906   -0.0001756902    0.0001483012
     20     Se    0.0000430667   -0.0001468939    0.0001210630
     21     Se   -0.0000733936   -0.0000005553    0.0000231646
     22     Se    0.0002606394    0.0000135076   -0.0002380837
     23     Se    0.0000284724    0.0000650845   -0.0002116762
     24     Se    0.0000943693   -0.0001609825   -0.0001224427
     25     Se    0.0000801447    0.0000697670   -0.0000586959
     26     Se    0.0000153594    0.0000142911    0.0000961121
     27     Se   -0.0002693480   -0.0000172394    0.0001401228
     28     Se   -0.0002016428   -0.0000512141    0.0000926246
     29     Se   -0.0002884871    0.0000075642    0.0001869379
     30     Se    0.0002463707    0.0001062942   -0.0000728515
     31     Se   -0.0002271823   -0.0000027134    0.0000251793
     32     Se    0.0000191650   -0.0000059797    0.0000047537
     33     Se   -0.0000077134   -0.0001442784    0.0000766900
     34     Se   -0.0000857684   -0.0000995497    0.0001730539
     35     Se   -0.0001268135   -0.0000872420   -0.0000096500
     36     Se    0.0000469232   -0.0000085945    0.0000133964
     37     Se   -0.0000192491    0.0002533154   -0.0000380624
     38     Se   -0.0000318529   -0.0000116860    0.0000669086
     39     Se    0.0000729439   -0.0000431097   -0.0000063791
     40     Se   -0.0000348372   -0.0000352527    0.0000182021
     41     Se    0.0000658372   -0.0000052866    0.0000187289
     42     Se   -0.0001055398    0.0000434077   -0.0000100509
     43     Se    0.0000621826   -0.0000583845   -0.0000228621
     44     Se    0.0001219636   -0.0000422821   -0.0000096303
     45     Se   -0.0000132847    0.0001344660   -0.0000717258
     46     Se    0.0000459701   -0.0000556071   -0.0000040460
     47     Se    0.0000092607   -0.0000318024   -0.0000420505
     48     Se    0.0001276573    0.0000524884   -0.0000992597
     49     Se   -0.0000423855   -0.0001415838    0.0000392883
     50     Se   -0.0001484900   -0.0000710937   -0.0000455749
     51     Se    0.0001985042    0.0000269308    0.0001608509
     52     Se   -0.0000982274   -0.0000018451    0.0000057969
     53     Se   -0.0001438527    0.0000173722   -0.0000385247
     54     Se   -0.0001569234    0.0001992135   -0.0000276497
     55     Se    0.0000191679    0.0000087682   -0.0000782770
     56     Se    0.0000169294   -0.0000985276    0.0000114867
     57     Se    0.0001211411    0.0001256132    0.0000406990
     58     Se   -0.0000252471    0.0000897896    0.0001277292
     59     Se    0.0000148997   -0.0000718821   -0.0001259769
     60     Se    0.0000270648    0.0000827557    0.0000501944
     61     Se   -0.0001125069    0.0000866696    0.0003966733
     62     Se   -0.0000070743   -0.0002115677   -0.0000203367
     63     Se   -0.0000220152    0.0000181228   -0.0000000086
     64     Se   -0.0000051740   -0.0000116556   -0.0002237928
     65     Se    0.0001397621   -0.0000310109   -0.0001722701
     66     Se    0.0001555587   -0.0000530934    0.0000993339
     67     Se    0.0000500343   -0.0001100313   -0.0000257740
     68     Se    0.0000869292   -0.0000004708   -0.0000052539
     69     Se   -0.0000603275    0.0000207290    0.0000357216
     70     Se    0.0001016412   -0.0000148980   -0.0000016740
     71     Se    0.0000907887    0.0000311494    0.0000066128
     72     Se   -0.0001676235   -0.0000789375    0.0000343552
     73     Se    0.0001481944   -0.0000579570    0.0000146258
     74     Se    0.0000645118    0.0000035893   -0.0000341169
     75     Se   -0.0001563391   -0.0000136889    0.0000059161
     76     Se   -0.0000485733    0.0001225710   -0.0000980421
     77     Se   -0.0000330630    0.0001569954   -0.0000667069
     78     Se   -0.0001483504    0.0001278956   -0.0001065722
     79     Se    0.0000095329    0.0001472122   -0.0000921361
     80     Se    0.0000373292    0.0000790061   -0.0000287075
     81     Se    0.0001718481    0.0001119360    0.0000910652

 -----------------------
 Normal Mode Frequencies
 -----------------------

 Index   Frequency (cm-1)   Red. mass (u)  F const (Ha/Bohr^2)   Intensity (km/mol)
     7            -4.9092         79.9165            -0.000073               0.0000
     8            -2.9395         79.9165            -0.000026               0.0000
     9            -1.6376         79.9165            -0.000008               0.0000
    10            -1.0466         79.9165            -0.000003               0.0000
    11             2.7619         79.9165             0.000023               0.0000
    12             4.3991         79.9165             0.000059               0.0000
    13             4.7152         79.9165             0.000067               0.0000
    14             5.0654         79.9165             0.000078               0.0000
    15             5.5570         79.9165             0.000093               0.0000
    16             6.5243         79.9165             0.000129               0.0000
    17             6.6432         79.9165             0.000133               0.0000
    18             7.3058         79.9165             0.000161               0.0000
    19             7.6284         79.9165             0.000176               0.0000
    20             8.0649         79.9165             0.000197               0.0000
    21             8.2448         79.9165             0.000206               0.0000
    22             8.6197         79.9165             0.000225               0.0000
    23             8.8848         79.9165             0.000239               0.0000
    24             9.1959         79.9165             0.000256               0.0000
    25             9.3739         79.9165             0.000266               0.0000
    26             9.9275         79.9165             0.000298               0.0000
    27            10.1880         79.9165             0.000314               0.0000
    28            10.5930         79.9165             0.000339               0.0000
    29            10.8877         79.9165             0.000359               0.0000
    30            11.1513         79.9165             0.000376               0.0000
    31            11.2724         79.9165             0.000384               0.0000
    32            11.3733         79.9165             0.000391               0.0000
    33            11.6640         79.9165             0.000411               0.0000
    34            11.8235         79.9165             0.000423               0.0000
    35            12.3924         79.9165             0.000464               0.0000
    36            12.7428         79.9165             0.000491               0.0000
    37            12.8790         79.9165             0.000502               0.0000
    38            13.2219         79.9165             0.000529               0.0000
    39            13.3234         79.9165             0.000537               0.0000
    40            13.5308         79.9165             0.000554               0.0000
    41            13.8161         79.9165             0.000577               0.0000
    42            14.0561         79.9165             0.000598               0.0000
    43            14.2481         79.9165             0.000614               0.0000
    44            14.5790         79.9165             0.000643               0.0000
    45            14.9053         79.9165             0.000672               0.0000
    46            15.0477         79.9165             0.000685               0.0000
    47            15.4080         79.9165             0.000718               0.0000
    48            15.6815         79.9165             0.000744               0.0000
    49            15.9294         79.9165             0.000767               0.0000
    50            16.0973         79.9165             0.000784               0.0000
    51            16.2408         79.9165             0.000798               0.0000
    52            16.2846         79.9165             0.000802               0.0000
    53            16.6917         79.9165             0.000843               0.0000
    54            17.0286         79.9165             0.000877               0.0000
    55            17.3475         79.9165             0.000910               0.0000
    56            17.4921         79.9165             0.000925               0.0000
    57            17.6997         79.9165             0.000947               0.0000
    58            17.8766         79.9165             0.000966               0.0000
    59            18.1498         79.9165             0.000996               0.0000
    60            18.2430         79.9165             0.001007               0.0000
    61            18.5087         79.9165             0.001036               0.0000
    62            18.7096         79.9165             0.001059               0.0000
    63            19.1205         79.9165             0.001106               0.0000
    64            19.3044         79.9165             0.001127               0.0000
    65            19.5259         79.9165             0.001153               0.0000
    66            19.9742         79.9165             0.001207               0.0000
    67            20.1287         79.9165             0.001225               0.0000
    68            20.3618         79.9165             0.001254               0.0000
    69            20.5726         79.9165             0.001280               0.0000
    70            20.9458         79.9165             0.001327               0.0000
    71            21.2269         79.9165             0.001363               0.0000
    72            21.3688         79.9165             0.001381               0.0000
    73            21.5814         79.9165             0.001409               0.0000
    74            21.7053         79.9165             0.001425               0.0000
    75            21.9602         79.9165             0.001458               0.0000
    76            22.2064         79.9165             0.001491               0.0000
    77            22.5423         79.9165             0.001537               0.0000
    78            22.8684         79.9165             0.001582               0.0000
    79            23.0372         79.9165             0.001605               0.0000
    80            23.2331         79.9165             0.001632               0.0000
    81            23.4169         79.9165             0.001658               0.0000
    82            23.5781         79.9165             0.001681               0.0000
    83            23.8896         79.9165             0.001726               0.0000
    84            23.9667         79.9165             0.001737               0.0000
    85            24.1389         79.9165             0.001762               0.0000
    86            24.2588         79.9165             0.001780               0.0000
    87            24.5753         79.9165             0.001827               0.0000
    88            24.6571         79.9165             0.001839               0.0000
    89            24.8516         79.9165             0.001868               0.0000
    90            25.1589         79.9165             0.001914               0.0000
    91            25.5087         79.9165             0.001968               0.0000
    92            25.6964         79.9165             0.001997               0.0000
    93            25.7337         79.9165             0.002003               0.0000
    94            25.9450         79.9165             0.002036               0.0000
    95            26.0730         79.9165             0.002056               0.0000
    96            26.0983         79.9165             0.002060               0.0000
    97            26.2844         79.9165             0.002089               0.0000
    98            26.5299         79.9165             0.002129               0.0000
    99            26.5513         79.9165             0.002132               0.0000
   100            26.6618         79.9165             0.002150               0.0000
   101            26.8350         79.9165             0.002178               0.0000
   102            27.0323         79.9165             0.002210               0.0000
   103            27.1995         79.9165             0.002237               0.0000
   104            27.4776         79.9165             0.002283               0.0000
   105            27.7569         79.9165             0.002330               0.0000
   106            28.0821         79.9165             0.002385               0.0000
   107            28.4433         79.9165             0.002447               0.0000
   108            28.7891         79.9165             0.002507               0.0000
   109            28.8456         79.9165             0.002516               0.0000
   110            29.0596         79.9165             0.002554               0.0000
   111            29.2938         79.9165             0.002595               0.0000
   112            29.5166         79.9165             0.002635               0.0000
   113            29.7737         79.9165             0.002681               0.0000
   114            29.8900         79.9165             0.002702               0.0000
   115            30.0395         79.9165             0.002729               0.0000
   116            30.3855         79.9165             0.002792               0.0000
   117            30.6453         79.9165             0.002840               0.0000
   118            31.0347         79.9165             0.002913               0.0000
   119            31.1200         79.9165             0.002929               0.0000
   120            32.1611         79.9165             0.003128               0.0000
   121            32.4375         79.9165             0.003182               0.0000
   122            32.6864         79.9165             0.003231               0.0000
   123            32.9452         79.9165             0.003283               0.0000
   124            33.3541         79.9165             0.003365               0.0000
   125            33.5882         79.9165             0.003412               0.0000
   126            34.0761         79.9165             0.003512               0.0000
   127            34.1039         79.9165             0.003518               0.0000
   128            34.4544         79.9165             0.003590               0.0000
   129            34.9415         79.9165             0.003692               0.0000
   130            35.2456         79.9165             0.003757               0.0000
   131            35.8179         79.9165             0.003880               0.0000
   132            35.9918         79.9165             0.003918               0.0000
   133            36.3472         79.9165             0.003996               0.0000
   134            36.7941         79.9165             0.004094               0.0000
   135            36.9038         79.9165             0.004119               0.0000
   136            37.5000         79.9165             0.004253               0.0000
   137            37.7456         79.9165             0.004309               0.0000
   138            37.8384         79.9165             0.004330               0.0000
   139            38.1077         79.9165             0.004392               0.0000
   140            38.7013         79.9165             0.004530               0.0000
   141            39.0829         79.9165             0.004620               0.0000
   142            39.1089         79.9165             0.004626               0.0000
   143            39.6043         79.9165             0.004744               0.0000
   144            40.0520         79.9165             0.004852               0.0000
   145            40.8035         79.9165             0.005035               0.0000
   146            41.0891         79.9165             0.005106               0.0000
   147            41.7641         79.9165             0.005275               0.0000
   148            42.2484         79.9165             0.005398               0.0000
   149            42.4303         79.9165             0.005445               0.0000
   150            42.8617         79.9165             0.005556               0.0000
   151            43.4176         79.9165             0.005701               0.0000
   152            44.1887         79.9165             0.005905               0.0000
   153            44.4688         79.9165             0.005981               0.0000
   154            45.4184         79.9165             0.006239               0.0000
   155            46.3641         79.9165             0.006501               0.0000
   156            46.6572         79.9165             0.006584               0.0000
   157            48.3441         79.9165             0.007068               0.0000
   158            49.4423         79.9165             0.007393               0.0000
   159            50.2449         79.9165             0.007635               0.0000
   160            50.8220         79.9165             0.007811               0.0000
   161            51.5573         79.9165             0.008039               0.0000
   162            52.3285         79.9165             0.008281               0.0000
   163            52.8474         79.9165             0.008446               0.0000
   164            54.3470         79.9165             0.008933               0.0000
   165            55.8025         79.9165             0.009417               0.0000
   166            56.6000         79.9165             0.009689               0.0000
   167            57.2642         79.9165             0.009917               0.0000
   168            59.0414         79.9165             0.010542               0.0000
   169            84.5840         79.9165             0.021637               0.0000
   170            84.9067         79.9165             0.021803               0.0000
   171            85.2156         79.9165             0.021962               0.0000
   172            86.2567         79.9165             0.022502               0.0000
   173           150.9830         79.9165             0.068942               0.0000
   174           151.6263         79.9165             0.069531               0.0000
   175           152.0299         79.9165             0.069901               0.0000
   176           152.0937         79.9165             0.069960               0.0000
   177           153.5880         79.9165             0.071342               0.0000
   178           154.5463         79.9165             0.072235               0.0000
   179           154.8078         79.9165             0.072479               0.0000
   180           156.0617         79.9165             0.073658               0.0000
   181           194.1362         79.9165             0.113983               0.0000
   182           194.7311         79.9165             0.114683               0.0000
   183           194.8926         79.9165             0.114873               0.0000
   184           195.4385         79.9165             0.115518               0.0000
   185           200.3252         79.9165             0.121367               0.0000
   186           200.5274         79.9165             0.121612               0.0000
   187           200.9279         79.9165             0.122098               0.0000
   188           201.1600         79.9165             0.122380               0.0000
   189           228.3960         79.9165             0.157763               0.0000
   190           228.6291         79.9165             0.158085               0.0000
   191           229.2198         79.9165             0.158903               0.0000
   192           229.7119         79.9165             0.159586               0.0000
   193           231.2797         79.9165             0.161772               0.0000
   194           231.4776         79.9165             0.162049               0.0000
   195           231.6430         79.9165             0.162281               0.0000
   196           231.7421         79.9165             0.162419               0.0000
   197           422.6798         79.9165             0.540320               0.0000
   198           422.6929         79.9165             0.540354               0.0000
   199           422.7238         79.9165             0.540433               0.0000
   200           422.7845         79.9165             0.540588               0.0000
   201           422.8072         79.9165             0.540646               0.0000
   202           422.8176         79.9165             0.540673               0.0000
   203           422.8438         79.9165             0.540740               0.0000
   204           422.9027         79.9165             0.540890               0.0000
   205           422.9547         79.9165             0.541023               0.0000
   206           422.9706         79.9165             0.541064               0.0000
   207           423.0232         79.9165             0.541199               0.0000
   208           423.0431         79.9165             0.541249               0.0000
   209           423.1734         79.9165             0.541583               0.0000
   210           423.2025         79.9165             0.541658               0.0000
   211           423.3485         79.9165             0.542031               0.0000
   212           426.4936         79.9165             0.550115               0.0000
   213           426.9729         79.9165             0.551352               0.0000
   214           427.0453         79.9165             0.551539               0.0000
   215           427.0919         79.9165             0.551659               0.0000
   216           427.1584         79.9165             0.551831               0.0000
   217           427.1775         79.9165             0.551881               0.0000
   218           427.3077         79.9165             0.552217               0.0000
   219           427.6026         79.9165             0.552979               0.0000
   220           430.8083         79.9165             0.561302               0.0000
   221           430.9756         79.9165             0.561738               0.0000
   222           431.1712         79.9165             0.562248               0.0000
   223           431.4169         79.9165             0.562889               0.0000
   224           431.4383         79.9165             0.562945               0.0000
   225           431.6244         79.9165             0.563430               0.0000
   226           431.8029         79.9165             0.563897               0.0000
   227           432.2826         79.9165             0.565150               0.0000
   228           438.7576         79.9165             0.582207               0.0000
   229           438.8144         79.9165             0.582358               0.0000
   230           439.0631         79.9165             0.583018               0.0000
   231           439.4396         79.9165             0.584019               0.0000
   232           445.5605         79.9165             0.600401               0.0000
   233           445.7523         79.9165             0.600918               0.0000
   234           445.9752         79.9165             0.601519               0.0000
   235           446.2470         79.9165             0.602253               0.0000
   236           450.1360         79.9165             0.612796               0.0000
   237           450.4221         79.9165             0.613575               0.0000
   238           450.5970         79.9165             0.614052               0.0000
   239           451.2093         79.9165             0.615721               0.0000
   240           453.2774         79.9165             0.621379               0.0000
   241           453.7145         79.9165             0.622578               0.0000
   242           454.0316         79.9165             0.623448               0.0000
   243           454.6790         79.9165             0.625228               0.0000

 Zero-point energy (Hartree):     0.0672

 ------------
 Normal Modes
 ------------

 Number of removed rigid normal modes: 6
 Number of semi-rigid normal modes:    2
 
 Mode:     7      Frequency (cm-1):       -4.9092     Intensity (km/mol):        0.0000
 Index  Atom      ---- Displacements (x/y/z) ----
     1    Se       0.002689   0.014469   0.005355
     2    Se       0.004357   0.017247   0.007927
     3    Se      -0.014394   0.023286  -0.014804
     4    Se      -0.011152   0.027927  -0.028235
     5    Se       0.001923   0.013265   0.014520
     6    Se       0.010018   0.023768  -0.009845
     7    Se      -0.013149   0.009390  -0.017795
     8    Se      -0.002162  -0.003074   0.014961
     9    Se       0.016329   0.013970  -0.014019
    10    Se       0.014802  -0.019211  -0.039364
    11    Se       0.048341  -0.007257  -0.004499
    12    Se       0.015132  -0.001740  -0.017883
    13    Se       0.003520   0.007495  -0.008055
    14    Se       0.001632   0.007157  -0.007792
    15    Se      -0.002905   0.014397   0.003847
    16    Se       0.012888  -0.004884  -0.010499
    17    Se       0.008438   0.001323  -0.001281
    18    Se      -0.000559   0.003210   0.002969
    19    Se       0.014201  -0.035369  -0.015246
    20    Se       0.020709  -0.030240  -0.021482
    21    Se       0.004006  -0.007197   0.002109
    22    Se      -0.001831   0.001400   0.006981
    23    Se      -0.005041   0.002554   0.005757
    24    Se      -0.004638   0.012042   0.021097
    25    Se       0.002624  -0.007434   0.004679
    26    Se      -0.000911  -0.007951   0.007060
    27    Se      -0.014022  -0.002788   0.014208
    28    Se       0.014854  -0.014316   0.005193
    29    Se       0.004109  -0.012744   0.002787
    30    Se      -0.004625  -0.014614   0.012954
    31    Se      -0.014491  -0.008818  -0.042711
    32    Se      -0.053967  -0.010625  -0.038754
    33    Se      -0.015326  -0.005455   0.027731
    34    Se       0.026873  -0.019767  -0.056896
    35    Se      -0.007543  -0.019289  -0.059197
    36    Se      -0.033600   0.011233   0.015975
    37    Se      -0.005670  -0.094593  -0.078483
    38    Se       0.070786  -0.023332  -0.048891
    39    Se      -0.051154  -0.022908   0.006949
    40    Se       0.013074   0.020653  -0.015759
    41    Se       0.016950   0.016808  -0.010532
    42    Se       0.001851   0.036654   0.003142
[...]
              Constant Volume Heat Capacity (cal/mol-K):          2.981      2.981    324.024    329.986
          (c) Constant Volume Heat Capacity (cal/mol-K):          2.981      2.981    276.332    282.294

 Contributions from frequencies below 20 1/cm
 Frequency (1/cm):                                    2.762     4.399     4.715     5.065     5.557     6.524     6.643     7.306     7.628     8.065     8.245     8.620     8.885     9.196     9.374     9.927    10.188    10.593    10.888    11.151    11.272    11.373    11.664    11.824    12.392    12.743    12.879    13.222    13.323    13.531    13.816    14.056    14.248    14.579    14.905    15.048    15.408    15.681    15.929    16.097    16.241    16.285    16.692    17.029    17.348    17.492    17.700    17.877    18.150    18.243    18.509    18.710    19.121    19.304    19.526    19.974
 Entropy (cal/mol-K):                                10.728     9.803     9.665     9.523     9.338     9.020     8.984     8.795     8.709     8.598     8.555     8.466     8.406     8.338     8.299     8.186     8.134     8.057     8.002     7.955     7.933     7.915     7.865     7.838     7.745     7.689     7.668     7.616     7.601     7.570     7.529     7.495     7.468     7.422     7.378     7.359     7.312     7.277     7.246     7.225     7.208     7.202     7.153     7.114     7.077     7.060     7.037     7.017     6.987     6.977     6.948     6.927     6.883     6.864     6.842     6.797
 Nuclear Internal Energy (kcal/mol):                  0.642     0.642     0.642     0.642     0.642     0.642     0.642     0.642     0.642     0.642     0.642     0.642     0.642     0.642     0.642     0.642     0.642     0.642     0.642     0.642     0.642     0.642     0.642     0.642     0.642     0.642     0.642     0.642     0.642     0.642     0.642     0.642     0.642     0.642     0.642     0.642     0.642     0.642     0.642     0.642     0.642     0.642     0.642     0.642     0.642     0.642     0.642     0.643     0.643     0.643     0.643     0.643     0.643     0.643     0.643     0.643
 Constant Volume Heat Capacity (cal/mol-K):           1.987     1.987     1.987     1.987     1.987     1.987     1.987     1.987     1.987     1.987     1.987     1.987     1.987     1.987     1.987     1.987     1.987     1.987     1.987     1.987     1.987     1.987     1.987     1.987     1.987     1.987     1.987     1.987     1.987     1.987     1.987     1.987     1.987     1.987     1.986     1.986     1.986     1.986     1.986     1.986     1.986     1.986     1.986     1.986     1.986     1.986     1.986     1.986     1.986     1.986     1.986     1.986     1.986     1.986     1.986     1.986

       Summary of energy terms
                                                   hartree              eV         kcal/mol           kJ/mol
                                      --------------------     -----------       ----------      -----------
      Energy from Engine:               -0.211054409921355         -5.7431          -132.44          -554.12
      Nuclear Internal Energy:           0.200086383538366          5.4446           125.56           525.33
  (c) Nuclear Internal Energy:           0.174773092081790          4.7558           109.67           458.87
      Internal Energy U:                -0.010968026382989         -0.2985            -6.88           -28.80
      pV/n = RT:                         0.001023356398651          0.0278             0.64             2.69
      Enthalpy H:                       -0.009944669984338         -0.2706            -6.24           -26.11
      -T*S:                             -0.419930904128620        -11.4269          -263.51         -1102.53
  (c) -T*S:                             -0.471887587817427        -12.8407          -296.11         -1238.94
      Gibbs free energy:                -0.429875574112958        -11.6975          -269.75         -1128.64
 
 
 
  (c) The properties marked with this symbol have been corrected using 'low vibrational frequency free rotor
      interpolation corrections'. For those terms all positive frequencies are used (also ones below 20 1/cm),
      but the contribution to the partition function of small vibrational frequencies is modified as described
      in the following paper:
      S. Grimme, 'Supramolecular Binding Thermodynamics by Dispersion-Corrected Density Functional Theory'
      (Chem. Eur. J. 2012, 18, 9955-9964)
      Configuration: Dampener Frequency          :   100.000 1/cm
                     Dampener Alpha              :     4.000
                     Averaging Moment of Inertia : 1.000E-44 kg m2


     Temp                                                        Transl      Rotat     Vibrat     Total
     ----                                                        ------      -----     ------     -----

     373.15   Entropy (cal/mol-K):                               53.264     48.516    761.879    863.658
              Nuclear Internal Energy (kcal/mol):                 1.112      1.112    139.993    142.217
              Constant Volume Heat Capacity (cal/mol-K):          2.981      2.981    330.139    336.101
          (c) Constant Volume Heat Capacity (cal/mol-K):          2.981      2.981    282.269    288.231

 Contributions from frequencies below 20 1/cm
 Frequency (1/cm):                                    2.762     4.399     4.715     5.065     5.557     6.524     6.643     7.306     7.628     8.065     8.245     8.620     8.885     9.196     9.374     9.927    10.188    10.593    10.888    11.151    11.272    11.373    11.664    11.824    12.392    12.743    12.879    13.222    13.323    13.531    13.816    14.056    14.248    14.579    14.905    15.048    15.408    15.681    15.929    16.097    16.241    16.285    16.692    17.029    17.348    17.492    17.700    17.877    18.150    18.243    18.509    18.710    19.121    19.304    19.526    19.974
 Entropy (cal/mol-K):                                11.014    10.089     9.951     9.808     9.624     9.305     9.270     9.081     8.995     8.884     8.840     8.752     8.692     8.623     8.585     8.471     8.420     8.342     8.288     8.240     8.219     8.201     8.151     8.124     8.031     7.975     7.954     7.902     7.887     7.856     7.815     7.780     7.753     7.708     7.664     7.645     7.598     7.563     7.532     7.511     7.493     7.488     7.439     7.399     7.362     7.346     7.323     7.303     7.273     7.262     7.234     7.212     7.169     7.150     7.127     7.082
 Nuclear Internal Energy (kcal/mol):                  0.742     0.742     0.742     0.742     0.742     0.742     0.742     0.742     0.742     0.742     0.742     0.742     0.742     0.742     0.742     0.742     0.742     0.742     0.742     0.742     0.742     0.742     0.742     0.742     0.742     0.742     0.742     0.742     0.742     0.742     0.742     0.742     0.742     0.742     0.742     0.742     0.742     0.742     0.742     0.742     0.742     0.742     0.742     0.742     0.742     0.742     0.742     0.742     0.742     0.742     0.742     0.742     0.742     0.742     0.742     0.742
 Constant Volume Heat Capacity (cal/mol-K):           1.987     1.987     1.987     1.987     1.987     1.987     1.987     1.987     1.987     1.987     1.987     1.987     1.987     1.987     1.987     1.987     1.987     1.987     1.987     1.987     1.987     1.987     1.987     1.987     1.987     1.987     1.987     1.987     1.987     1.987     1.987     1.987     1.987     1.987     1.987     1.987     1.987     1.987     1.987     1.987     1.987     1.987     1.987     1.986     1.986     1.986     1.986     1.986     1.986     1.986     1.986     1.986     1.986     1.986     1.986     1.986

       Summary of energy terms
                                                   hartree              eV         kcal/mol           kJ/mol
                                      --------------------     -----------       ----------      -----------
      Energy from Engine:               -0.211054409921355         -5.7431          -132.44          -554.12
      Nuclear Internal Energy:           0.226637622375276          6.1671           142.22           595.04
  (c) Nuclear Internal Energy:           0.197516651686177          5.3747           123.94           518.58
      Internal Energy U:                 0.015583212453921          0.4240             9.78            40.91
      pV/n = RT:                         0.001181697168983          0.0322             0.74             3.10
      Enthalpy H:                        0.016764909622904          0.4562            10.52            44.02
      -T*S:                             -0.513576153132042        -13.9751          -322.27         -1348.39
  (c) -T*S:                             -0.569483977367370        -15.4964          -357.36         -1495.18
      Gibbs free energy:                -0.496811243509138        -13.5189          -311.75         -1304.38
 
 
 
  (c) The properties marked with this symbol have been corrected using 'low vibrational frequency free rotor
      interpolation corrections'. For those terms all positive frequencies are used (also ones below 20 1/cm),
      but the contribution to the partition function of small vibrational frequencies is modified as described
      in the following paper:
      S. Grimme, 'Supramolecular Binding Thermodynamics by Dispersion-Corrected Density Functional Theory'
      (Chem. Eur. J. 2012, 18, 9955-9964)
      Configuration: Dampener Frequency          :   100.000 1/cm
                     Dampener Alpha              :     4.000
                     Averaging Moment of Inertia : 1.000E-44 kg m2


     Temp                                                        Transl      Rotat     Vibrat     Total
     ----                                                        ------      -----     ------     -----

     473.15   Entropy (cal/mol-K):                               54.443     49.224    841.217    944.884
              Nuclear Internal Energy (kcal/mol):                 1.410      1.410    173.423    176.244
              Constant Volume Heat Capacity (cal/mol-K):          2.981      2.981    337.686    343.647
          (c) Constant Volume Heat Capacity (cal/mol-K):          2.981      2.981    289.612    295.574

 Contributions from frequencies below 20 1/cm
 Frequency (1/cm):                                    2.762     4.399     4.715     5.065     5.557     6.524     6.643     7.306     7.628     8.065     8.245     8.620     8.885     9.196     9.374     9.927    10.188    10.593    10.888    11.151    11.272    11.373    11.664    11.824    12.392    12.743    12.879    13.222    13.323    13.531    13.816    14.056    14.248    14.579    14.905    15.048    15.408    15.681    15.929    16.097    16.241    16.285    16.692    17.029    17.348    17.492    17.700    17.877    18.150    18.243    18.509    18.710    19.121    19.304    19.526    19.974
 Entropy (cal/mol-K):                                11.485    10.560    10.423    10.280    10.096     9.777     9.741     9.552     9.467     9.356     9.312     9.224     9.164     9.095     9.057     8.943     8.892     8.814     8.760     8.712     8.691     8.673     8.623     8.596     8.502     8.447     8.426     8.374     8.359     8.328     8.286     8.252     8.225     8.180     8.136     8.117     8.070     8.035     8.004     7.983     7.965     7.960     7.911     7.871     7.834     7.818     7.794     7.774     7.744     7.734     7.705     7.684     7.641     7.622     7.599     7.554
 Nuclear Internal Energy (kcal/mol):                  0.940     0.940     0.940     0.940     0.940     0.940     0.940     0.940     0.940     0.940     0.940     0.940     0.940     0.940     0.940     0.940     0.940     0.940     0.940     0.940     0.940     0.940     0.940     0.940     0.940     0.940     0.940     0.940     0.940     0.940     0.940     0.940     0.940     0.940     0.940     0.940     0.940     0.940     0.940     0.940     0.940     0.940     0.940     0.940     0.940     0.940     0.940     0.940     0.940     0.940     0.940     0.941     0.941     0.941     0.941     0.941
 Constant Volume Heat Capacity (cal/mol-K):           1.987     1.987     1.987     1.987     1.987     1.987     1.987     1.987     1.987     1.987     1.987     1.987     1.987     1.987     1.987     1.987     1.987     1.987     1.987     1.987     1.987     1.987     1.987     1.987     1.987     1.987     1.987     1.987     1.987     1.987     1.987     1.987     1.987     1.987     1.987     1.987     1.987     1.987     1.987     1.987     1.987     1.987     1.987     1.987     1.987     1.987     1.987     1.987     1.987     1.987     1.987     1.987     1.987     1.987     1.987     1.987

       Summary of energy terms
                                                   hartree              eV         kcal/mol           kJ/mol
                                      --------------------     -----------       ----------      -----------
      Energy from Engine:               -0.211054409921355         -5.7431          -132.44          -554.12
      Nuclear Internal Energy:           0.280862009693417          7.6426           176.24           737.40
  (c) Nuclear Internal Energy:           0.244094398711111          6.6421           153.17           640.87
      Internal Energy U:                 0.069807599772062          1.8996            43.80           183.28
      pV/n = RT:                         0.001498378709645          0.0408             0.94             3.93
      Enthalpy H:                        0.071305978481708          1.9403            44.75           187.21
      -T*S:                             -0.712454112099290        -19.3869          -447.07         -1870.55
  (c) -T*S:                             -0.774755014426156        -21.0822          -486.17         -2034.12
      Gibbs free energy:                -0.641148133617582        -17.4465          -402.33         -1683.33
 
 
 
  (c) The properties marked with this symbol have been corrected using 'low vibrational frequency free rotor
      interpolation corrections'. For those terms all positive frequencies are used (also ones below 20 1/cm),
      but the contribution to the partition function of small vibrational frequencies is modified as described
      in the following paper:
      S. Grimme, 'Supramolecular Binding Thermodynamics by Dispersion-Corrected Density Functional Theory'
      (Chem. Eur. J. 2012, 18, 9955-9964)
      Configuration: Dampener Frequency          :   100.000 1/cm
                     Dampener Alpha              :     4.000
                     Averaging Moment of Inertia : 1.000E-44 kg m2
-----------
Bond orders
-----------

Description: Unknown
Only bonds with bond orders > 0.200 are printed.

 Index  Atom    Index  Atom    BondOrder
     1    Se        2    Se        3.000
     1    Se       48    Se        3.000
     4    Se        5    Se        3.000
     6    Se       40    Se        3.000
     7    Se        8    Se        3.000
     9    Se       41    Se        3.000
     9    Se       43    Se        3.000
    10    Se       11    Se        3.000
    12    Se       44    Se        3.000
    12    Se       46    Se        3.000
    13    Se       14    Se        3.000
    15    Se       49    Se        3.000
    16    Se       17    Se        3.000
    18    Se       50    Se        3.000
    18    Se       52    Se        3.000
    19    Se       20    Se        3.000
    21    Se       53    Se        3.000
    21    Se       55    Se        3.000
    22    Se       23    Se        3.000
    25    Se       26    Se        3.000
    28    Se       29    Se        3.000
    31    Se       32    Se        3.000
    33    Se       67    Se        3.000
    34    Se       35    Se        3.000
    36    Se       68    Se        3.000
    36    Se       70    Se        3.000
    37    Se       38    Se        3.000
    39    Se       71    Se        3.000
    39    Se       73    Se        3.000
    40    Se       41    Se        3.000
    42    Se       76    Se        3.000
    43    Se       44    Se        3.000
    45    Se       77    Se        3.000
    45    Se       79    Se        3.000
    46    Se       47    Se        3.000
    48    Se       80    Se        3.000
    49    Se       50    Se        3.000
    52    Se       53    Se        3.000
    55    Se       56    Se        3.000
    58    Se       59    Se        3.000
    61    Se       62    Se        3.000
    64    Se       65    Se        3.000
    67    Se       68    Se        3.000
    70    Se       71    Se        3.000
    73    Se       74    Se        3.000
    76    Se       77    Se        3.000
    79    Se       80    Se        3.000


--------------
Atomic charges
--------------
  Index   Atom    Charge
      1     Se    0.0000
      2     Se    0.0000
      3     Se    0.0000
      4     Se    0.0000
      5     Se    0.0000
      6     Se    0.0000
      7     Se    0.0000
      8     Se    0.0000
      9     Se    0.0000
     10     Se    0.0000
     11     Se    0.0000
     12     Se    0.0000
     13     Se    0.0000
     14     Se    0.0000
     15     Se    0.0000
     16     Se    0.0000
     17     Se    0.0000
     18     Se    0.0000
     19     Se    0.0000
     20     Se    0.0000
     21     Se    0.0000
     22     Se    0.0000
     23     Se    0.0000
     24     Se    0.0000
     25     Se    0.0000
     26     Se    0.0000
     27     Se    0.0000
     28     Se    0.0000
     29     Se    0.0000
     30     Se    0.0000
     31     Se    0.0000
     32     Se    0.0000
     33     Se    0.0000
     34     Se    0.0000
     35     Se    0.0000
     36     Se    0.0000
     37     Se    0.0000
     38     Se    0.0000
     39     Se    0.0000
     40     Se    0.0000
     41     Se    0.0000
     42     Se    0.0000
     43     Se    0.0000
     44     Se    0.0000
     45     Se    0.0000
     46     Se    0.0000
     47     Se    0.0000
     48     Se    0.0000
     49     Se    0.0000
     50     Se    0.0000
     51     Se    0.0000
     52     Se    0.0000
     53     Se    0.0000
     54     Se    0.0000
     55     Se    0.0000
     56     Se    0.0000
     57     Se    0.0000
     58     Se    0.0000
     59     Se    0.0000
     60     Se    0.0000
     61     Se    0.0000
     62     Se    0.0000
     63     Se    0.0000
     64     Se    0.0000
     65     Se    0.0000
     66     Se    0.0000
     67     Se    0.0000
     68     Se    0.0000
     69     Se    0.0000
     70     Se    0.0000
     71     Se    0.0000
     72     Se    0.0000
     73     Se    0.0000
     74     Se    0.0000
     75     Se    0.0000
     76     Se    0.0000
     77     Se    0.0000
     78     Se    0.0000
     79     Se    0.0000
     80     Se    0.0000
     81     Se    0.0000


Dipole moment vector    (Debye):     0.00000000    0.00000000    0.00000000
              magnitude (Debye):     0.00000000

 
--------------------
Energy Decomposition
--------------------
Total Energy (hartree)                -0.21105441
Total Energy (eV)                     -5.74308270
Bond bending (hartree)                 0.00101087
Bond stretching (hartree)              0.00009038
Bond torsion (hartree)                 0.00619691
Bond inversion (hartree)               0.00000000
Van Der Waals (hartree)               -0.21835257
Coulomb (hartree)                      0.00000000
Embedding (hartree)                    0.00000000
Total Bonded (hartree)                 0.00729816
Total NonBonded (hartree)             -0.21835257
 

Final PES point is a local minimum. Geometry optimization successful!


AMS application finished. Exiting.
NORMAL TERMINATION
     Total cpu time:       3.25
  Total system time:       1.94
 Total elapsed time:       7.56
