

 Parallel Execution: Process Information
 ==============================================================================
 Rank   Node Name                              NodeID   MyNodeRank  NodeMaster
    0   ubuntu-kch                                0          0          0
    1   ubuntu-kch                                0          1         -1
    2   ubuntu-kch                                0          2         -1
    3   ubuntu-kch                                0          3         -1
 ==============================================================================


May use up to 7570MB of RAM as shared memory on node 0

 *******************************************************************************
 *                                                                             *
 *  --------------------------------                                           *
 *   Amsterdam Modeling Suite (AMS)              2021.103                      *
 *  --------------------------------                                           *
 *                                               r96558 2021-08-09             *
 *                                                                             *
 *                                                                             *
 *                              =================                              *
 *                              |               |                              *
 *                              |     A M S     |                              *
 *                              |               |                              *
 *                              =================                              *
 *                                                                             *
 *                                                                             *
 *   Online information and documentation:  https://www.scm.com/support/       *
 *   E-mail:  support@scm.com   info@scm.com                                   *
 *                                                                             *
 *   Scientific publications using AMS results must be properly referenced     *
 *   See the User Manuals (or the web site) for recommended citations          *
 *   The terms and conditions of the End User License Agreement apply to       *
 *   the use of AMS, https://www.scm.com/license-terms/                        *
 *                                                                             *
 **********************  x86_64_linux_intel / intelmpi  ************************
 
 Licensed to: Dr. Miroslav Ilias / Matej Bel University, Department Chemistry, Fac. Natural Sciences / Banska Bystrica / SLOVAKIA
 SCM User ID: u17848
  
 AMS 2021.103  RunTime: Sep09-2021 20:25:20  ShM Nodes: 1  Procs: 4

 AMS jobname: ams
 AMS jobid  : 2086827798

 Start   directory: /home/milias/work/projects/open-collection/theoretical_chemistry/software_runs/ams/runs/NaCl-band/print_totalen/
 Results directory: /home/milias/work/projects/open-collection/theoretical_chemistry/software_runs/ams/runs/NaCl-band/print_totalen/ams.results/
 Scratch directory: /tmp/amstmp_ams_kid0.2086827798/


 Communication costs MPI_COMM_WORLD:      0.250 usec per message,   0.0034 usec per 8-byte item
 Communication costs for intra-node:      0.251 usec per message,   0.0034 usec per 8-byte item

 RNG seed: 87696556 1997052901 -1555714831 -600576914 -714691167 -633061835 1663650810 -55216131
       ****************************
       * SINGLE POINT CALCULATION *
       ****************************
 
--------
Geometry
--------
Formula: ClNa
Atoms
  Index Symbol   x (angstrom)   y (angstrom)   z (angstrom)
      1     Na     0.00000000     0.00000000     0.00000000
      2     Cl    -2.81500000    -2.81500000    -2.81500000
 
Lattice vectors (angstrom)
      1     0.00000000     2.81500000     2.81500000
      2     2.81500000     0.00000000     2.81500000
      3     2.81500000     2.81500000     0.00000000
 
Unit cell volume (angstrom^3)        44.61339
 
Total System Charge             0.00000
Bonding info available!
 



                     *************************************************************************
                     *  BAND 2021.103  RunTime: Sep09-2021 20:25:20  ShM Nodes: 1  Procs: 4  *
                     *************************************************************************
  

-----------------
Band Engine Input
-----------------

print totalenergy
print AllOccupiedBands
Basis
Core Small
End
XC
GGA PBE
End

 Using the following basis set files:
 
 Na             : /home/milias/work/software/theoretical_chemistry/ams/intel_mpi/ams2021.103/atomicdata/Band/DZ/Na.1s
 Cl             : /home/milias/work/software/theoretical_chemistry/ams/intel_mpi/ams2021.103/atomicdata/Band/DZ/Cl.1s



 =====================
 C O N F I N E M E N T
 =====================
  
 Basis functions confinement radius        10.000
 Width                                      1.000
 use shared memory for sandwiching:  F



 ===============================
 M O D E L   P A R A M E T E R S
 ===============================
  
 DENSITY FUNCTIONAL POTENTIAL (scf)
    LDA:                               PW92                                    == Not Default ==
    Gradient Corrections:              PBEc PBEx                               == Not Default ==
 DENSITY FUNCTIONAL ENERGY (post-scf)
    Gradient Corrections:              Becke88 Perdew86 PW91x PW91c EV93x PW...== Not Default ==

 SPIN  (restricted / unrestr.)
    Molecule:                          Restricted                               

 OTHER ASPECTS
    Relativistic Corrections:          scalar (ZORA,APA)                        

    Nuclear Charge Density Model:      Point Charge Nuclei                      



 ========================
 S. C. F.   O P T I O N S
 ========================
  

 * DIIS settings info for DIRAC   *
    Cond              0.1E+07
    CLarge          20.00
    CHuge           50.00
    DiMix            1.00
    IopPly              1
    NCyDmp              5
    IPrint              0
    Adaptable           F
    Method         diis                
    Dimix Decay fac  1.00

 * DIIS settings info for SCF     *
    Cond              0.1E+07
    CLarge          20.00
    CHuge           20.00
    DiMix            0.20
    IopPly              1
    NCyDmp              1
    IPrint              0
    Adaptable           T
    Method         DIIS                
    Dimix Decay fac  1.00
 growth factor   1.10000000000000     
 shrink factor  0.909090909100000     

    Mix            0.0750
    Degenerate          F
    Edegen          1.0E-04
    SCFRTX           9.90
    Convrg          1.4E-06
    Ncyclx            300
 getinp: use Shared Memory T




                             **  R A D I A L   F U N C T I O N S  **

 TOTAL NR. OF TYPES OF ATOMS                              2




                             ---------------------
                                   T Y P E   1
                             ---------------------

 RADIAL POINTS                                         3000




 ............................ D I R A C ................................

 NUCLEAR CHARGE                                11.0000               **>  Na  <**
 (POINT NUCLEUS)
 VALENCE CHARGE                                 9.0000
 NET CHARGE                                     0.0000

 VALENCE ORBITALS INCLUDED IN THE CRYSTAL BASIS
 NR. OF (RADIAL) CORE FUNCTIONS                 1
 Radial grid       nr of points               3000
                   range                      0.10E-05     0.10E+03
  
  ** SCF-FUNCTIONAL INFO **
    ZORA
    SCALAR
  
 Self consistent error   0.30E-08


  Orbital    Q         E(a.u.)     E(eV)           <R>
 -------------------------------------------------------------------
  1S         2.00    -38.039402      -1035.1048   0.143
  2S         2.00     -2.085784        -56.7571   0.785
  2P         6.00     -1.053710        -28.6729   0.806
  3S         1.00     -0.100836         -2.7439   4.125


 targetR   4.12494243613267      expectR   4.12494243613267      sigma
   3.65563505284346      diffuseFactor   1.00000000000000     

 NR. OF RADIAL VALENCE ORBITALS                           7
 NR. OF RADIAL CORE ORBITALS                              1
 NR. OF RADIAL FIT FUNCTIONS                              0




                             ---------------------
                                   T Y P E   2
                             ---------------------

 RADIAL POINTS                                         3000




 ............................ D I R A C ................................

 NUCLEAR CHARGE                                17.0000               **>  Cl  <**
 (POINT NUCLEUS)
 VALENCE CHARGE                                15.0000
 NET CHARGE                                     0.0000

 VALENCE ORBITALS INCLUDED IN THE CRYSTAL BASIS
 NR. OF (RADIAL) CORE FUNCTIONS                 1
 Radial grid       nr of points               3000
                   range                      0.10E-05     0.10E+03
  
  ** SCF-FUNCTIONAL INFO **
    ZORA
    SCALAR
  
 Self consistent error   0.95E-09


  Orbital    Q         E(a.u.)     E(eV)           <R>
 -------------------------------------------------------------------
  1S         2.00   -101.453091      -2760.6791   0.091
  2S         2.00     -9.289636       -252.7839   0.444
  2P         6.00     -7.044018       -191.6775   0.407
  3S         2.00     -0.760399        -20.6915   1.536
  3P         5.00     -0.315848         -8.5947   1.844


 targetR   1.84381275572837      expectR   1.84381275572837      sigma
   1.63403650961973      diffuseFactor   1.00000000000000     

 NR. OF RADIAL VALENCE ORBITALS                           8
 NR. OF RADIAL CORE ORBITALS                              1
 NR. OF RADIAL FIT FUNCTIONS                              0



 ======================================================
 R A N G E S    F O R    A T O M I C    O R B I T A L S
 ======================================================
  
   --------------------------------------------------------------------------------
                            valence            core valence kinetic    core kinetic
   --------------------------------------------------------------------------------

             Cutoff       1.000E-06       1.000E-06       1.000E-06       1.000E-06
   --------------------------------------------------------------------------------
 
   --------------------------------------------------------------------------------
               Type         valence            core valence kinetic    core kinetic
   --------------------------------------------------------------------------------
                 Na           17.47            1.94           17.91            1.96
                 Cl           14.09            1.21           14.27            1.22
   --------------------------------------------------------------------------------
 



 ====================
 R U N    C O N F I G
 ====================
  
 
 Use Symmetry  .  .  .  .  .  .  .  .  .  .  .  .  .  .  .  .  T
 Calculate gradient of basis  .  .  .  .  .  .  .  .  .  .  .  F
 Calculate sec. der. of basis .  .  .  .  .  .  .  .  .  .  .  F
 Calculate operator T working on basis .  .  .  .  .  .  .  .  T
 Calculate dk-basis  .  .  .  .  .  .  .  .  .  .  .  .  .  .  F
 Calculate gradient of fit .  .  .  .  .  .  .  .  .  .  .  .  T
 Calculate sec. der. of fit.  .  .  .  .  .  .  .  .  .  .  .  T
 Calculate gradient of fit pot.  .  .  .  .  .  .  .  .  .  .  F
 Kin. energy via grad.  .  .  .  .  .  .  .  .  .  .  .  .  .  F
 Turnover rule for xc.  .  .  .  .  .  .  .  .  .  .  .  .  .  F
 Calculate gradient of energy .  .  .  .  .  .  .  .  .  .  .  F
 Calculate analytical strain derivatives  .  .  .  .  .  .  .  F
 Calculate kin. energy density.  .  .  .  .  .  .  .  .  .  .  F
 Calculate nuc. grad of kin. energy density  .  .  .  .  .  .  F
 Calculate der. of density .  .  .  .  .  .  .  .  .  .  .  .  T
 Calculate second der. of density.  .  .  .  .  .  .  .  .  .  T
 Calculate nuc. grad. of density .  .  .  .  .  .  .  .  .  .  F
 Calculate nuc. grad. of grad. density .  .  .  .  .  .  .  .  F
 Exact rho during SCF.  .  .  .  .  .  .  .  .  .  .  .  .  .  T
 Exact grad. rho during SCF.  .  .  .  .  .  .  .  .  .  .  .  F
 Exact grad. rho post SCF  .  .  .  .  .  .  .  .  .  .  .  .  F
 Store history of dens. matrix.  .  .  .  .  .  .  .  .  .  .  T
 Store original Bloch functions  .  .  .  .  .  .  .  .  .  .  F
 Direct fit .  .  .  .  .  .  .  .  .  .  .  .  .  .  .  .  .  F
 Direct basis  .  .  .  .  .  .  .  .  .  .  .  .  .  .  .  .  T
 STO based fitting.  .  .  .  .  .  .  .  .  .  .  .  .  .  .  F
 Zlm fitting.  .  .  .  .  .  .  .  .  .  .  .  .  .  .  .  .  T
 Calculate fragment energy in mol. grid.  .  .  .  .  .  .  .  T
 Map atoms to unit cell .  .  .  .  .  .  .  .  .  .  .  .  .  T
 Print output for radial.  .  .  .  .  .  .  .  .  .  .  .  .  T
 Calculate DOS .  .  .  .  .  .  .  .  .  .  .  .  .  .  .  .  T
 Calculate population analysis.  .  .  .  .  .  .  .  .  .  .  T
 Calculate band structure  .  .  .  .  .  .  .  .  .  .  .  .  F
 Calculate EFG .  .  .  .  .  .  .  .  .  .  .  .  .  .  .  .  F
 Calculate properties.  .  .  .  .  .  .  .  .  .  .  .  .  .  T
 Calculate kinetic energy  .  .  .  .  .  .  .  .  .  .  .  .  T
 Save file tape10 .  .  .  .  .  .  .  .  .  .  .  .  .  .  .  F
 Save file Points .  .  .  .  .  .  .  .  .  .  .  .  .  .  .  F



 ==================================================
 G E O M E T R Y    I N    X - Y - Z    F O R M A T
 ==================================================
  
 Na      1.407500000     0.000000000     0.000000000
 Cl     -1.407500000     0.000000000     0.000000000
 VEC1     0.000000000     2.815000000     2.815000000
 VEC2     2.815000000     0.000000000     2.815000000
 VEC3     2.815000000     2.815000000     0.000000000

   Total nr. of atoms:          2





                       3 - D I M E N S I O N A L   C R Y S T A L




   REAL SPACE LATTICE VECTORS                         LENGTH
   --------------------------                         ------
   1)   0.0000000000   5.3195790408   5.3195790408     7.523
   2)   5.3195790408   0.0000000000   5.3195790408     7.523
   3)   5.3195790408   5.3195790408   0.0000000000     7.523

   ----------------------------------------
   Angles between lattice vectors
   ----------------------------------------

     pair          angle

     2 1            60.000000
     3 1            60.000000
     3 2            60.000000
 

   Volume of unit cell (a.u.):               301.07
   Volume of unit cell (Angstrom**3):         44.61



   K-SPACE LATTICE VECTORS                            LENGTH
   -----------------------                            ------
   1)  -0.5905716654   0.5905716654   0.5905716654     1.023
   2)   0.5905716654  -0.5905716654   0.5905716654     1.023
   3)   0.5905716654   0.5905716654  -0.5905716654     1.023


 INTER-ATOMIC DISTANCES (REDUCED)
 --------------------------------
   2)
    5.3196


 SMALLEST INTERATOMIC DISTANCE =      5.319579040822
 BeckeGrid: periodic partition function using cells up to order           13



 ===============================
 K - S P A C E   S A M P L I N G
 ===============================
  
 Automatic Regular k-space grid for quality: NORMAL
 
    lattice-vec. size(real space)    size(k-space)   #points   delta-k
               1             6.14             1.02         5     0.256
               2             6.14             1.02         5     0.256
               3             6.14             1.02         5     0.256
 
             Total nr. of unique k-points    14




 =========
 C E L L S
 =========
  

   Nr. of cells for valence functions:        309



 ===========================
 L I N E A R   S C A L I N G
 ===========================
  
 Neglecting functions
              Valence  1.00E-06
                 Core  1.00E-06
                  Fit  0.00E+00
            Multipole  1.00E-08
   Screening function  3.16E-05



 =========================================
 N U M E R I C A L   I N T E G R A T I O N
 =========================================
  
 Becke grid quality: NORMAL         
  
 Lebedev angular grid order:             min:  11 max:  31
 Nr. of radial points:                   min:  66 max:  70

 Total nr. of points                                  43008
 Block length                                           128
 Nr. of unique blocks                                     7
 Total nr. of blocks                                    336

 Percentage dummy points                               0.00%
 Nr. of k-points processed together in baspnt            30
 Nr. of symmetry operators (real space)                  48
 Symmetry operators in k-space                           48



 Total charge,    analytically                           28.000000000000
                  numerically                            27.999777248728
                  relative error                     -0.80E-05

 Valence density, analytically                           24.000000000000
                  numerically                            23.999777039652
                  relative error                     -0.93E-05



 INTEGRATED CHARGE PER ATOM:

  SET      TOTAL CHARGE      REL. ERROR      Valence CHARGE    REL. ERROR
 ------------------------------------------------------------------------
   1      10.9998727491      -0.116E-04      8.9998724789      -0.142E-04
   2      16.9999044997      -0.562E-05     14.9999045607      -0.636E-05

 Norms of functions from routine baspnt
 Maximum error in norms     1.428E-04 for function       11
 Minimum accuracy required  1.000E-03

 Norms of functions from routine corpnt
 Maximum error in norms     3.117E-08 for function        1
 Minimum accuracy required  1.000E-03

 Sparseness info - valence
   nr. of functions              29
   max. nr. of functions         29
   min. nr. of functions         26
   avr. nr. of functions         28
   percentage stored           96.6
 

 Sparseness info - core
   nr. of functions               2
   max. nr. of functions          2
   min. nr. of functions          1
   avr. nr. of functions          1
   percentage stored           50.0
 

 Frozen core overlap error  7.02E-09
 PrepareHam: needLdotB F



 ========================
 Density Fitting (zlmFit)
 ========================
  
 ZlmFit Fit Quality: NORMAL         
  
 Max L-expansion:                        min:   5 max:   6
 Nr. of radial interpolation points:     min:  54 max:  63
 BeckeGrid: periodic partition function using cells up to order           10
 BeckeGrid: periodic partition function using cells up to order           10
 SCF procedure tweaks
   * counter           0
   * addExtraPotential F
   * addExtraPotentialOnLastCycle F
   * extraPotentialName
   * reuseEigenSystem F
 
 skipDiagonalization F parmix=  7.500000000000000E-002 ncylx=         300
 restartSCF F
 forceRestartSolution F



                                          *******************************
                                          *  S C F   P R O C E D U R E  *
                                          *******************************
  

 Nr. of basis functions                   29
 Nr. of core functions                     2
 Nr. of fit functions                      0
 Nr. of symmetry unique K-points          14
 Valence charge                           24.00

 Settings for convergence
 --------------------------------------------------------------------------------
   Initial density:          psi
 --------------------------------------------------------------------------------

 cyc=  0 err=0.00E+00 cpu=   1s ela=   1s
 cyc=  1 err=1.13E-01 meth=m nvec= 1 mix=0.0750 cpu=   1s ela=   1s fit=1.96E-03
 cyc=  2 err=1.01E-01 meth=d nvec= 2 mix=0.2000 cpu=   1s ela=   1s fit=2.31E-03
 cyc=  3 err=2.37E-02 meth=d nvec= 2 mix=0.2200 cpu=   1s ela=   1s fit=2.63E-03
 cyc=  4 err=1.73E-02 meth=d nvec= 3 mix=0.2200 cpu=   1s ela=   1s fit=3.48E-03
 cyc=  5 err=2.41E-03 meth=d nvec= 4 mix=0.2200 cpu=   1s ela=   1s fit=3.46E-03
 cyc=  6 err=9.20E-04 meth=d nvec= 4 mix=0.2420 cpu=   1s ela=   1s fit=3.47E-03
 cyc=  7 err=4.22E-04 meth=d nvec= 5 mix=0.2420 cpu=   1s ela=   1s fit=3.49E-03
 cyc=  8 err=7.79E-05 meth=d nvec= 5 mix=0.2662 cpu=   1s ela=   1s fit=3.49E-03
 cyc=  9 err=5.65E-05 meth=d nvec= 4 mix=0.2928 cpu=   1s ela=   1s fit=3.49E-03
 cyc= 10 err=7.56E-06 meth=d nvec= 4 mix=0.3221 cpu=   1s ela=   1s fit=3.49E-03
 cyc= 11 err=4.20E-06 meth=d nvec= 4 mix=0.3543 cpu=   1s ela=   1s fit=3.49E-03
 cyc= 12 err=1.50E-06 meth=d nvec= 5 mix=0.3543 cpu=   1s ela=   1s fit=3.49E-03

 CONVERGENCE REACHED
 cyc= 13 err=2.20E-07 meth=d nvec= 5 mix=0.3897 cpu=   1s ela=   1s fit=3.49E-03


         -------------------- CYCLE   14 --------------------
 Self consistent error (density)                       2.20E-07



                                             *************************
                                             *  P R O P E R T I E S  *
                                             *************************
  



 ===================================
 B A N D   E N E R G Y   R A N G E S
 ===================================
  
 The energies below are in Hartree.
 =================================================
       band          min          max   occupation
 =================================================
          1     -9.27292     -9.27292      2.00000
          2     -7.02679     -7.02679      2.00000
          3     -7.02679     -7.02679      2.00000
          4     -7.02679     -7.02679      2.00000
          5     -2.11838     -2.11834      2.00000
          6     -1.08713     -1.08602      2.00000
          7     -1.08658     -1.08602      2.00000
          8     -1.08642     -1.08602      2.00000
          9     -0.78771     -0.77267      2.00000
         10     -0.39303     -0.32161      2.00000
         11     -0.36737     -0.32161      2.00000
         12     -0.34978     -0.32161      2.00000
         13     -0.13533      0.03444      0.00000
         14      0.06063      0.31638      0.00000
         15      0.04737      0.31638      0.00000
         16      0.10505      0.31638      0.00000
         17      0.29198      0.71394      0.00000
         18      0.59185      1.07356      0.00000
         19      0.65070      1.07356      0.00000
 =================================================

----------------------------------------
Band gap information
----------------------------------------
Number of valence electrons                    24
Valence band index                             12
Top of valence band (a.u.)                 -0.322
Bottom of conduction band (a.u.)           -0.135
Top of valence band at k-point              0.000     0.000     0.000
Bottom of conduction band at k-point        0.000     0.000    -0.000
Direct band gap
Band gap (a.u.)                             0.186
Band gap (eV)                               5.069
Band gap (kcal/mol)                       116.891
 



 =============================
 E N E R G Y   A N A L Y S I S
 =============================
  
 Formation energy w.r.t. spherically-symmetric spin-restricted atoms

                                                             (a.u.)            (eV)     (kCal/mol)
 --------------------------------------------------------------------------------------------------

 Kinetic                                                       0.20397076       5.5503      127.99
 XC                                                           -0.24226077      -6.5923     -152.02
 Electrostatic                                                -0.19845348      -5.4002     -124.53
 V(atomic)*def                                                -0.02080012      -0.5660      -13.05
 V(def)*def                                                    0.00862996       0.2348        5.42
 --------------------------------------------------------------------------------------------------

 Final bond energy (PBE)                                      -0.24891365      -6.7733     -156.20
 
 Fit error correction used (Vdef*err)                         -0.00001595      -0.0004       -0.01
 total lda xc energy  -40.6139321984020     
 Sum atomic energLDA                                        -621.76201513  -16919.0053  -390161.60
    + Becke88                                               -625.15829220  -17011.4227  -392292.79
    + Becke88+Perdew86                                      -624.18222393  -16984.8625  -391680.30
    + Perdew-Wang (91) X                                    -625.11121932  -17010.1418  -392263.25
    + Perdew-Wang (91) X+C                                  -624.08982288  -16982.3481  -391622.32
    + EV93x+PW91c                                           -624.71379574  -16999.3273  -392013.87
    + PW86x+Perdew86c                                       -624.41465698  -16991.1873  -391826.15
    + Becke88+LYP                                           -626.27448272  -17041.7958  -392993.21
    + Becke (alt)                                           -625.15829205  -17011.4227  -392292.79
    + PBE                                                   -623.82011959  -16975.0091  -391453.08
    + RPBE                                                  -624.06919792  -16981.7869  -391609.38
 Total crystal enLDA                                        -622.03172596  -16926.3445  -390330.84
    + Becke88                                               -625.38335027  -17017.5468  -392434.02
    + Becke88+Perdew86                                      -624.42534046  -16991.4780  -391832.86
    + Perdew-Wang (91) X                                    -625.34667501  -17016.5488  -392411.00
    + Perdew-Wang (91) X+C                                  -624.34062749  -16989.1729  -391779.70
    + EV93x+PW91c                                           -624.91993322  -17004.9366  -392143.22
    + PW86x+Perdew86c                                       -624.66405041  -16997.9737  -391982.65
    + Becke88+LYP                                           -626.53209998  -17048.8059  -393154.87
    + Becke (alt)                                           -625.38335012  -17017.5468  -392434.02
    + PBE                                                   -624.06903324  -16981.7824  -391609.27
    + RPBE                                                  -624.30518640  -16988.2085  -391757.46

 ==================================================================================================



 =======================
 F O R M   F A C T O R S
 =======================
  




 Form factors (amplitude and phase/pi)

 First line : direct projection 
 Second line: overlap taken into account

 N.B.: the coefficients in the expansion of the total coulomb potential
       due to the nuclear charges have been removed analytically.

 --------------------------------------------------------------------------------------------
                                       Total            Total     Deformation     Deformation
        Coordinates                  Density        Potential         Density       Potential
 --------------------------------------------------------------------------------------------

   1)      0      0      0      28.0000  1.00   83.4745  0.00    0.0002  1.00    2.6564  1.00
       0.000  0.000  0.000      27.9996  1.00   83.4736 -0.00    0.0002  1.00    2.6564  1.00

   2)     -1     -1     -1       4.7150 -0.50    4.7124 -0.50    0.2017 -0.50    0.1991 -0.50
      -0.591 -0.591 -0.591       4.7152 -0.50    4.7123 -0.50    0.2017 -0.50    0.1991 -0.50

   3)     -1     -1      0      21.4403  1.00   21.4510  1.00    0.1159  1.00    0.1269  1.00
       0.000  0.000 -1.181      21.4398  1.00   21.4512  1.00    0.1160  1.00    0.1269  1.00

 --------------------------------------------------------------------------------------------


   min. nr. of func/process                     7
   noper                                       48
   nfunc                                       31
   nprocsThisNode                               4
   nfuncThisProcess                             8
   safeMaxFuncSliceSize                         0
   requestedMaxFuncSliceSize                  128
   actual maxFuncSliceSize                      8
   numSlices                                    1
   storeCoopPerBasPair                          F
   nEnergies                                  128
       Nr. of bands used for DOS:     18
   nband_dosplot                               18
   bandSliceSize                               18
   num band slices                              1



 =======================================
 M U L L I K E N   P O P U L A T I O N S
 =======================================
  

 BASISFUNCTION         Q
 --------------------------------
 1/Na/NO/2s                  1.999
 1/Na/NO/2p_y                2.000
 1/Na/NO/2p_z                2.000
 1/Na/NO/2p_x                2.000
 1/Na/NO/3s                  0.012
 1/Na/STO2.2/2s              0.001
 1/Na/STO4.8/2p_y           -0.001
 1/Na/STO4.8/2p_z           -0.001
 1/Na/STO4.8/2p_x           -0.001
 1/Na/STO1.15/3s             0.074
 1/Na/STO0.79/3p_y           0.095
 1/Na/STO0.79/3p_z           0.095
 1/Na/STO0.79/3p_x           0.095
                    -------------
 Charge on atom              8.371
 
 2/Cl/NO/2s                  1.999
 2/Cl/NO/2p_y                2.000
 2/Cl/NO/2p_z                2.000
 2/Cl/NO/2p_x                2.000
 2/Cl/NO/3s                  1.858
 2/Cl/NO/3p_y                2.075
 2/Cl/NO/3p_z                2.075
 2/Cl/NO/3p_x                2.075
 2/Cl/STO4.45/2s             0.005
 2/Cl/STO1.75/3s             0.102
 2/Cl/STO8.85/2p_y           0.000
 2/Cl/STO8.85/2p_z           0.000
 2/Cl/STO8.85/2p_x           0.000
 2/Cl/STO2.5/3p_y           -0.188
 2/Cl/STO2.5/3p_z           -0.188
 2/Cl/STO2.5/3p_x           -0.188
                    -------------
 Charge on atom             15.629
 
 Total charge               24.000


 ATOM/ATOM OVERLAP MATRIX
 (OFF-DIAGONAL ELEMENTS HALF OF OVERLAP POPULATION)
 (order of atoms as on input)
 ATOM         CORE    1       2       3       4       5       6       7       8       9
           -------------------------------------------------------------------------------
   0)
      1 :  0.0001
   1)
      1 : -0.0000  8.0889
   2)
      1 : -0.0001  0.2822 15.3468



 ======================
 Atomic Charge Analysis
 ======================
  
 Deformation charges with respect to neutral atoms.
 
   ----------------------------------------------------------
     Atom      Hirshfeld     Voronoi         CM5    Mulliken
   ----------------------------------------------------------
      1  Na        0.197       0.256       0.419       0.629
      2  Cl       -0.197      -0.256      -0.419      -0.629
   ----------------------------------------------------------
      Total:      -0.000      -0.000      -0.000       0.000
   ----------------------------------------------------------
 
 WARNING: matrix written, but never read. Matrix name: S(C/C)**-1


    =====================
     CALCULATION RESULTS
    =====================

Energy (hartree)            -0.24891365


--------------
Atomic charges
--------------
  Index   Atom    Charge
      1     Na    0.1967
      2     Cl   -0.1967




 =================
 Timing Statistics
 =================
  
 Total Used :                     CPU=       19.24      System=        0.63     Elapsed=       20.02

 Calls  Section                     ( Mean, Percentage )
 ---------------------------------------------------------------------------------------------------
     3  ><      ................      0.00    0.01             0.00    0.00             0.00    0.01
     1  GETINP  ................      0.44    2.28             0.01    1.39             0.45    2.26
     2  DIRAC   ................      0.19    1.98             0.00    0.01             0.19    1.91
     2  SLTORB  ................      0.00    0.02             0.00    0.00             0.00    0.02
     2  FITRAD  ................      0.00    0.00             0.00    0.00             0.00    0.00
     1  RADIAL  ................      0.02    0.08             0.00    0.00             0.02    0.08
     1  POINTS  ................      0.10    0.52             0.00    0.60             0.11    0.52
     1  CELLS   ................      0.07    0.36             0.00    0.00             0.07    0.35
     1  ELSTAT  ................      0.03    0.14             0.01    1.25             0.03    0.17
     1  ATMFNC  ................      0.07    0.39             0.00    0.65             0.08    0.39
     1  NUMGRD  ................      1.01    5.27             0.04    5.72             1.07    5.34
     2  RHOPSD  ................      0.39    4.08             0.01    1.92             0.40    3.99
    15  RHOFIT  ................      0.27   21.35             0.01   20.36             0.28   21.32
    15  PMATPROPS ..............      0.00    0.03             0.00    0.00             0.00    0.03
    15  RHOPOT  ................      0.02    1.20             0.00    3.76             0.02    1.27
    15  SCFEXTRA1 ..............      0.00    0.02             0.00    0.04             0.00    0.02
    30  EIGSYS  ................      0.18   28.44             0.01   26.18             0.19   28.33
    15  FERMI   ................      0.08    6.11             0.00    4.26             0.08    6.01
    14  PMATRX  ................      0.01    0.50             0.00    4.81             0.01    0.64
    13  RHOPMD  ................      0.35   23.45             0.01   19.98             0.36   23.20
    14  GUESSRHO ...............      0.01    0.58             0.00    2.48             0.01    0.64
     1  ENERGY  ................      0.01    0.08             0.00    0.63             0.02    0.10
     1  CHARGE  ................      0.00    0.02             0.00    0.00             0.00    0.02
     1  CM5CHARGES .............      0.00    0.02             0.00    0.00             0.00    0.02
     1  HIRSH   ................      0.00    0.00             0.00    0.00             0.00    0.00
     1  DOS     ................      0.59    3.09             0.04    5.94             0.68    3.38

AMS application finished. Exiting.
NORMAL TERMINATION
     Total cpu time:      19.27
  Total system time:       0.65
 Total elapsed time:      20.08
