

 Parallel Execution: Process Information
 ==============================================================================
 Rank   Node Name                              NodeID   MyNodeRank  NodeMaster
    0   ubuntu-kch                                0          0          0
    1   ubuntu-kch                                0          1         -1
    2   ubuntu-kch                                0          2         -1
    3   ubuntu-kch                                0          3         -1
 ==============================================================================


May use up to 7570MB of RAM as shared memory on node 0

 *******************************************************************************
 *                                                                             *
 *  --------------------------------                                           *
 *   Amsterdam Modeling Suite (AMS)              2021.105                      *
 *  --------------------------------                                           *
 *                                               r97261 2021-09-16             *
 *                                                                             *
 *                                                                             *
 *                              =================                              *
 *                              |               |                              *
 *                              |     A M S     |                              *
 *                              |               |                              *
 *                              =================                              *
 *                                                                             *
 *                                                                             *
 *   Online information and documentation:  https://www.scm.com/support/       *
 *   E-mail:  support@scm.com   info@scm.com                                   *
 *                                                                             *
 *   Scientific publications using AMS results must be properly referenced     *
 *   See the User Manuals (or the web site) for recommended citations          *
 *   The terms and conditions of the End User License Agreement apply to       *
 *   the use of AMS, https://www.scm.com/license-terms/                        *
 *                                                                             *
 **********************  x86_64_linux_intel / intelmpi  ************************
 
 Licensed to: Dr. Miroslav Ilias / Matej Bel University, Department Chemistry, Fac. Natural Sciences / Banska Bystrica / SLOVAKIA
 SCM User ID: u17848
  
 AMS 2021.105  RunTime: Nov25-2021 20:03:08  ShM Nodes: 1  Procs: 4

 AMS jobname: ams
 AMS jobid  : 985298632

 Start   directory: /home/milias/work/projects/open-collection/theoretical_chemistry/projects/nmr_diplomovky/reference_compounds/phosphoric_acid/ams/pbe0_tz2p_good/cosmo-chcl3/nonrel/opbe_tz2p-j_good-cosmo-chcl3/tmp.milias.189698.0.noindex/
 Results directory: /home/milias/work/projects/open-collection/theoretical_chemistry/projects/nmr_diplomovky/reference_compounds/phosphoric_acid/ams/pbe0_tz2p_good/cosmo-chcl3/nonrel/opbe_tz2p-j_good-cosmo-chcl3/phosphoric_acid.nmrshield_opbe_tz2p-j_good_cosmo-chcl3.results/
 Scratch directory: /tmp/amstmp_ams_kid0.985298632/


 Communication costs MPI_COMM_WORLD:      0.249 usec per message,   0.0034 usec per 8-byte item
 Communication costs for intra-node:      0.260 usec per message,   0.0033 usec per 8-byte item

 RNG seed: 484097735 582772127 -1810144009 -1139116245 -1046340810 1114925235 1251378067 741586698



                      ************************************************************************
                      *  ADF 2021.105  RunTime: Nov25-2021 20:03:08  ShM Nodes: 1  Procs: 4  *
                      ************************************************************************
  
       ****************************
       * SINGLE POINT CALCULATION *
       ****************************
 
--------
Geometry
--------
Formula: H3O4P
Atoms
  Index Symbol   x (angstrom)   y (angstrom)   z (angstrom)
      1      P    -0.00000000     0.00000000    -0.15579735       adf.R=1.850
      2      O    -1.38058389    -0.34999010     0.53942861       adf.R=1.517
      3      O     0.99339226    -1.02062567     0.53942861       adf.R=1.517
      4      O     0.38719163     1.37061577     0.53942861       adf.R=1.517
      5      O    -0.00000000     0.00000000    -1.62493663       adf.R=1.517
      6      H    -2.13315701     0.01634316     0.05414939       adf.R=1.350
      7      H     1.05242491    -1.85553974     0.05414939       adf.R=1.350
      8      H     1.08073210     1.83919658     0.05414939       adf.R=1.350
 
Total System Charge             0.00000
Bonding info available!
 
 
----------------
ADF Engine Input
----------------
 
 Basis
 Type TZ2P-J
 Core None
 End
 Save TAPE10
 XC
 GGA OPBE
 End
 Relativity
 Level None
 End
 Symmetry NOSYM
 Solvation
 Surf Delley
 Solv name=Chloroform cav0=0.0 cav1=0.0067639
 Charged method=CONJ
 C-Mat POT
 SCF VAR ALL
 CSMRSP
 End
 NumericalQuality Good
 

 Title: *** (NO TITLE) ***

 *** adf ***



 ===========================
 A T T A C H E D   F I L E S
 ===========================
  



 ===============================
 M O D E L   P A R A M E T E R S
 ===============================
  
 DENSITY FUNCTIONAL POTENTIAL (scf)
    LDA:                               VWN                                      
    Gradient Corrections:              OPTX PBEc                               == Not Default ==

 SPIN  (restricted / unrestr.)
    Molecule:                          Restricted                               
    Fragments:                         Restricted                               

 OTHER ASPECTS
    Relativistic Corrections:          ---                                     == Not Default ==

    Nuclear Charge Density Model:      Point Charge Nuclei                      
    Core Treatment:                    Frozen Orbital(s)                        

    Hyperfine or Zeeman Interaction:   ---                                      

 SOLVATION
-------------------------------------------

  The Delley construction of COSMO surface surface is calculated

       Division Level for Surface Triangles (NDIV)                  3
       Final Division Level for Triangles (NFDIV)                   1
       Radius of the Solvent (RSOL)                           3.17000 angstr
  Dielectric Constant (EPSL)                                  4.80000

       COSMO equation is solved iteratively-               conjugate-gradient

       Maximun of Iterations for Charges (NCIX)                  1000
       Criterion for Charge convergence (CCNV)                1.0E-08

  COSMO charges included variationally in SCF

       COSMO included at every SCF cycle

  Geometry-dependent empirical factor                         0.00000

  C-Matrix calculated in cspmtx

  In cspmtx, C-Matrix calculated using fitted potential

-------------------------------------------



 Fragment File(s)
 ----------------
 P:
         file : /home/milias/work/projects/open-collection/theoretical_chemistry/projects/nmr_diplomovky/reference_compounds/phosphoric_acid/ams/pbe0_tz2p_good/cosmo-chcl3/nonrel/opbe_tz2p-j_good-cosmo-chcl3/phosphoric_acid.nmrshield_opbe_tz2p-j_good_cosmo-chcl3.results/t21.4E7E8C9D.P
         jobid: 0
         title: Phosphorus (TZ2P-J)
 O:
         file : /home/milias/work/projects/open-collection/theoretical_chemistry/projects/nmr_diplomovky/reference_compounds/phosphoric_acid/ams/pbe0_tz2p_good/cosmo-chcl3/nonrel/opbe_tz2p-j_good-cosmo-chcl3/phosphoric_acid.nmrshield_opbe_tz2p-j_good_cosmo-chcl3.results/t21.FFA1C97.O
         jobid: 0
         title: Oxygen (TZ2P-J)
 H:
         file : /home/milias/work/projects/open-collection/theoretical_chemistry/projects/nmr_diplomovky/reference_compounds/phosphoric_acid/ams/pbe0_tz2p_good/cosmo-chcl3/nonrel/opbe_tz2p-j_good-cosmo-chcl3/phosphoric_acid.nmrshield_opbe_tz2p-j_good_cosmo-chcl3.results/t21.6B03DF84.H
         jobid: 0
         title: Hydrogen (TZ2P-J)



 ===============
 G E O M E T R Y  ***  3D  Molecule  ***
 ===============
  

 ATOMS
 =====                            X Y Z                    CHARGE                     RADIUS
                                (Angstrom)             Nucl     +Core       At.Mass (Angstrom)
                       --------------------------    ----------------       ------- ----------
    1  P              -0.0000    0.0000   -0.1558     15.00     15.00       30.9738    1.8500
    2  O              -1.3806   -0.3500    0.5394      8.00      8.00       15.9949    1.5170
    3  O               0.9934   -1.0206    0.5394      8.00      8.00       15.9949    1.5170
    4  O               0.3872    1.3706    0.5394      8.00      8.00       15.9949    1.5170
    5  O              -0.0000    0.0000   -1.6249      8.00      8.00       15.9949    1.5170
    6  H              -2.1332    0.0163    0.0541      1.00      1.00        1.0078    1.3500
    7  H               1.0524   -1.8555    0.0541      1.00      1.00        1.0078    1.3500
    8  H               1.0807    1.8392    0.0541      1.00      1.00        1.0078    1.3500


 FRAGMENTS
 =========                                     Atoms in this Fragment     Cart. coord.s (Angstrom)
                                               -------------------------------------------------------
    1  P                                                 1  P           -0.0000    0.0000   -0.1558
    2  O                                                 2  O           -1.3806   -0.3500    0.5394
    3  O                                                 3  O            0.9934   -1.0206    0.5394
    4  O                                                 4  O            0.3872    1.3706    0.5394
    5  O                                                 5  O           -0.0000    0.0000   -1.6249
    6  H                                                 6  H           -2.1332    0.0163    0.0541
    7  H                                                 7  H            1.0524   -1.8555    0.0541
    8  H                                                 8  H            1.0807    1.8392    0.0541


 Interatomic Distance Matrix (Angstrom)
 --------------------------------------

   1)     0.000
   2)     1.585   0.000
   3)     1.585   2.467   0.000
   4)     1.585   2.467   2.467   0.000
   5)     1.469   2.591   2.591   2.591   0.000
   6)     2.144   0.968   3.330   2.902   2.715   0.000
   7)     2.144   2.902   0.968   3.330   2.715   3.695   0.000
   8)     2.144   3.330   2.902   0.968   2.715   3.695   3.695   0.000

 Min. Distance =    0.9675
 Max. Distance =    3.6948



 =====================================
 S Y M M E T R Y ,   E L E C T R O N S
 =====================================
  
 Symmetry: NOSYM

 Irreducible Representations, including subspecies
 -------------------------------------------------
 A


 Configuration of Valence Electrons
 ==================================
 ( determined in the SCF procedure )

 Total:   50

 Net Charge: 0 (Nuclei minus Electrons)

 Aufbau principle for MO occupations will be applied through SCF cycle no.     150
 Thereafter, the program will assign electrons to MOs that are spatially
 similar to the occupied MOs in a "reference" cycle ("KeepOrbitals").
 The reference cycle is always the PREVIOUS cycle: it will evolve with
 the SCF procedure.
1
 ***************************************************************************************************



                                      ****************************************
                                      *  B U I L D : (Fragments, Functions)  *
                                      ****************************************
  



 =======
 S F O s  ***  (Symmetrized Fragment Orbitals)  ***
 =======
  
 SFOs are linear combinations of (valence) Fragment Orbitals (FOs), such that the SFOs transform as the
 irreducible representations of the (molecular) symmetry group. Each SFO is therefore characterized by
 an irrep of the molecule and by a few (or only one) generating FOs.
 The SFOs constitute a symmetry-adapted basis for the Fock matrix. The MO eigenvector coefficients in
 this basis provide a direct interpretation of the MOs in terms of Frontier Orbital Theory.

 The SFOs are combined with auxiliary Core Functions (CFs) to ensure orthogonalization on the (frozen)
 Core Orbitals (COs). The Core-orthogonalized SFOs (CSFOs) constitute the true Fock basis.

 The FOs, and hence also the (C)SFOs are combinations of the elementary basis functions (BAS). The basis
 functions that participate in the description of the SFOs depend on the irrep. The indices of the
 involved functions are printed below for each irrep.
 (The complete list of primitive basis functions is printed in another section)

 Total nr. of (C)SFOs (summation over all irreps) :   218

 NOTE: a (C)SFO that is defined as a combination of more than one FO is usually NOT normalized.



                                       === A ===
 Nr. of SFOs :  218
 Cartesian basis functions that participate in this irrep (total number =   241) :
      1     2     3     4     5     6     7     8    18    19
     20     9    12    15    21    24    27    10    13    16
     22    25    28    11    14    17    23    26    29    30
     31    32    33    34    35    36    37    38    39    40
     41    42    43    44    45    46    47    48    49    50
     51    52    53    54    55    58    61    64    56    59
     62    65    57    60    63    66    67    68    69    70
     71    72    73    74    75    76    77    78    79    80
     81    82    83    84    85    86    87    88    89    90
     91    92    95    98   101    93    96    99   102    94
     97   100   103   104   105   106   107   108   109   110
    111   112   113   114   115   116   117   118   119   120
    121   122   123   124   125   126   127   128   129   132
    135   138   130   133   136   139   131   134   137   140
    141   142   143   144   145   146   147   148   149   150
    151   152   153   154   155   156   157   158   159   160
    161   162   163   164   165   166   169   172   175   167
    170   173   176   168   171   174   177   178   179   180
    181   182   183   184   185   186   187   188   189   190
    191   192   193   194   195   196   197   198   199   200
    201   202   203   204   205   206   207   208   209   210
    211   212   213   214   215   216   217   218   219   220
    221   222   223   224   225   226   227   228   229   230
    231   232   233   234   235   236   237   238   239   240
    241

    SFO  (index         Fragment          Generating    Expansion in Fragment Orbitals
  indx  incl.CFs)   Occup   Orb.Energy   FragmentType  Coeff.   Orbital     on Fragment
 --------------------------------------------------------------------------------------
     1       1      2.000     -76.338 au  P             1.00      1 S               1
                        (   -2077.266 eV)
     2       2      2.000      -6.405 au  P             1.00      2 S               1
                        (    -174.300 eV)
     3       3      2.000      -0.512 au  P             1.00      3 S               1
                        (     -13.925 eV)
     4       4       --         0.126 au  P             1.00      4 S               1
                        (       3.441 eV)
     5       5       --         1.313 au  P             1.00      5 S               1
                        (      35.717 eV)
     6       6       --         8.272 au  P             1.00      6 S               1
                        (     225.083 eV)
     7       7       --        72.361 au  P             1.00      7 S               1
                        (    1969.036 eV)
     8       8       --       489.568 au  P             1.00      8 S               1
                        (   13321.833 eV)
     9       9       --      3735.677 au  P             1.00      9 S               1
                        (  101652.956 eV)
    10      10       --     50530.643 au  P             1.00     10 S               1
                        ( 1375008.754 eV)
    11      11       --   1301295.342 au  P             1.00     11 S               1
                        (35410047.923 eV)
    12      12      2.000      -4.608 au  P             1.00      1 P:x             1
                        (    -125.385 eV)
    13      13      1.000      -0.204 au  P             1.00      2 P:x             1
                        (      -5.540 eV)
    14      14       --         0.085 au  P             1.00      3 P:x             1
                        (       2.324 eV)
    15      15       --         0.871 au  P             1.00      4 P:x             1
                        (      23.698 eV)
    16      16       --         9.178 au  P             1.00      5 P:x             1
                        (     249.742 eV)
    17      17       --       120.128 au  P             1.00      6 P:x             1
                        (    3268.845 eV)
    18      18      2.000      -4.608 au  P             1.00      1 P:y             1
                        (    -125.385 eV)
    19      19      1.000      -0.204 au  P             1.00      2 P:y             1
                        (      -5.540 eV)
    20      20       --         0.085 au  P             1.00      3 P:y             1
                        (       2.324 eV)
    21      21       --         0.871 au  P             1.00      4 P:y             1
                        (      23.698 eV)
    22      22       --         9.178 au  P             1.00      5 P:y             1
                        (     249.742 eV)
    23      23       --       120.128 au  P             1.00      6 P:y             1
                        (    3268.845 eV)
    24      24      2.000      -4.608 au  P             1.00      1 P:z             1
                        (    -125.385 eV)
    25      25      1.000      -0.204 au  P             1.00      2 P:z             1
                        (      -5.540 eV)
    26      26       --         0.085 au  P             1.00      3 P:z             1
                        (       2.324 eV)
    27      27       --         0.871 au  P             1.00      4 P:z             1
                        (      23.698 eV)
    28      28       --         9.178 au  P             1.00      5 P:z             1
                        (     249.742 eV)
    29      29       --       120.128 au  P             1.00      6 P:z             1
                        (    3268.845 eV)
    30      30       --         0.386 au  P             1.00      1 D:z2            1
                        (      10.507 eV)
    31      31       --         0.386 au  P             1.00      1 D:x2-y2         1
                        (      10.507 eV)
    32      32       --         0.386 au  P             1.00      1 D:xy            1
                        (      10.507 eV)
    33      33       --         0.386 au  P             1.00      1 D:xz            1
                        (      10.507 eV)
    34      34       --         0.386 au  P             1.00      1 D:yz            1
                        (      10.507 eV)
    35      35       --         1.145 au  P             1.00      1 F:z3            1
                        (      31.166 eV)
    36      36       --         1.145 au  P             1.00      1 F:z             1
                        (      31.166 eV)
    37      37       --         1.145 au  P             1.00      1 F:xyz           1
                        (      31.166 eV)
    38      38       --         1.145 au  P             1.00      1 F:z2x           1
                        (      31.166 eV)
    39      39       --         1.145 au  P             1.00      1 F:z2y           1
                        (      31.166 eV)
    40      40       --         1.145 au  P             1.00      1 F:x             1
                        (      31.166 eV)
    41      41       --         1.145 au  P             1.00      1 F:y             1
                        (      31.166 eV)
    42      42      2.000     -18.893 au  O             1.00      1 S               2
                        (    -514.113 eV)
    43      43      2.000      -0.889 au  O             1.00      2 S               2
                        (     -24.185 eV)
    44      44       --         0.742 au  O             1.00      3 S               2
                        (      20.197 eV)
    45      45       --         9.224 au  O             1.00      4 S               2
                        (     251.010 eV)
    46      46       --        47.532 au  O             1.00      5 S               2
                        (    1293.419 eV)
    47      47       --       212.438 au  O             1.00      6 S               2
                        (    5780.720 eV)
    48      48       --      1271.753 au  O             1.00      7 S               2
                        (   34606.147 eV)
    49      49       --     14992.289 au  O             1.00      8 S               2
                        (  407960.936 eV)
    50      50       --    372064.755 au  O             1.00      9 S               2
                        (10124397.116 eV)
    51      51      1.333      -0.328 au  O             1.00      1 P:x             2
                        (      -8.935 eV)
    52      52       --         0.352 au  O             1.00      2 P:x             2
                        (       9.565 eV)
    53      53       --         3.470 au  O             1.00      3 P:x             2
                        (      94.414 eV)
    54      54       --        37.352 au  O             1.00      4 P:x             2
                        (    1016.405 eV)
    55      55      1.333      -0.328 au  O             1.00      1 P:y             2
                        (      -8.935 eV)
    56      56       --         0.352 au  O             1.00      2 P:y             2
                        (       9.565 eV)
    57      57       --         3.470 au  O             1.00      3 P:y             2
                        (      94.414 eV)
    58      58       --        37.352 au  O             1.00      4 P:y             2
                        (    1016.405 eV)
    59      59      1.333      -0.328 au  O             1.00      1 P:z             2
                        (      -8.935 eV)
    60      60       --         0.352 au  O             1.00      2 P:z             2
                        (       9.565 eV)
    61      61       --         3.470 au  O             1.00      3 P:z             2
                        (      94.414 eV)
    62      62       --        37.352 au  O             1.00      4 P:z             2
                        (    1016.405 eV)
    63      63       --         1.070 au  O             1.00      1 D:z2            2
                        (      29.124 eV)
    64      64       --         1.070 au  O             1.00      1 D:x2-y2         2
                        (      29.124 eV)
    65      65       --         1.070 au  O             1.00      1 D:xy            2
                        (      29.124 eV)
    66      66       --         1.070 au  O             1.00      1 D:xz            2
                        (      29.124 eV)
    67      67       --         1.070 au  O             1.00      1 D:yz            2
                        (      29.124 eV)
    68      68       --         3.346 au  O             1.00      1 F:z3            2
                        (      91.061 eV)
    69      69       --         3.346 au  O             1.00      1 F:z             2
                        (      91.061 eV)
    70      70       --         3.346 au  O             1.00      1 F:xyz           2
                        (      91.061 eV)
    71      71       --         3.346 au  O             1.00      1 F:z2x           2
                        (      91.061 eV)
    72      72       --         3.346 au  O             1.00      1 F:z2y           2
                        (      91.061 eV)
    73      73       --         3.346 au  O             1.00      1 F:x             2
                        (      91.061 eV)
    74      74       --         3.346 au  O             1.00      1 F:y             2
                        (      91.061 eV)
    75      75      2.000     -18.893 au  O             1.00      1 S               3
                        (    -514.113 eV)
    76      76      2.000      -0.889 au  O             1.00      2 S               3
                        (     -24.185 eV)
    77      77       --         0.742 au  O             1.00      3 S               3
                        (      20.197 eV)
    78      78       --         9.224 au  O             1.00      4 S               3
                        (     251.010 eV)
    79      79       --        47.532 au  O             1.00      5 S               3
                        (    1293.419 eV)
    80      80       --       212.438 au  O             1.00      6 S               3
                        (    5780.720 eV)
    81      81       --      1271.753 au  O             1.00      7 S               3
                        (   34606.147 eV)
    82      82       --     14992.289 au  O             1.00      8 S               3
                        (  407960.936 eV)
    83      83       --    372064.755 au  O             1.00      9 S               3
                        (10124397.116 eV)
    84      84      1.333      -0.328 au  O             1.00      1 P:x             3
                        (      -8.935 eV)
    85      85       --         0.352 au  O             1.00      2 P:x             3
                        (       9.565 eV)
    86      86       --         3.470 au  O             1.00      3 P:x             3
                        (      94.414 eV)
    87      87       --        37.352 au  O             1.00      4 P:x             3
                        (    1016.405 eV)
    88      88      1.333      -0.328 au  O             1.00      1 P:y             3
                        (      -8.935 eV)
    89      89       --         0.352 au  O             1.00      2 P:y             3
                        (       9.565 eV)
    90      90       --         3.470 au  O             1.00      3 P:y             3
                        (      94.414 eV)
    91      91       --        37.352 au  O             1.00      4 P:y             3
                        (    1016.405 eV)
    92      92      1.333      -0.328 au  O             1.00      1 P:z             3
                        (      -8.935 eV)
    93      93       --         0.352 au  O             1.00      2 P:z             3
                        (       9.565 eV)
    94      94       --         3.470 au  O             1.00      3 P:z             3
                        (      94.414 eV)
    95      95       --        37.352 au  O             1.00      4 P:z             3
                        (    1016.405 eV)
    96      96       --         1.070 au  O             1.00      1 D:z2            3
                        (      29.124 eV)
    97      97       --         1.070 au  O             1.00      1 D:x2-y2         3
                        (      29.124 eV)
    98      98       --         1.070 au  O             1.00      1 D:xy            3
                        (      29.124 eV)
    99      99       --         1.070 au  O             1.00      1 D:xz            3
                        (      29.124 eV)
   100     100       --         1.070 au  O             1.00      1 D:yz            3
                        (      29.124 eV)
   101     101       --         3.346 au  O             1.00      1 F:z3            3
                        (      91.061 eV)
   102     102       --         3.346 au  O             1.00      1 F:z             3
                        (      91.061 eV)
   103     103       --         3.346 au  O             1.00      1 F:xyz           3
                        (      91.061 eV)
   104     104       --         3.346 au  O             1.00      1 F:z2x           3
                        (      91.061 eV)
   105     105       --         3.346 au  O             1.00      1 F:z2y           3
                        (      91.061 eV)
   106     106       --         3.346 au  O             1.00      1 F:x             3
                        (      91.061 eV)
   107     107       --         3.346 au  O             1.00      1 F:y             3
                        (      91.061 eV)
   108     108      2.000     -18.893 au  O             1.00      1 S               4
                        (    -514.113 eV)
   109     109      2.000      -0.889 au  O             1.00      2 S               4
                        (     -24.185 eV)
   110     110       --         0.742 au  O             1.00      3 S               4
                        (      20.197 eV)
   111     111       --         9.224 au  O             1.00      4 S               4
                        (     251.010 eV)
   112     112       --        47.532 au  O             1.00      5 S               4
                        (    1293.419 eV)
   113     113       --       212.438 au  O             1.00      6 S               4
                        (    5780.720 eV)
   114     114       --      1271.753 au  O             1.00      7 S               4
                        (   34606.147 eV)
   115     115       --     14992.289 au  O             1.00      8 S               4
                        (  407960.936 eV)
   116     116       --    372064.755 au  O             1.00      9 S               4
                        (10124397.116 eV)
   117     117      1.333      -0.328 au  O             1.00      1 P:x             4
                        (      -8.935 eV)
   118     118       --         0.352 au  O             1.00      2 P:x             4
                        (       9.565 eV)
   119     119       --         3.470 au  O             1.00      3 P:x             4
                        (      94.414 eV)
   120     120       --        37.352 au  O             1.00      4 P:x             4
                        (    1016.405 eV)
   121     121      1.333      -0.328 au  O             1.00      1 P:y             4
                        (      -8.935 eV)
   122     122       --         0.352 au  O             1.00      2 P:y             4
                        (       9.565 eV)
   123     123       --         3.470 au  O             1.00      3 P:y             4
                        (      94.414 eV)
   124     124       --        37.352 au  O             1.00      4 P:y             4
                        (    1016.405 eV)
   125     125      1.333      -0.328 au  O             1.00      1 P:z             4
                        (      -8.935 eV)
   126     126       --         0.352 au  O             1.00      2 P:z             4
                        (       9.565 eV)
   127     127       --         3.470 au  O             1.00      3 P:z             4
                        (      94.414 eV)
   128     128       --        37.352 au  O             1.00      4 P:z             4
                        (    1016.405 eV)
   129     129       --         1.070 au  O             1.00      1 D:z2            4
                        (      29.124 eV)
   130     130       --         1.070 au  O             1.00      1 D:x2-y2         4
                        (      29.124 eV)
   131     131       --         1.070 au  O             1.00      1 D:xy            4
                        (      29.124 eV)
   132     132       --         1.070 au  O             1.00      1 D:xz            4
                        (      29.124 eV)
   133     133       --         1.070 au  O             1.00      1 D:yz            4
                        (      29.124 eV)
   134     134       --         3.346 au  O             1.00      1 F:z3            4
                        (      91.061 eV)
   135     135       --         3.346 au  O             1.00      1 F:z             4
                        (      91.061 eV)
   136     136       --         3.346 au  O             1.00      1 F:xyz           4
                        (      91.061 eV)
   137     137       --         3.346 au  O             1.00      1 F:z2x           4
                        (      91.061 eV)
   138     138       --         3.346 au  O             1.00      1 F:z2y           4
                        (      91.061 eV)
   139     139       --         3.346 au  O             1.00      1 F:x             4
                        (      91.061 eV)
   140     140       --         3.346 au  O             1.00      1 F:y             4
                        (      91.061 eV)
   141     141      2.000     -18.893 au  O             1.00      1 S               5
                        (    -514.113 eV)
   142     142      2.000      -0.889 au  O             1.00      2 S               5
                        (     -24.185 eV)
   143     143       --         0.742 au  O             1.00      3 S               5
                        (      20.197 eV)
   144     144       --         9.224 au  O             1.00      4 S               5
                        (     251.010 eV)
   145     145       --        47.532 au  O             1.00      5 S               5
                        (    1293.419 eV)
   146     146       --       212.438 au  O             1.00      6 S               5
                        (    5780.720 eV)
   147     147       --      1271.753 au  O             1.00      7 S               5
                        (   34606.147 eV)
   148     148       --     14992.289 au  O             1.00      8 S               5
                        (  407960.936 eV)
   149     149       --    372064.755 au  O             1.00      9 S               5
                        (10124397.116 eV)
   150     150      1.333      -0.328 au  O             1.00      1 P:x             5
                        (      -8.935 eV)
   151     151       --         0.352 au  O             1.00      2 P:x             5
                        (       9.565 eV)
   152     152       --         3.470 au  O             1.00      3 P:x             5
                        (      94.414 eV)
   153     153       --        37.352 au  O             1.00      4 P:x             5
                        (    1016.405 eV)
   154     154      1.333      -0.328 au  O             1.00      1 P:y             5
                        (      -8.935 eV)
   155     155       --         0.352 au  O             1.00      2 P:y             5
                        (       9.565 eV)
   156     156       --         3.470 au  O             1.00      3 P:y             5
                        (      94.414 eV)
   157     157       --        37.352 au  O             1.00      4 P:y             5
                        (    1016.405 eV)
   158     158      1.333      -0.328 au  O             1.00      1 P:z             5
                        (      -8.935 eV)
   159     159       --         0.352 au  O             1.00      2 P:z             5
                        (       9.565 eV)
   160     160       --         3.470 au  O             1.00      3 P:z             5
                        (      94.414 eV)
   161     161       --        37.352 au  O             1.00      4 P:z             5
                        (    1016.405 eV)
   162     162       --         1.070 au  O             1.00      1 D:z2            5
                        (      29.124 eV)
   163     163       --         1.070 au  O             1.00      1 D:x2-y2         5
                        (      29.124 eV)
   164     164       --         1.070 au  O             1.00      1 D:xy            5
                        (      29.124 eV)
   165     165       --         1.070 au  O             1.00      1 D:xz            5
                        (      29.124 eV)
   166     166       --         1.070 au  O             1.00      1 D:yz            5
                        (      29.124 eV)
   167     167       --         3.346 au  O             1.00      1 F:z3            5
                        (      91.061 eV)
   168     168       --         3.346 au  O             1.00      1 F:z             5
                        (      91.061 eV)
   169     169       --         3.346 au  O             1.00      1 F:xyz           5
                        (      91.061 eV)
   170     170       --         3.346 au  O             1.00      1 F:z2x           5
                        (      91.061 eV)
   171     171       --         3.346 au  O             1.00      1 F:z2y           5
                        (      91.061 eV)
   172     172       --         3.346 au  O             1.00      1 F:x             5
                        (      91.061 eV)
   173     173       --         3.346 au  O             1.00      1 F:y             5
                        (      91.061 eV)
   174     174      1.000      -0.238 au  H             1.00      1 S               6
                        (      -6.469 eV)
   175     175       --         0.058 au  H             1.00      2 S               6
                        (       1.586 eV)
   176     176       --         0.748 au  H             1.00      3 S               6
                        (      20.361 eV)
   177     177       --         4.739 au  H             1.00      4 S               6
                        (     128.961 eV)
   178     178       --        34.422 au  H             1.00      5 S               6
                        (     936.667 eV)
   179     179       --       362.248 au  H             1.00      6 S               6
                        (    9857.266 eV)
   180     180       --      6333.819 au  H             1.00      7 S               6
                        (  172351.981 eV)
   181     181       --         0.409 au  H             1.00      1 P:x             6
                        (      11.125 eV)
   182     182       --         0.409 au  H             1.00      1 P:y             6
                        (      11.125 eV)
   183     183       --         0.409 au  H             1.00      1 P:z             6
                        (      11.125 eV)
   184     184       --         2.560 au  H             1.00      1 D:z2            6
                        (      69.649 eV)
   185     185       --         2.560 au  H             1.00      1 D:x2-y2         6
                        (      69.649 eV)
   186     186       --         2.560 au  H             1.00      1 D:xy            6
                        (      69.649 eV)
   187     187       --         2.560 au  H             1.00      1 D:xz            6
                        (      69.649 eV)
   188     188       --         2.560 au  H             1.00      1 D:yz            6
                        (      69.649 eV)
   189     189      1.000      -0.238 au  H             1.00      1 S               7
                        (      -6.469 eV)
   190     190       --         0.058 au  H             1.00      2 S               7
                        (       1.586 eV)
   191     191       --         0.748 au  H             1.00      3 S               7
                        (      20.361 eV)
   192     192       --         4.739 au  H             1.00      4 S               7
                        (     128.961 eV)
   193     193       --        34.422 au  H             1.00      5 S               7
                        (     936.667 eV)
   194     194       --       362.248 au  H             1.00      6 S               7
                        (    9857.266 eV)
   195     195       --      6333.819 au  H             1.00      7 S               7
                        (  172351.981 eV)
   196     196       --         0.409 au  H             1.00      1 P:x             7
                        (      11.125 eV)
   197     197       --         0.409 au  H             1.00      1 P:y             7
                        (      11.125 eV)
   198     198       --         0.409 au  H             1.00      1 P:z             7
                        (      11.125 eV)
   199     199       --         2.560 au  H             1.00      1 D:z2            7
                        (      69.649 eV)
   200     200       --         2.560 au  H             1.00      1 D:x2-y2         7
                        (      69.649 eV)
   201     201       --         2.560 au  H             1.00      1 D:xy            7
                        (      69.649 eV)
   202     202       --         2.560 au  H             1.00      1 D:xz            7
                        (      69.649 eV)
   203     203       --         2.560 au  H             1.00      1 D:yz            7
                        (      69.649 eV)
   204     204      1.000      -0.238 au  H             1.00      1 S               8
                        (      -6.469 eV)
   205     205       --         0.058 au  H             1.00      2 S               8
                        (       1.586 eV)
   206     206       --         0.748 au  H             1.00      3 S               8
                        (      20.361 eV)
   207     207       --         4.739 au  H             1.00      4 S               8
                        (     128.961 eV)
   208     208       --        34.422 au  H             1.00      5 S               8
                        (     936.667 eV)
   209     209       --       362.248 au  H             1.00      6 S               8
                        (    9857.266 eV)
   210     210       --      6333.819 au  H             1.00      7 S               8
                        (  172351.981 eV)
   211     211       --         0.409 au  H             1.00      1 P:x             8
                        (      11.125 eV)
   212     212       --         0.409 au  H             1.00      1 P:y             8
                        (      11.125 eV)
   213     213       --         0.409 au  H             1.00      1 P:z             8
                        (      11.125 eV)
   214     214       --         2.560 au  H             1.00      1 D:z2            8
                        (      69.649 eV)
   215     215       --         2.560 au  H             1.00      1 D:x2-y2         8
                        (      69.649 eV)
   216     216       --         2.560 au  H             1.00      1 D:xy            8
                        (      69.649 eV)
   217     217       --         2.560 au  H             1.00      1 D:xz            8
                        (      69.649 eV)
   218     218       --         2.560 au  H             1.00      1 D:yz            8
                        (      69.649 eV)



 ================================
 (Slater-type)  F U N C T I O N S  ***  (Basis and Fit)  ***
 ================================
  

 Atom Type    1  (P)
 ==============

 Valence Basis Sets:  19
 -----------------------
   1 S 1500.000000
   1 S  300.000000
   1 S   75.000000
   1 S   30.000000
   1 S   18.000000
   1 S   13.350000
   2 S    5.600000
   2 S    4.050000
   2 P   18.000000
   2 P    7.450000
   2 P    4.100000
   3 S    2.700000
   3 S    1.850000
   3 S    1.300000
   3 P    2.300000
   3 P    1.350000
   3 P    0.850000
   3 D    1.900000
   4 F    2.000000

 Atom Type    2  (O)
 ==============

 Valence Basis Sets:  15
 -----------------------
   1 S  800.000000
   1 S  160.000000
   1 S   40.000000
   1 S   16.000000
   1 S    9.800000
   1 S    6.800000
   2 S    7.580000
   2 S    2.880000
   2 S    1.720000
   2 P    9.800000
   2 P    4.080000
   2 P    2.080000
   2 P    1.120000
   3 D    2.000000
   4 F    3.000000

 Atom Type    3  (H)
 ==============

 Valence Basis Sets:   9
 -----------------------
   1 S  100.000000
   1 S   25.000000
   1 S    7.500000
   1 S    3.000000
   1 S    0.690000
   1 S    0.920000
   1 S    1.580000
   2 P    1.250000
   3 D    2.500000


 BAS: List of all Elementary Cartesian Basis Functions
 =====================================================

 The numbering in the list below (to the right of the function characteristics) is referred
 to in print-outs of MO eigenvectors and Mulliken populations in the BAS representation
 (as contrasted to the SFO representation).

 Notes:
 1. The functions are characterized by a polynomial prefactor (powers of x,y,z and r) and
    an exponential decay factor alpha.
 2. Since the basis sets are specific for an atom TYPE, the individual functions occur on
    all atoms of that type.
 3. The word 'Core' in the left margin signals that it is a Core Function (CF) : not a
    degree of freedom in the valence set, but only used to ensure orthogonalization of
    the other valence basis functions on the frozen Core Orbitals.


 (power of) X  Y  Z  R     Alpha  on Atom
            ==========     =====     ==========

 P                                    1
                                  ---------------------------------------------------------------------------
            0  0  0  0  1500.000      1
            0  0  0  0   300.000      2
            0  0  0  0    75.000      3
            0  0  0  0    30.000      4
            0  0  0  0    18.000      5
            0  0  0  0    13.350      6
            0  0  0  1     5.600      7
            0  0  0  1     4.050      8
            1  0  0  0    18.000      9
            0  1  0  0    18.000     10
            0  0  1  0    18.000     11
            1  0  0  0     7.450     12
            0  1  0  0     7.450     13
            0  0  1  0     7.450     14
            1  0  0  0     4.100     15
            0  1  0  0     4.100     16
            0  0  1  0     4.100     17
            0  0  0  2     2.700     18
            0  0  0  2     1.850     19
            0  0  0  2     1.300     20
            1  0  0  1     2.300     21
            0  1  0  1     2.300     22
            0  0  1  1     2.300     23
            1  0  0  1     1.350     24
            0  1  0  1     1.350     25
            0  0  1  1     1.350     26
            1  0  0  1     0.850     27
            0  1  0  1     0.850     28
            0  0  1  1     0.850     29
            2  0  0  0     1.900     30
            1  1  0  0     1.900     31
            1  0  1  0     1.900     32
            0  2  0  0     1.900     33
            0  1  1  0     1.900     34
            0  0  2  0     1.900     35
            3  0  0  0     2.000     36
            2  1  0  0     2.000     37
            2  0  1  0     2.000     38
            1  2  0  0     2.000     39
            1  1  1  0     2.000     40
            1  0  2  0     2.000     41
            0  3  0  0     2.000     42
            0  2  1  0     2.000     43
            0  1  2  0     2.000     44
            0  0  3  0     2.000     45

 O                                    2    3    4    5
                                  ---------------------------------------------------------------------------
            0  0  0  0   800.000     46   83  120  157
            0  0  0  0   160.000     47   84  121  158
            0  0  0  0    40.000     48   85  122  159
            0  0  0  0    16.000     49   86  123  160
            0  0  0  0     9.800     50   87  124  161
            0  0  0  0     6.800     51   88  125  162
            0  0  0  1     7.580     52   89  126  163
            0  0  0  1     2.880     53   90  127  164
            0  0  0  1     1.720     54   91  128  165
            1  0  0  0     9.800     55   92  129  166
            0  1  0  0     9.800     56   93  130  167
            0  0  1  0     9.800     57   94  131  168
            1  0  0  0     4.080     58   95  132  169
            0  1  0  0     4.080     59   96  133  170
            0  0  1  0     4.080     60   97  134  171
            1  0  0  0     2.080     61   98  135  172
            0  1  0  0     2.080     62   99  136  173
            0  0  1  0     2.080     63  100  137  174
            1  0  0  0     1.120     64  101  138  175
            0  1  0  0     1.120     65  102  139  176
            0  0  1  0     1.120     66  103  140  177
            2  0  0  0     2.000     67  104  141  178
            1  1  0  0     2.000     68  105  142  179
            1  0  1  0     2.000     69  106  143  180
            0  2  0  0     2.000     70  107  144  181
            0  1  1  0     2.000     71  108  145  182
            0  0  2  0     2.000     72  109  146  183
            3  0  0  0     3.000     73  110  147  184
            2  1  0  0     3.000     74  111  148  185
            2  0  1  0     3.000     75  112  149  186
            1  2  0  0     3.000     76  113  150  187
            1  1  1  0     3.000     77  114  151  188
            1  0  2  0     3.000     78  115  152  189
            0  3  0  0     3.000     79  116  153  190
            0  2  1  0     3.000     80  117  154  191
            0  1  2  0     3.000     81  118  155  192
            0  0  3  0     3.000     82  119  156  193

 H                                    6    7    8
                                  ---------------------------------------------------------------------------
            0  0  0  0   100.000    194  210  226
            0  0  0  0    25.000    195  211  227
            0  0  0  0     7.500    196  212  228
            0  0  0  0     3.000    197  213  229
            0  0  0  0     0.690    198  214  230
            0  0  0  0     0.920    199  215  231
            0  0  0  0     1.580    200  216  232
            1  0  0  0     1.250    201  217  233
            0  1  0  0     1.250    202  218  234
            0  0  1  0     1.250    203  219  235
            2  0  0  0     2.500    204  220  236
            1  1  0  0     2.500    205  221  237
            1  0  1  0     2.500    206  222  238
            0  2  0  0     2.500    207  223  239
            0  1  1  0     2.500    208  224  240
            0  0  2  0     2.500    209  225  241

 Total number of charge fitting functions (nprimf)      1338
 Total number of Cartesian basis functions (naos)        241
 Total number of Cartesian core functions  (ncos)          0

1
 ***************************************************************************************************



                                              ***********************
                                              *  T E C H N I C A L  *
                                              ***********************
  



 =============================================================
 P A R A L L E L I Z A T I O N  and  V E C T O R I Z A T I O N
 =============================================================
  
 Nr of parallel processes:                                4
 Maximum vector length in NumInt loops:                 128



 =====================
 S C F   U P D A T E S
 =====================
  
 Max. nr. of cycles:                               300
 Convergence criterion:                              0.0000010000
   secondary criterion:                              0.0010000000

 Mix parameter (when DIIS does not apply):           0.2000000000
 Mixed ADIIS+SDIIS will be used                  
    Max number of expansion vectors:                10
    Pure ADIIS when Max([F,P]) is above              0.1000000000
    Pure SDIIS when Max([F,P]) is below              0.0010000000
 Automatic ElectronSmearing (in case of problematic SCF convergence) disabled



 =================
 P R E C I S I O N  ***  (General: NumInt, NeglectFunctionTails, ...)  ***
 =================
  

 NumInt:           Target precision:                 6.0000000000
 -------           Initial precision:                6.0000000000
                   Min. precision (optimization):    6.0000000000

 Neglect Functions:          Basis functions:        0.1000000000E-07
 ------------------          Fit functions:          0.1000000000E-07



 ===========================
 L I N E A R   S C A L I N G
 ===========================
  

 Cut-off radii density fit:                        0.1000000000E-09
 Overlap cut-off criterion AO matrix elements:     0.1000000000E-07
 Cut-offs for Coulomb potential and fitted density:0.1000000000E-09
 Cut-off criterion for Coulomb multipole terms:    0.1000000000E-09
 Progressive Convergence parameter:                 0.000000000    
1
 ***************************************************************************************************



                                            ***************************
                                            *  C O M P U T A T I O N  *
                                            ***************************
  

 Number of elements of the density matrix on this node (used, total):      7540     29161



 ===========================================
 Numerical Integration : Fuzzy Cells (Becke)
 ===========================================
  
 Becke grid quality: GOOD           
  
 Lebedev angular grid order:             min:  11 max:  31
 Nr. of radial points:                   min: 112 max: 222

 Total nr. of points:     286471
 Nr. of blocks:             2239
 Block length:               128
 Nr. of dummy points:        121


 Test of Precision of the Numerical Integration Grid
 ===================================================

 Integral of the Total Core Density:                   0.00000000000000


 -------------------------------------------
  COSMO surface
  Area             =          351.833
  Volume           =          526.914
  Number of Points =          944
 -------------------------------------------



 ========================
 Density Fitting (zlmFit)
 ========================
  
 ZlmFit Fit Quality: GOOD           
  
 Max L-expansion:                        min:   8 max:   9
 Nr. of radial interpolation points:     min: 180 max: 378



 =====
 S C F  ***  ScaSCF  ***
 =====
  
 Initial density matrix is calculated as sum of fragments

 CYCLE    1
 SCF Error: norm([F,P])=      5.859424372856, max([F,P])=      1.355260776202
 orbitals (Q,E):
 ---------------
 A :16...35          ( 2.00    -0.6241)  ( 2.00    -0.5691)  ( 2.00    -0.5197)  ( 2.00    -0.5197)
                     ( 2.00    -0.4904)  ( 2.00    -0.4672)  ( 2.00    -0.4672)  ( 2.00    -0.4399)
                     ( 2.00    -0.4281)  ( 2.00    -0.4281)  ( 0.00    -0.0776)  ( 0.00    -0.0319)
                     ( 0.00    -0.0319)  ( 0.00     0.0043)  ( 0.00     0.0259)  ( 0.00     0.0259)
                     ( 0.00     0.0483)  ( 0.00     0.0683)  ( 0.00     0.0986)  ( 0.00     0.0987)

 CYCLE    2
   MIX coefficients:  0.8000  0.2000
 SCF Error: norm([F,P])=      1.274858691426, max([F,P])=      0.215314546128
 orbitals (Q,E):
 ---------------
 A :16...26          ( 2.00    -0.5820)  ( 2.00    -0.5127)  ( 2.00    -0.4693)  ( 2.00    -0.4693)
                     ( 2.00    -0.4268)  ( 2.00    -0.4152)  ( 2.00    -0.4152)  ( 2.00    -0.3858)
                     ( 2.00    -0.3583)  ( 2.00    -0.3583)  ( 0.00    -0.0598)

 CYCLE    3
  SDIIS (wt  0.000): -0.8339  1.8339
 A-DIIS (wt  1.000):  0.0000  1.0000
  DIIS coefficients:  0.0000  1.0000
 SCF Error: norm([F,P])=      0.598351908148, max([F,P])=      0.101584418759
 orbitals (Q,E):
 ---------------
 A :16...26          ( 2.00    -0.4656)  ( 2.00    -0.3719)  ( 2.00    -0.3346)  ( 2.00    -0.3346)
                     ( 2.00    -0.2778)  ( 2.00    -0.2778)  ( 2.00    -0.2618)  ( 2.00    -0.2376)
                     ( 2.00    -0.1859)  ( 2.00    -0.1859)  ( 0.00    -0.0181)

 CYCLE    4
  SDIIS (wt  0.000):  0.1966  0.3693  0.4341
 A-DIIS (wt  1.000):  0.0000  0.7180  0.2820
  DIIS coefficients:  0.0000  0.7180  0.2820
 SCF Error: norm([F,P])=      1.080244957830, max([F,P])=      0.199783658121
 orbitals (Q,E):
 ---------------
 A :16...26          ( 2.00    -0.4980)  ( 2.00    -0.4194)  ( 2.00    -0.3763)  ( 2.00    -0.3763)
                     ( 2.00    -0.3233)  ( 2.00    -0.3210)  ( 2.00    -0.3210)  ( 2.00    -0.2869)
                     ( 2.00    -0.2534)  ( 2.00    -0.2534)  ( 0.00    -0.0255)

 CYCLE    5
  SDIIS (wt  0.610):  0.0768  0.2635  0.1297  0.5300
 A-DIIS (wt  0.390):  0.0000  0.1135  0.0000  0.8865
  DIIS coefficients:  0.0468  0.2050  0.0791  0.6692
 SCF Error: norm([F,P])=      0.231423378621, max([F,P])=      0.039640362877
 orbitals (Q,E):
 ---------------
 A :16...26          ( 2.00    -0.5226)  ( 2.00    -0.4408)  ( 2.00    -0.4026)  ( 2.00    -0.4026)
                     ( 2.00    -0.3491)  ( 2.00    -0.3491)  ( 2.00    -0.3446)  ( 2.00    -0.3167)
                     ( 2.00    -0.2720)  ( 2.00    -0.2720)  ( 0.00    -0.0309)

 CYCLE    6
  SDIIS (wt  0.816):  0.0110  0.0594 -0.0184  0.4743  0.4737
 A-DIIS (wt  0.184):  0.0000  0.0000  0.0000  0.1913  0.8087
  DIIS coefficients:  0.0090  0.0485 -0.0150  0.4223  0.5353
 SCF Error: norm([F,P])=      0.108880377758, max([F,P])=      0.019198492093
 orbitals (Q,E):
 ---------------
 A :16...26          ( 2.00    -0.5146)  ( 2.00    -0.4365)  ( 2.00    -0.3948)  ( 2.00    -0.3948)
                     ( 2.00    -0.3424)  ( 2.00    -0.3401)  ( 2.00    -0.3401)  ( 2.00    -0.3072)
                     ( 2.00    -0.2728)  ( 2.00    -0.2728)  ( 0.00    -0.0295)

 CYCLE    7
  SDIIS (wt  0.963):  0.0049  0.0093 -0.0072  0.1819  0.3215  0.4895
 A-DIIS (wt  0.037):  0.0000  0.0000  0.0000  0.0000  0.0237  0.9763
  DIIS coefficients:  0.0047  0.0090 -0.0069  0.1752  0.3105  0.5075
 SCF Error: norm([F,P])=      0.027343179280, max([F,P])=      0.004674045565
 orbitals (Q,E):
 ---------------
 A :16...26          ( 2.00    -0.5150)  ( 2.00    -0.4358)  ( 2.00    -0.3951)  ( 2.00    -0.3951)
                     ( 2.00    -0.3411)  ( 2.00    -0.3407)  ( 2.00    -0.3407)  ( 2.00    -0.3080)
                     ( 2.00    -0.2706)  ( 2.00    -0.2706)  ( 0.00    -0.0295)

 CYCLE    8
  SDIIS (wt  1.000):  0.0013  0.0004 -0.0026  0.0423  0.0788  0.1899  0.6899
  DIIS coefficients:  0.0013  0.0004 -0.0026  0.0423  0.0788  0.1899  0.6899
 SCF Error: norm([F,P])=      0.003026065858, max([F,P])=      0.000595777023
 orbitals (Q,E):
 ---------------
 A :16...26          ( 2.00    -0.5150)  ( 2.00    -0.4360)  ( 2.00    -0.3951)  ( 2.00    -0.3951)
                     ( 2.00    -0.3413)  ( 2.00    -0.3407)  ( 2.00    -0.3407)  ( 2.00    -0.3080)
                     ( 2.00    -0.2708)  ( 2.00    -0.2708)  ( 0.00    -0.0295)

 CYCLE    9
  SDIIS (wt  1.000):  0.0001 -0.0004 -0.0002  0.0005  0.0009  0.0198  0.1894  0.7899
  DIIS coefficients:  0.0001 -0.0004 -0.0002  0.0005  0.0009  0.0198  0.1894  0.7899
 SCF Error: norm([F,P])=      0.000337079874, max([F,P])=      0.000063693863
 orbitals (Q,E):
 ---------------
 A :16...26          ( 2.00    -0.5150)  ( 2.00    -0.4359)  ( 2.00    -0.3951)  ( 2.00    -0.3951)
                     ( 2.00    -0.3413)  ( 2.00    -0.3406)  ( 2.00    -0.3406)  ( 2.00    -0.3079)
                     ( 2.00    -0.2708)  ( 2.00    -0.2708)  ( 0.00    -0.0295)

 CYCLE   10
  SDIIS (wt  1.000): -0.0000 -0.0000  0.0000 -0.0003 -0.0004  0.0022  0.0297  0.1559  0.8129
  DIIS coefficients: -0.0000 -0.0000  0.0000 -0.0003 -0.0004  0.0022  0.0297  0.1559  0.8129
 SCF Error: norm([F,P])=      0.000036433214, max([F,P])=      0.000007383232
 orbitals (Q,E):
 ---------------
 A :16...26          ( 2.00    -0.5150)  ( 2.00    -0.4359)  ( 2.00    -0.3951)  ( 2.00    -0.3951)
                     ( 2.00    -0.3413)  ( 2.00    -0.3406)  ( 2.00    -0.3406)  ( 2.00    -0.3079)
                     ( 2.00    -0.2708)  ( 2.00    -0.2708)  ( 0.00    -0.0295)

 CYCLE   11
  SDIIS (wt  1.000): -0.0000 -0.0000  0.0000 -0.0001 -0.0001  0.0000  0.0021  0.0120  0.1385  0.8475
  DIIS coefficients: -0.0000 -0.0000  0.0000 -0.0001 -0.0001  0.0000  0.0021  0.0120  0.1385  0.8475
 SCF Error: norm([F,P])=      0.000004507064, max([F,P])=      0.000000751585
 orbitals (Q,E):
 ---------------
 A :16...26          ( 2.00    -0.5150)  ( 2.00    -0.4359)  ( 2.00    -0.3951)  ( 2.00    -0.3951)
                     ( 2.00    -0.3413)  ( 2.00    -0.3406)  ( 2.00    -0.3406)  ( 2.00    -0.3079)
                     ( 2.00    -0.2708)  ( 2.00    -0.2708)  ( 0.00    -0.0295)

 SCF CONVERGED
 cosmo_calcen: 0.5 (esolb+esolc) (Hartrees) =   -0.018527

 Solvation energy (screening term,uncorrected) =    -11.625658 kcal/mol

 Solvation energy (dispersion and cavitation terms) =      0.527568 kcal/mol
 Solvation Energy Contributions (Hartrees)
          esola   esolb+esolc
     0.01852666   -0.03705333
 esol last cycle   -0.01852666

 CYCLE   12
1
 ***************************************************************************************************



                                                *******************
                                                *  R E S U L T S  *
                                                *******************
  
 *** Using FIT density in Focky
  SDIIS (wt  1.000): -0.0000  0.0000 -0.0000 -0.0000 -0.0000  0.0003  0.0022  0.0425  0.3786  0.5764
  DIIS coefficients: -0.0000  0.0000 -0.0000 -0.0000 -0.0000  0.0003  0.0022  0.0425  0.3786  0.5764
 SCF Error: norm([F,P])=      0.000001927999, max([F,P])=      0.000000415081

 Orbital Energies, per Irrep and Spin:
 ======================================
                        Occup              E (au)              E (eV)       Diff (eV) with prev. cycle
                        -----      --------------------        ------       --------------------------
 A
              16        2.000     -0.51498321240779E+00       -14.013               3.84E-06
              17        2.000     -0.43592786289480E+00       -11.862               1.14E-06
              18        2.000     -0.39507621081301E+00       -10.751              -2.43E-06
              19        2.000     -0.39507483757087E+00       -10.751               3.79E-06
              20        2.000     -0.34125881626565E+00        -9.286               1.14E-06
              21        2.000     -0.34064845777900E+00        -9.270              -2.24E-06
              22        2.000     -0.34064087095203E+00        -9.269               4.07E-06
              23        2.000     -0.30794114627940E+00        -8.380               9.20E-07
              24        2.000     -0.27079147568911E+00        -7.369               1.59E-07
              25        2.000     -0.27078599410280E+00        -7.368               1.23E-06
              26        0.000     -0.29483660064035E-01        -0.802
              27        0.000      0.11436287073818E-01         0.311
              28        0.000      0.11451904095879E-01         0.312
              29        0.000      0.74570019748828E-01         2.029
              30        0.000      0.99785196230579E-01         2.715
              31        0.000      0.10399479422644E+00         2.830
              32        0.000      0.10400343037636E+00         2.830
              33        0.000      0.12075177820762E+00         3.286
              34        0.000      0.12712362845858E+00         3.459
              35        0.000      0.12713093740305E+00         3.459
  
 HOMO :       25 A                -0.27078599410280E+00
 LUMO :       26 A                -0.29483660064035E-01
  
 cosmo_calcen: 0.5 (esolb+esolc) (Hartrees) =   -0.018527

 Solvation energy (screening term,uncorrected) =    -11.625660 kcal/mol

 Solvation energy (dispersion and cavitation terms) =      0.527568 kcal/mol
 Solvation Energy Contributions (Hartrees)
          esola   esolb+esolc
     0.01852667   -0.03705333
 esol last cycle   -0.01852667


 All Electron Calculation, thus no Orbital Energies of the Core Orbitals are calculated


 Fit test: (difference of exact and fit density, squared integrated, result summed over spins)
         Sum-of-Fragments:                             0.00000000001079
         Orthogonalized Fragments:                     0.00003613880986
         SCF:                                          0.00001916213495



 ==========================
 Electron Density at Nuclei
 ==========================
  
 The electron density is calculated at points on a small sphere around the center of a nucleus.
 The printed electron density is the average electron density on these points.
 The radius of the sphere is the printed approximate finite nuclear radius.

         Atom        Nuclear Radius (Angstrom)             Electron Density (a.u.)
         ----        -------------------------             -----------------------
     1)   P                 0.0000412627                             2178.59740
     2)   O                 0.0000345546                              310.64840
     3)   O                 0.0000345546                              310.64888
     4)   O                 0.0000345546                              310.64912
     5)   O                 0.0000345546                              311.00616
     6)   H                 0.0000181514                                0.43700
     7)   H                 0.0000181514                                0.43720
     8)   H                 0.0000181514                                0.43761



 =======================================
 M U L L I K E N   P O P U L A T I O N S
 =======================================
  
 The survey below gives for each atom:
 a) the total charge (Z minus electrons)
 b) the net spin polarization (nr of electrons spin-A minus spin-B)
 c) for each spin the atomic electron valence density (integrated) per L-value.

 Atom              Charge    Spin density          S         P         D         F
 ----              ------    ------------       ------    ------    ------    ------
 1 P               1.3886                       4.8242    7.7669    0.8595    0.1609
 2 O              -0.5083                       3.7745    4.6844    0.0450    0.0044
 3 O              -0.5081                       3.7744    4.6843    0.0450    0.0044
 4 O              -0.5080                       3.7744    4.6841    0.0450    0.0044
 5 O              -0.6905                       3.8312    4.8105    0.0444    0.0045
 6 H               0.2757                       0.5982    0.1147    0.0114    0.0000
 7 H               0.2755                       0.5984    0.1147    0.0114    0.0000
 8 H               0.2752                       0.5987    0.1147    0.0114    0.0000

 Populations of individual BAS functions
 ----------------------------------------
 1 P           -0.0000  0.0000 -0.0001  0.0038  0.5057  1.4442  1.4784  0.5435  0.0071  0.0071
                0.0072  0.7510  0.7510  0.7520  1.2596  1.2596  1.2595  0.2974  0.8122 -0.2607
                0.3344  0.3344  0.3632  0.2998  0.2998  0.2021 -0.0566 -0.0567 -0.0076  0.0925
                0.1448  0.2001  0.0925  0.2001  0.1294  0.0054  0.0177  0.0081  0.0120  0.0197
                0.0336  0.0073  0.0081  0.0336  0.0154
 2 O            0.0000 -0.0000  0.0003 -0.0012  0.4742  1.6727 -0.1842  1.0186  0.7942  0.0032
                0.0037  0.0036  0.2004  0.2596  0.2510  0.9733  1.0660  1.0363  0.1041  0.4038
                0.3793  0.0312  0.0097  0.0150 -0.0132  0.0078 -0.0055  0.0092  0.0103  0.0098
               -0.0062  0.0008 -0.0019 -0.0095 -0.0038  0.0004 -0.0047
 3 O            0.0000 -0.0000  0.0003 -0.0013  0.4748  1.6722 -0.1842  1.0187  0.7941  0.0036
                0.0033  0.0036  0.2514  0.2086  0.2510  1.0492  0.9902  1.0363  0.3534  0.1544
                0.3793 -0.0023  0.0051  0.0079  0.0250  0.0149 -0.0055 -0.0026 -0.0046 -0.0015
                0.0042  0.0006 -0.0006  0.0067  0.0078 -0.0009 -0.0047
 4 O            0.0000 -0.0000  0.0003 -0.0013  0.4745  1.6721 -0.1838  1.0185  0.7941  0.0036
                0.0034  0.0036  0.2382  0.2219  0.2511  1.0364  1.0028  1.0362  0.3043  0.2035
                0.3793  0.0012  0.0083  0.0114  0.0183  0.0114 -0.0055 -0.0037 -0.0026  0.0007
                0.0042  0.0011  0.0002  0.0060  0.0051 -0.0017 -0.0047
 5 O            0.0000 -0.0000  0.0003 -0.0006  0.4715  1.6575 -0.1654  1.0307  0.8373  0.0031
                0.0031  0.0026  0.2510  0.2510  0.2311  0.9611  0.9611  0.8890  0.4729  0.4729
                0.3114 -0.0058  0.0006  0.0144 -0.0058  0.0144  0.0266 -0.0082 -0.0027 -0.0077
               -0.0027  0.0001  0.0125 -0.0082 -0.0077  0.0125  0.0168
 6 H           -0.0000  0.0000 -0.0011 -0.0009  0.0937  0.0734  0.4331  0.0275  0.0438  0.0434
                0.0052  0.0027  0.0027 -0.0014  0.0014  0.0008
 7 H           -0.0000  0.0000 -0.0011 -0.0011  0.0940  0.0730  0.4336  0.0401  0.0312  0.0434
               -0.0034  0.0032  0.0010  0.0068  0.0031  0.0008
 8 H           -0.0000  0.0000 -0.0010 -0.0015  0.0946  0.0720  0.4346  0.0394  0.0319  0.0434
                0.0042  0.0018  0.0024  0.0006  0.0017  0.0008

 Gross Charges per Atom (Z minus electrons)
 ==========================================
             1.3886   -0.5083   -0.5081   -0.5080   -0.6905    0.2757    0.2755    0.2752
 Net Total:  0.00000000


 Atom-Atom Population Matrix (off-diagonal elements not doubled)
 ===============================================================

     1 :    11.9640
     2 :     0.3699    7.8238
     3 :     0.3699   -0.0308    7.8235
     4 :     0.3699   -0.0308   -0.0308    7.8234
     5 :     0.6843   -0.0387   -0.0387   -0.0387    8.1353
     6 :    -0.0488    0.4115    0.0034   -0.0000   -0.0043    0.3608
     7 :    -0.0489   -0.0000    0.4116    0.0034   -0.0043    0.0009    0.3609
     8 :    -0.0489    0.0034   -0.0000    0.4116   -0.0043    0.0009    0.0009    0.3613



 =================================================
 H I R S H F E L D   C H A R G E   A N A L Y S I S
 =================================================
  
 For each fragment: the (numerical) integral of rho(scf) * rho(fragment)/rho(sum-of-fragments)
 (nuclear charges are included, electrons are counted negative)

 The fragments and their ordering are defined in the early G E O M E T R Y output section.
 If you use single-atom fragments, this usually implies that all atoms of the same
 chemical type are grouped together. This may not be the order in which you listed them
 in the input file!

    1  P                         0.4603
    2  O                        -0.2149
    3  O                        -0.2149
    4  O                        -0.2149
    5  O                        -0.4246
    6  H                         0.2030
    7  H                         0.2030
    8  H                         0.2030

 Sum of these charges (accuracy NumInt/Tails) =          -0.00004210



 =============================
 V O R O N O I   C H A R G E S
 =============================
  
 For each atom: the (numerical) integral of the total electronic charge density in its Voronoi cell,
 i.e. the region of space that is closer to that atom than to any other atom.
 (cf. Wigner-Seitz cells in crystals)

 Within the Voronoi cell the subintegrals over the atomic sphere and the remaining part are evaluated
 separately to give the numbers of electrons (negative charge) in these regions.
 The net total charge in the cell (including the nuclear charge) is also given.

 Values are provided for
    a) the Initial (sum-of-fragments) density
    b) the Orthogonalized-Fragments density
    c) the SCF density
    d) the Voronoi Deformation Density (VDD): the difference SCF-Initial for the complete atomic cell


  Atom                Initial                    OrthFrag                   SCF
             Sphere RestCell NetTotal   Sphere RestCell NetTotal   Sphere RestCell NetTotal      VDD
 -----       ------------------------   ------------------------   ------------------------    -----
    1 P      -9.575   -3.604    1.822   -9.615   -3.846    1.539   -9.551   -3.201    2.248    0.426
    2 O      -2.686   -5.165    0.149   -2.825   -5.072    0.102   -2.705   -5.370   -0.076   -0.225
    3 O      -2.686   -5.159    0.155   -2.825   -5.068    0.107   -2.705   -5.365   -0.070   -0.225
    4 O      -2.686   -5.156    0.158   -2.825   -5.065    0.110   -2.705   -5.363   -0.069   -0.227
    5 O      -2.683   -5.791   -0.474   -2.783   -5.628   -0.411   -2.700   -6.259   -0.959   -0.485
    6 H      -0.086   -1.518   -0.604   -0.089   -1.393   -0.482   -0.106   -1.252   -0.358    0.246
    7 H      -0.086   -1.519   -0.606   -0.089   -1.395   -0.484   -0.107   -1.254   -0.360    0.246
    8 H      -0.087   -1.515   -0.601   -0.090   -1.391   -0.480   -0.107   -1.249   -0.356    0.245
 ---------------------------------------------------------------------------------------------------
 Total NetCharge:              -0.000                     -0.000                     -0.000    0.000
 (accuracy NumInt/Tails)

 Remark: the 'NetTotal' Voronoi charges often do not match the Mulliken and/or Hirshfeld charges very
 well. This is caused by the fact that chemically different atoms are not treated in accordance with
 their relative sizes. (Voronoi cells are defined by boundary planes halfway between the atoms.)
 However, the CHANGES in charge, comparing 'Initial' to 'SCF' for instance, do give a fair indication
 of the flow of charge caused by the relaxation from sum-of-fragments to self-consistency.

 Warning: the absolute accuracy of the VDD charges obtained using the Fuzzy Cells (Becke) integration
 scheme is much poorer than the one obtained with an 'equivalent' Voronoi integration grid. 



 =================================================================
 M U L T I P O L E   D E R I V E D   C H A R G E   A N A L Y S I S
 =================================================================

 This charge analysis uses the atomic multipoles (obtained from the fitted density) up to some level X,
 and reconstructs these multipoles exactly (up to level X) by distributing charges over all atoms.
 This is achieved by using Lagrange multipliers and a weight function to keep the multipoles local.

 Dummy atoms can be included (by setting INCDUM in MDC-block to 1) to obtain a fractional charge.
 This is generally useful and necessary only for small symmetrical molecules, when there are not
 enough degrees of freedom to reconstruct the multipoles.

 Since the atomic multipoles are reconstructed up to level X,
 the molecular multipoles are represented also up to level X.
 The recommended level is to reconstruct up to quadrupole : -> MDC-q charges.

 See: M. Swart, P.Th. van Duijnen, J.G. Snijders, J.Comput.Chem., (2001), p. 79-88.

 ------------------------------------------------------------- 
 Atomic electronic multipole moments from SCF equations (a.u.)
 ------------------------------------------------------------- 

   atom        charge        dip-x     dip-y     dip-z      quad-xx   quad-xy   quad-xz   quad-yy   quad-yz   quad-zz
 --------------------------------------------------------------------------------------------------------------------
    1 P      2.044851    -0.000004 -0.000006  0.165389    -0.065532  0.000040  0.000080 -0.065501 -0.000032  0.131033
    2 O     -0.507767    -0.350329  0.137031 -0.122222     0.645092 -0.112507  0.136682 -0.391007 -0.181794 -0.254085
    3 O     -0.507816     0.056519 -0.371952 -0.122161    -0.278101 -0.242791  0.089072  0.532251  0.209313 -0.254150
    4 O     -0.507800     0.293835  0.234808 -0.122200     0.014171  0.355397 -0.225776  0.239974 -0.027442 -0.254145
    5 O     -0.920083    -0.000070  0.000033 -0.050887    -0.313478 -0.000013 -0.000011 -0.313455  0.000006  0.626933
    6 H      0.132877    -0.128623  0.029699 -0.030851     0.089451 -0.046594  0.064194 -0.056241 -0.032774 -0.033210
    7 H      0.132867     0.038592 -0.126242 -0.030829    -0.080325 -0.018785 -0.003709  0.113577  0.071978 -0.033252
    8 H      0.132871     0.090020  0.096542 -0.030844     0.040707  0.065376 -0.060474 -0.007470 -0.039207 -0.033237

 --------------------------------------- 
 Multipole derived atomic charges (a.u.)
 --------------------------------------- 

 The MDC-m charges are just the Monopole terms in the multipole expansion, while for the MDC-d charges
 also the Dipoles are reconstructed. The usually preferred charges are the MDC-q charges.
 These reconstruct the Monopoles, Dipoles and Quadrupoles (both atomic AND molecular).

        Atom    Level:     MDC-m        MDC-d        MDC-q
 ---------------------------------------------------------
     1     P            2.044851     1.571150     1.875307
     2     O           -0.507767    -0.630200    -0.738148
     3     O           -0.507816    -0.630207    -0.682053
     4     O           -0.507800    -0.630228    -0.661040
     5     O           -0.920083    -0.858389    -0.846362
     6     H            0.132877     0.392654     0.356908
     7     H            0.132867     0.392611     0.356572
     8     H            0.132871     0.392610     0.338816

 ------------------------------------------------ 
 Average absolute deviations in atomic multipoles
 ------------------------------------------------ 

 Stated here are the average differences between the atomic multipoles
 and the reconstructed atomic multipoles (from the distributed charges).
 If these values are not zero, this means there are not enough degrees of freedom,
 to be able to reconstruct the atomic multipoles. (This usually happens only
 for small and/or highly symmetric molecules). If this is the case, one could add
 dummy atoms as extra point charges (and setting INCDUM in MDC-block to 1).

 Level:                                 MDC-d        MDC-q
 ---------------------------------------------------------
 Charge   (a.u.)                       0.0000       0.0000
 Dipole   (Debye)                      0.0000       0.1372
 Quad.    (a.u.)                       0.2209       0.0101

 --------------------------------------- 
 Represented molecular multipole moments
 --------------------------------------- 

 Given here are the Molecular multipole moments from the atomic charges, and from the Fit Density.
 Note that the atomic charges represent the latter, NOT the ones from the Exact density.

            Q (a.u.)             Dipole moment (Debye)                                          Quadrupole moment (a.u.)
                                 x         y         z              xx        xy        xz        yy        yz        zz
------------------------------------------------------------------------------------------------------------------------
MDC-m        -0.0000       -0.0004    0.0001    1.8076          3.8994    0.0002   -0.0002    3.8989    0.0000   -7.7983
MDC-d        -0.0000       -0.0005   -0.0002    0.9317          6.3170   -0.0001   -0.0001    6.3157   -0.0001  -12.6327
MDC-q        -0.0000        0.3154    0.0758    0.0837          5.2350   -0.2746    0.2415    5.7466    0.1305  -10.9816
 
Fit.Dens.    -0.0000       -0.0005   -0.0002    0.9317          6.2413   -0.0000    0.0005    6.2406   -0.0004  -12.4818



 =============
 Dipole Moment  ***  (Debye)  ***
 =============
  
 Vector   :        -0.00050573     -0.00009871      0.93175726
 Magnitude:         0.93175740

 This molecular dipole moment is calculated with analytic integration



 =========================================
 Quadrupole Moment (Buckingham convention)  ***  (a.u.)  ***
 =========================================
  
      quad-xx        quad-xy        quad-xz        quad-yy        quad-yz        quad-zz
      6.24135278     0.00006286     0.00054223     6.24064025    -0.00036925   -12.48199303

 This molecular quadrupole moment is calculated with analytic integration
1



 ===========================
 B O N D I N G   E N E R G Y  ***  (decomposition)  ***
 ===========================
  
*** IMPORTANT NOTE ***

The bond energy is computed as an energy difference between molecule and
[...]
     CALCULATION RESULTS
    =====================

Energy (hartree)            -1.73507083


--------------
Atomic charges
--------------
  Index   Atom    Charge
      1      P    1.3886
      2      O   -0.5083
      3      O   -0.5081
      4      O   -0.5080
      5      O   -0.6905
      6      H    0.2757
      7      H    0.2755
      8      H    0.2752


Dipole moment vector    (Debye):    -0.00050573   -0.00009871    0.93175726
              magnitude (Debye):     0.93175740


AMS application finished. Exiting.
NORMAL TERMINATION
     Total cpu time:      39.92
  Total system time:       0.68
 Total elapsed time:      41.12


 Parallel Execution: Process Information
 ==============================================================================
 Rank   Node Name                              NodeID   MyNodeRank  NodeMaster
    0   ubuntu-kch                                0          0          0
    1   ubuntu-kch                                0          1         -1
    2   ubuntu-kch                                0          2         -1
    3   ubuntu-kch                                0          3         -1
 ==============================================================================


May use up to 7570MB of RAM as shared memory on node 0
 
NMR
    out    iso    tens
    adfgui
    Atoms 1
    u1k best
    calc all
End

 *******************************************************************************
 *                                                                             *
 *  --------------------------------                                           *
 *   Amsterdam Modeling Suite (AMS)              2021.105                      *
 *  --------------------------------                                           *
 *                                               r97261 2021-09-16             *
 *                                                                             *
 *                                                                             *
 *                              =================                              *
 *                              |               |                              *
 *                              |     N M R     |                              *
 *                              |               |                              *
 *                              =================                              *
 *                                                                             *
 *                                                                             *
 *   Online information and documentation:  https://www.scm.com/support/       *
 *   E-mail:  support@scm.com   info@scm.com                                   *
 *                                                                             *
 *   Scientific publications using AMS results must be properly referenced     *
 *   See the User Manuals (or the web site) for recommended citations          *
 *   The terms and conditions of the End User License Agreement apply to       *
 *   the use of AMS, https://www.scm.com/license-terms/                        *
 *                                                                             *
 **********************  x86_64_linux_intel / intelmpi  ************************
 
 Licensed to: Dr. Miroslav Ilias / Matej Bel University, Department Chemistry, Fac. Natural Sciences / Banska Bystrica / SLOVAKIA
 SCM User ID: u17848
  
 NMR 2021.105  RunTime: Nov25-2021 20:03:49  ShM Nodes: 1  Procs: 4

 Temporary files are created in /tmp/kid_0.1068902381 (0xEF53)


 Communication costs MPI_COMM_WORLD:      0.285 usec per message,   0.0033 usec per 8-byte item
 Communication costs for intra-node:      0.257 usec per message,   0.0034 usec per 8-byte item

                    
                      **********************************    
                      ||******************************||    
                      ||                              ||    
                      ||  ##   ##  ###  ###  ######   ||    
                      ||  ###  ##  ########  ##   ##  ||    
                      ||  #### ##  ## ## ##  ######   ||    
                      ||  ## ####  ##    ##  ## ##    ||    
                      ||  ##  ###  ##    ##  ##  ##   ||    
                      ||  ##   ##  ##    ##  ##   ##  ||    
                      ||                              ||    
                      | ****************************** |    
                      **********************************    
                    
                            Written for ADF by              
                    
                    Stephen K. Wolff & Georg Schreckenbach  
                    
                      The research group of Tom Ziegler     
                            University of Calgary           
                               Alberta, Canada              
                    
                      Speedups, NBO analysis, g-tensors,    
                       full ZORA SO, and other goodies by   
                         Jochen Autschbach, SUNY Buffalo
                    
 =============================
 NMR Chemical shift References
 =============================
  
 Lead:
 G. Schreckenbach, T. Ziegler, J. Phys. Chem. 99 (1995) 606
  
 Speed-ups:
 J. Autschbach, E. Zurek, J. Phys. Chem. A 107 (2003), 4967
  
 Hybrids:
 M. Krykunov, T. Ziegler, E. van Lenthe, Int. J. of Quantum Chem. 109, 1676 (2009)
  
 Spin-orbit coupling:
 S.K. Wolff, T. Ziegler, E. van Lenthe, E.J. Baerends, J. Chem. Phys. 110, 7689 (1999)
 J. Autschbach, Mol. Phys. 111 (2013), 2544
  
 Paramagnetic:
 J. Autschbach, S. Patchkovskii, B. Pritchard, J. Chem. Theory Comput. 7, 2175 (2011)
  
 NBO analysis:
 J. Autschbach, J. Chem. Phys. 128 (2008), 164112
 J. Autschbach, S. Zheng, Magn. Reson. Chem. 46 (2008), S48
  
 Suggested:
 G. Schreckenbach, T. Ziegler, Int. J. Quantum Chem. 60, 753 (1996)
 G. Schreckenbach, T. Ziegler, Int. J. Quantum Chem. 61 (1997) 899
 S.K. Wolff, T. Ziegler, J. Chem. Phys. 109 (1998) 895
  
 =======================
 ESR g-tensor References
 =======================
  
 Lead:
 J. Autschbach, B. Pritchard, Theor. Chem. Acc. 129 (2011), 453
  
 Suggested:
 G. Schreckenbach, T. Ziegler, J. Phys. Chem. A 101, 3388 (1997)
 
################################################################################
 
 
################################################################################
 
 
              <><><><><><><><><><><><><><><><><><><><><><><><><>
 
                 GENERAL ADF INFORMATION:
                 ------------------------
 
                 TITLE:    *** adf ***                                  
 JOB ID:      985298632
                 NONLXC:   OPTX PBEc                                    
                 SYMMETRY: NOSYM                                        
                  
                 IOPREL:   0
                 ------>  non-rel. (Re MOs)
 
              <><><><><><><><><><><><><><><><><><><><><><><><><>
 
              ==================================================
 
                 NUCLEAR COORDINATES (ANGSTROMS):
                 --------------------------------
 
                 P  (  1):      -0.0000      0.0000     -0.1558
                 O  (  2):      -1.3806     -0.3500      0.5394
                 O  (  3):       0.9934     -1.0206      0.5394
                 O  (  4):       0.3872      1.3706      0.5394
                 O  (  5):      -0.0000      0.0000     -1.6249
                 H  (  6):      -2.1332      0.0163      0.0541
                 H  (  7):       1.0524     -1.8555      0.0541
                 H  (  8):       1.0807      1.8392      0.0541
 
              ==================================================
 
              <><><><><><><><><><><><><><><><><><><><><><><><><>
 
                 NUMBERS:
                 --------
 
                 number of electrons:     50.00
 
                 ---   AOs   ---          ---   MOs   ---
                 ncor =     0             nocc =    25
                 nval =   241             nvir =   193
                 nbas =   241             nmo  =   218
                 naos =   241             nsot =   218
              ==================================================
                  
                 --------------------------
                     ATOM TYPE: P                        
                 --------------------------
                 === BASIS
                   1S 1500.00     VALENCE
                   1S  300.00     VALENCE
                   1S   75.00     VALENCE
                   1S   30.00     VALENCE
                   1S   18.00     VALENCE
                   1S   13.35     VALENCE
                   2S    5.60     VALENCE
                   2S    4.05     VALENCE
                   2P   18.00     VALENCE
                   2P    7.45     VALENCE
                   2P    4.10     VALENCE
                   3S    2.70     VALENCE
                   3S    1.85     VALENCE
                   3S    1.30     VALENCE
                   3P    2.30     VALENCE
                   3P    1.35     VALENCE
                   3P    0.85     VALENCE
                   3D    1.90     VALENCE
                   4F    2.00     VALENCE
                  
                 --------------------------
                     ATOM TYPE: O                        
                 --------------------------
                 === BASIS
                   1S  800.00     VALENCE
                   1S  160.00     VALENCE
                   1S   40.00     VALENCE
                   1S   16.00     VALENCE
                   1S    9.80     VALENCE
                   1S    6.80     VALENCE
                   2S    7.58     VALENCE
                   2S    2.88     VALENCE
                   2S    1.72     VALENCE
                   2P    9.80     VALENCE
                   2P    4.08     VALENCE
                   2P    2.08     VALENCE
                   2P    1.12     VALENCE
                   3D    2.00     VALENCE
                   4F    3.00     VALENCE
                  
                 --------------------------
                     ATOM TYPE: H                        
                 --------------------------
                 === BASIS
                   1S  100.00     VALENCE
                   1S   25.00     VALENCE
                   1S    7.50     VALENCE
                   1S    3.00     VALENCE
                   1S    0.69     VALENCE
                   1S    0.92     VALENCE
                   1S    1.58     VALENCE
                   2P    1.25     VALENCE
                   3D    2.50     VALENCE
                  
              ==================================================
              <><><><><><><><><><><><><><><><><><><><><><><><><>
 
                 TENSOR INFORMATION:
                 -------------------
 
                              CALC                   U1K
 
                 paramagnetic  = T     mass-velocity = F
                 diamagnetic   = T     Darwin        = F
                 Fermi-cont.   = F     Zeeman        = F
                 ZORA SO       = F     ZORA SO       = F
                 ZORA SCALE    = F     ZORA SO FULL  = F
                 ZORA SO 1C    = F     E IN U1 SCL   = F
 
              <><><><><><><><><><><><><><><><><><><><><><><><><>
 
              <><><><><><><><><><><><><><><><><><><><><><><><><>
 
                 OUTPUT SWITCHES:
                 ----------------
 
                           ISO = T                F1 = F
                          TENS = T                S1 = F
                           EIG = F                U1 = F
                           AOP = F                B1 = F
                           AOD = F                F  = F
                           AOF = F                 S = F
                          INFO = F              REFS = F
 
              <><><><><><><><><><><><><><><><><><><><><><><><><>
 
              --------------------------------------------------
 
                 CALCULATE THE POTENTIAL? F
                  
                 ---> Potential is already on TAPE10.
                      It will not be re-calculated.
 
              --------------------------------------------------



 ===========================
 L I N E A R   S C A L I N G
 ===========================
  

 Overlap cut-off criterion AO matrix elements:     0.1000000000E-07
################################################################################
********************************************************************************
****  N U C L E U S : P(1)
 
 ADF-GUI atom: P(1)
 Internal NMR numbering of atoms: P(1)
 
 
================================================================================
 
 
===  PARAMAGNETIC NMR SHIELDING TENSORS (ppm)
 
    ===     paramagnetic b^(1) tensor       ===     paramagnetic u^(1) tensor
    -----------------------------------     -----------------------------------
           0.000     0.000     0.000            -671.377    -0.015    -0.007
           0.000     0.000     0.000              -0.015  -671.375    -0.023
           0.000     0.000     0.000              -0.007    -0.023  -498.156
    -----------------------------------     -----------------------------------
              isotropic =      0.000                  isotropic =   -613.636

    ===     paramagnetic s^(1) tensor       ===     paramagnetic gauge tensor
    -----------------------------------     -----------------------------------
         -45.779     0.002     0.011              -2.637     0.001    -0.001
           0.002   -45.778     0.016               0.001    -2.637     0.001
           0.011     0.016   -33.409              -0.001     0.001    -1.625
    -----------------------------------     -----------------------------------
              isotropic =    -41.655                  isotropic =     -2.300

                        ***********************************
                        CARTESIAN AXIS REPRESENTATION

                        ==== total paramagnetic tensor
                        -----------------------------------
                            -719.793    -0.012     0.003
                              -0.012  -719.790    -0.006
                               0.003    -0.006  -533.190
                        -----------------------------------
                                  isotropic =   -657.591

                        ***********************************
                        -----------------------------------
                        PRINCIPAL AXIS REPRESENTATION

                        ==== Principal components:

                            -719.804  -719.780  -533.190
 
                        ==== Principal Axis System:

                               0.750     0.661     0.000
                               0.661    -0.750    -0.000
                               0.000    -0.000     1.000
                        -----------------------------------
 
================================================================================
 
 
===  DIAMAGNETIC NMR SHIELDING TENSORS (ppm)
 
    ===       diamagnetic core tensor       ===    diamagnetic valence tensor
    -----------------------------------     -----------------------------------
           0.000     0.000     0.000             964.917     0.001     0.001
           0.000     0.000     0.000               0.001   964.918    -0.000
           0.000     0.000     0.000               0.001    -0.000   962.336
    -----------------------------------     -----------------------------------
              isotropic =      0.000                  isotropic =    964.057

                        ***********************************
                        CARTESIAN AXIS REPRESENTATION

                        ==== total diamagnetic tensor
                        -----------------------------------
                             964.917     0.001     0.001
                               0.001   964.918    -0.000
                               0.001    -0.000   962.336
                        -----------------------------------
                                  isotropic =    964.057

                        ***********************************
                        -----------------------------------
                        PRINCIPAL AXIS REPRESENTATION

                        ==== Principal components:

                             962.336   964.917   964.918
 
                        ==== Principal Axis System:

                              -0.000     0.885     0.465
                               0.000    -0.465     0.885
                               1.000     0.000     0.000
                        -----------------------------------
 
================================================================================
 
 
===  TOTAL NMR SHIELDING TENSOR (ppm)
 
                        ***********************************
                        CARTESIAN AXIS REPRESENTATION

                        ==== total shielding tensor
                        -----------------------------------
                             245.124    -0.011     0.004
                              -0.011   245.127    -0.006
                               0.004    -0.006   429.146
                        -----------------------------------
                                  isotropic =    306.466

                        ***********************************
                        -----------------------------------
                        PRINCIPAL AXIS REPRESENTATION

                        ==== Principal components:

                             245.114   245.137   429.146
 
                        ==== Principal Axis System:

                               0.762     0.648     0.000
                               0.648    -0.762    -0.000
                               0.000    -0.000     1.000
                        -----------------------------------
 *******************************************************************************

                             N M R   E X I T
 NORMAL TERMINATION



 =================
 Timing Statistics
 =================
  
 Total Used :                     CPU=        6.15      System=        0.05     Elapsed=        6.20

 Calls  Section                     ( Mean, Percentage )
 ---------------------------------------------------------------------------------------------------
     3  ><      ................      0.00    0.14             0.00    9.83             0.00    0.21
     1  INIT    ................      0.40    6.50             0.01   20.43             0.41    6.62
     1  RDEIGX  ................      0.06    1.02             0.02   34.25             0.08    1.30
     1  AOF1K   ................      2.21   35.90             0.00    0.70             2.21   35.61
     1  AOPKK   ................      0.47    7.68             0.01   17.34             0.48    7.75
     1  XSIGP   ................      0.00    0.04             0.00    0.10             0.00    0.04
     1  AODKKK  ................      2.99   48.69             0.01   17.32             3.00   48.42
     1  XDV     ................      0.00    0.01             0.00    0.02             0.00    0.01
     1  XSIGD   ................      0.00    0.00             0.00    0.00             0.00    0.00
     1  EXIT PROCEDURE .........      0.00    0.02             0.00    0.01             0.00    0.04


 Currently Open Files (EXIT00)
 ====================

 Unit    Access Format  Status   Type       Ident (file)
 -------------------------------------------------------
   3      SEQ    FORM   TRANSP  NORMAL      LOGFILE
                                          ( /home/milias/work/projects/open-collection/theoretical_chemistry/projects/nmr_diplomovky/reference_compounds/phosphoric_acid/ams/pbe0_tz2p_good/cosmo-chcl3/nonrel/opbe_tz2p-j_good-cosmo-chcl3/phosphoric_acid.nmrshield_opbe_tz2p-j_good_cosmo-chcl3.logfile )
