11
 energy: -33.479054856838 gnorm: 0.000150354748 xtb: 6.7.1 (edcfbbe)
C            0.00003499865985       -0.00003052966041        1.63752820137574
W            0.00004762399354       -0.00006850500602       -0.33314249338827
O            0.02078428730671        3.11921246603391       -0.61850213997833
C            1.99761140002048       -0.01345868265011       -0.46833281479260
C           -1.99749933519770        0.01353950100781       -0.46835119802777
C            0.01353935631043        1.99748218668347       -0.46837736946501
C           -0.01355079474961       -1.99762503815774       -0.46833238512245
O            0.00001188538353        0.00000495024706        2.78113982662618
O           -0.02109164866024       -3.11935073332449       -0.61848379929484
O            3.11934231923117       -0.02070888176875       -0.61846891672053
O           -3.11923100702015        0.02100280601840       -0.61845588855128
