------------------------------------------------------------
          Invoking FHI-aims ...

          When using FHI-aims, please cite the following reference:

            Volker Blum, Ralf Gehrke, Felix Hanke, Paula Havu,
            Ville Havu, Xinguo Ren, Karsten Reuter, and Matthias Scheffler,
            'Ab Initio Molecular Simulations with Numeric Atom-Centered Orbitals',
            Computer Physics Communications 180, 2175-2196 (2009)

          In addition, many other developments in FHI-aims are likely important for
          your particular application. If so, please cite them. A partial list of references
          is written at the end of this file. Thank you for giving credit to the authors
          of these developments.

          For general information about FHI-aims please find us at

            https://fhi-aims.org

          Online tutorials can be found at

            https://fhi-aims-club.gitlab.io/tutorials/tutorials-overview/

          For any questions about FHI-aims, please visit our slack channel at

            https://fhi-aims.slack.com

          and our main development and support site at

            https://aims-git.rz-berlin.mpg.de .

          The latter site, in particular, has a wiki to collect information, as well
          as an issue tracker to log discussions, suggest improvements, and report issues
          or bugs. https://aims-git.rz-berlin.mpg.de is also the main development site
          of the project and all new and updated code versions can be obtained there.
          Please send an email to aims-coordinators@fhi-berlin.mpg.de and we will add
          you to these sites. They are for you and everyone is welcome there.

------------------------------------------------------------



  Date     :  20231208, Time     :  113806.300
  Time zero on CPU 1             :   0.290753000000000E+00  s.
  Internal wall clock time zero  :           471267486.300  s.

  FHI-aims created a unique identifier for this run for later identification
  aims_uuid : 0D633EBB-4C4B-4C86-A0B7-D51117B47037

  Build configuration of the current instance of FHI-aims
  -------------------------------------------------------
  FHI-aims version      : 231208
  Commit number         : 1e5b85bd7
  CMake host system     : Linux-5.14.21-150400.24.92-default
  CMake version         : 3.20.4
  Fortran compiler      : /mpcdf/soft/SLE_15/packages/x86_64/intel_oneapi/2022.2/mpi/2021.6.0/bin/mpiifort (Intel) version 2021.6.0.20220226
  Fortran compiler flags: -march=icelake-server -O3 -align array64byte -ip
  C compiler            : /mpcdf/soft/SLE_15/packages/x86_64/intel_oneapi/2022.2/mpi/2021.6.0/bin/mpiicc (Intel) version 2021.6.0.20220226
  C compiler flags      : -O3 -march=icelake-server -ip
  C++ compiler          : /mpcdf/soft/SLE_15/packages/x86_64/intel_oneapi/2022.2/mpi/2021.6.0/bin/mpiicpc (Intel) version 2021.6.0.20220226
  C++ compiler flags    :
  HIP compiler          :
  HIP compiler flags    :
  HIP GPU arch          :
  ELPA2 kernel          : AVX512
  Using MPI
  Using ScaLAPACK
  Using LibXC
  Using i-PI
  Using RLSY
  Linking against: /mpcdf/soft/SLE_15/packages/x86_64/intel_oneapi/2022.2/mkl/latest/lib/intel64/libmkl_intel_lp64.so
                   /mpcdf/soft/SLE_15/packages/x86_64/intel_oneapi/2022.2/mkl/latest/lib/intel64/libmkl_sequential.so
                   /mpcdf/soft/SLE_15/packages/x86_64/intel_oneapi/2022.2/mkl/latest/lib/intel64/libmkl_core.so
                   /mpcdf/soft/SLE_15/packages/x86_64/intel_oneapi/2022.2/mkl/latest/lib/intel64/libmkl_blacs_intelmpi_lp64.so
                   /mpcdf/soft/SLE_15/packages/x86_64/intel_oneapi/2022.2/mkl/latest/lib/intel64/libmkl_scalapack_lp64.so

  Using        4 parallel tasks.
  Task        0 on host raven03 reporting.
  Task        1 on host raven03 reporting.
  Task        2 on host raven03 reporting.
  Task        3 on host raven03 reporting.

  Memory overcommitment is allowed on your operating system.

  Obtaining array dimensions for all initial allocations:
  
  -----------------------------------------------------------------------
  Parsing control.in (first pass over file, find array dimensions only).
  The contents of control.in will be repeated verbatim below
  unless switched off by setting 'verbatim_writeout .false.' .
  in the first line of control.in .
  -----------------------------------------------------------------------
  
  #########################################################################################
  #
  #  Volker Blum, 2017 : Test run input file control.in for simple H2O
  #
  #########################################################################################
  #
  #  Physical model
  #
    xc                 pbe
    spin               none
    relativistic       none
    charge             0.
  #
  #  Relaxation
  #
    relax_geometry   bfgs 1.e-2
  #
  ################################################################################
  #
  #  FHI-aims code project
  #  VB, Fritz-Haber Institut, 2009
  #
  #  Suggested "light" defaults for H atom (to be pasted into control.in file)
  #  Be sure to double-check any results obtained with these settings for post-processing,
  #  e.g., with the "tight" defaults and larger basis sets.
  #
  ################################################################################
    species        H
  #     global species definitions
      nucleus             1
      mass                1.00794
  #
      l_hartree           4
  #
      cut_pot             3.5  1.5  1.0
      basis_dep_cutoff    1e-4
  #
      radial_base         24 5.0
      radial_multiplier   1
      angular_grids       specified
        division   0.2421   50
        division   0.3822  110
        division   0.4799  194
        division   0.5341  302
  #      division   0.5626  434
  #      division   0.5922  590
  #      division   0.6542  770
  #      division   0.6868 1202
  #      outer_grid  770
        outer_grid  302
  ################################################################################
  #
  #  Definition of "minimal" basis
  #
  ################################################################################
  #     valence basis states
      valence      1  s   1.
  #     ion occupancy
      ion_occ      1  s   0.5
  ################################################################################
  #
  #  Suggested additional basis functions. For production calculations,
  #  uncomment them one after another (the most important basis functions are
  #  listed first).
  #
  #  Basis constructed for dimers: 0.5 A, 0.7 A, 1.0 A, 1.5 A, 2.5 A
  #
  ################################################################################
  #  "First tier" - improvements: -1014.90 meV to -62.69 meV
       hydro 2 s 2.1
       hydro 2 p 3.5
  #  "Second tier" - improvements: -12.89 meV to -1.83 meV
  #     hydro 1 s 0.85
  #     hydro 2 p 3.7
  #     hydro 2 s 1.2
  #     hydro 3 d 7
  #  "Third tier" - improvements: -0.25 meV to -0.12 meV
  #     hydro 4 f 11.2
  #     hydro 3 p 4.8
  #     hydro 4 d 9
  #     hydro 3 s 3.2
  
  ################################################################################
  #
  #  FHI-aims code project
  #  VB, Fritz-Haber Institut, 2009
  #
  #  Suggested "light" defaults for O atom (to be pasted into control.in file)
  #  Be sure to double-check any results obtained with these settings for post-processing,
  #  e.g., with the "tight" defaults and larger basis sets.
  #
  ################################################################################
    species        O
  #     global species definitions
      nucleus             8
      mass                15.9994
  #
      l_hartree           4
  #
      cut_pot             3.5  1.5  1.0
      basis_dep_cutoff    1e-4
  #
      radial_base         36 5.0
      radial_multiplier   1
       angular_grids specified
        division   0.2659   50
        division   0.4451  110
        division   0.6052  194
        division   0.7543  302
  #      division   0.8014  434
  #      division   0.8507  590
  #      division   0.8762  770
  #      division   0.9023  974
  #      division   1.2339 1202
  #      outer_grid 974
        outer_grid 302
  ################################################################################
  #
  #  Definition of "minimal" basis
  #
  ################################################################################
  #     valence basis states
      valence      2  s   2.
      valence      2  p   4.
  #     ion occupancy
      ion_occ      2  s   1.
      ion_occ      2  p   3.
  ################################################################################
  #
  #  Suggested additional basis functions. For production calculations,
  #  uncomment them one after another (the most important basis functions are
  #  listed first).
  #
  #  Constructed for dimers: 1.0 A, 1.208 A, 1.5 A, 2.0 A, 3.0 A
  #
  ################################################################################
  #  "First tier" - improvements: -699.05 meV to -159.38 meV
       hydro 2 p 1.8
       hydro 3 d 7.6
       hydro 3 s 6.4
  #  "Second tier" - improvements: -49.91 meV to -5.39 meV
  #     hydro 4 f 11.6
  #     hydro 3 p 6.2
  #     hydro 3 d 5.6
  #     hydro 5 g 17.6
  #     hydro 1 s 0.75
  #  "Third tier" - improvements: -2.83 meV to -0.50 meV
  #     ionic 2 p auto
  #     hydro 4 f 10.8
  #     hydro 4 d 4.7
  #     hydro 2 s 6.8
  #  "Fourth tier" - improvements: -0.40 meV to -0.12 meV
  #     hydro 3 p 5
  #     hydro 3 s 3.3
  #     hydro 5 g 15.6
  #     hydro 4 f 17.6
  #     hydro 4 d 14
  # Further basis functions - -0.08 meV and below
  #     hydro 3 s 2.1
  #     hydro 4 d 11.6
  #     hydro 3 p 16
  #     hydro 2 s 17.2
  
  -----------------------------------------------------------------------
  Completed first pass over input file control.in .
  -----------------------------------------------------------------------
  
  
  -----------------------------------------------------------------------
  Parsing geometry.in (first pass over file, find array dimensions only).
  The contents of geometry.in will be repeated verbatim below
  unless switched off by setting 'verbatim_writeout .false.' .
  in the first line of geometry.in .
  -----------------------------------------------------------------------
  
  # Geometry for water -- needs to be relaxed as the water molecule
  # described here has a 90degree bond angle and a
  # 1 Angstrom bond distance ...
  atom    0.00000000    0.00000000    0.00000000    O
  atom    0.70700000   -0.70700000    0.00000000    H
  atom   -0.70700000   -0.70700000    0.00000000    H
  
  -----------------------------------------------------------------------
  Completed first pass over input file geometry.in .
  -----------------------------------------------------------------------
  

  Basic array size parameters:
  | Number of species                 :        2
  | Number of atoms                   :        3
  | Max. basis fn. angular momentum   :        2
  | Max. atomic/ionic basis occupied n:        2
  | Max. number of basis fn. types    :        2
  | Max. radial fns per species/type  :        3
  | Max. logarithmic grid size        :     1301
  | Max. radial integration grid size :       36
  | Max. angular integration grid size:      302
  | Max. angular grid division number :        8
  | Radial grid for Hartree potential :     1301
  | Number of spin channels           :        1

------------------------------------------------------------
          Reading file control.in.
------------------------------------------------------------
  XC: Using PBE gradient-corrected functionals.
  Spin treatment: No spin polarisation.
  Non-relativistic treatment of kinetic energy.
  Charge =   0.000000E+00: Neutral system requested explicitly.
  Geometry relaxation: Modified BFGS - TRM (trust radius method) for lattice optimization.
  Convergence accuracy for geometry relaxation: Maximum force <   0.100000E-01 eV/A.
 
  Reading configuration options for species H                   .
  | Found nuclear charge :   1.0000
  | Found atomic mass :    1.00794000000000      amu
  | Found l_max for Hartree potential  :   4
  | Found cutoff potl. onset [A], width [A], scale factor :    3.50000    1.50000    1.00000
  | Threshold for basis-dependent cutoff potential is   0.100000E-03
  | Found data for basic radial integration grid :    24 points, outermost radius =    5.000 A
  | Found multiplier for basic radial grid :   1
  | Found angular grid specification: user-specified.
  | Specified grid contains     5 separate shells.
  | Check grid settings after all constraints further below.
  | Found free-atom valence shell :  1 s   1.000
  | No ionic wave fns used. Skipping ion_occ.
  | Found hydrogenic basis function :  2 s   2.100
  | Found hydrogenic basis function :  2 p   3.500
 | Encountered keyword species, ending the description of species H                   .
  Species H                   : Missing cutoff potential type.
  Defaulting to exp(1/x)/(1-x)^2 type cutoff potential.
  Species H : No 'logarithmic' tag. Using default grid for free atom:
  | Default logarithmic grid data [bohr] : 0.1000E-03 0.1000E+03 0.1012E+01
  Species H : On-site basis accuracy parameter (for Gram-Schmidt orthonormalisation) not specified.
  Using default value basis_acc =  0.1000000E-03.
  Species H                   : Using default innermost maximum threshold i_radial=  2 for radial functions.
  Species H                   : Default cutoff onset for free atom density etc. : 0.35000000E+01 AA.
  Species H                   : Basic radial grid will be enhanced according to radial_multiplier =   1, to contain    24 grid points.
 
  Reading configuration options for species O                   .
  | Found nuclear charge :   8.0000
  | Found atomic mass :    15.9994000000000      amu
  | Found l_max for Hartree potential  :   4
  | Found cutoff potl. onset [A], width [A], scale factor :    3.50000    1.50000    1.00000
  | Threshold for basis-dependent cutoff potential is   0.100000E-03
  | Found data for basic radial integration grid :    36 points, outermost radius =    5.000 A
  | Found multiplier for basic radial grid :   1
  | Found angular grid specification: user-specified.
  | Specified grid contains     5 separate shells.
  | Check grid settings after all constraints further below.
  | Found free-atom valence shell :  2 s   2.000
  | Found free-atom valence shell :  2 p   4.000
  | No ionic wave fns used. Skipping ion_occ.
  | No ionic wave fns used. Skipping ion_occ.
  | Found hydrogenic basis function :  2 p   1.800
  | Found hydrogenic basis function :  3 d   7.600
  | Found hydrogenic basis function :  3 s   6.400
  Species O                   : Missing cutoff potential type.
  Defaulting to exp(1/x)/(1-x)^2 type cutoff potential.
  Species O : No 'logarithmic' tag. Using default grid for free atom:
  | Default logarithmic grid data [bohr] : 0.1000E-03 0.1000E+03 0.1012E+01
  Species O : On-site basis accuracy parameter (for Gram-Schmidt orthonormalisation) not specified.
  Using default value basis_acc =  0.1000000E-03.
  Species O                   : Using default innermost maximum threshold i_radial=  2 for radial functions.
  Species O                   : Default cutoff onset for free atom density etc. : 0.35000000E+01 AA.
  Species O                   : Basic radial grid will be enhanced according to radial_multiplier =   1, to contain    36 grid points.
 
  Finished reading input file 'control.in'.
 
------------------------------------------------------------


------------------------------------------------------------
          Reading geometry description geometry.in.
------------------------------------------------------------
  | The smallest distance between any two atoms is         0.99984899 AA.
  | The first atom of this pair is atom number                      1 .
  | The second atom of this pair is atom number                     2 .
  Input structure read successfully.
  The structure contains        3 atoms,  and a total of         10.000 electrons.

  Input geometry:
  | No unit cell requested.
  | Atomic structure:
  |       Atom                x [A]            y [A]            z [A]
  |    1: Species O             0.00000000        0.00000000        0.00000000
  |    2: Species H             0.70700000       -0.70700000        0.00000000
  |    3: Species H            -0.70700000       -0.70700000        0.00000000

  Slab Identifier: This is not a periodic structure.
 
  Finished reading input file 'geometry.in'.
 

 
  Consistency checks for stacksize environment parameter are next.
 
  | Maximum stacksize for task 0: unlimited
  | Maximum stacksize for task 1: unlimited
  | Maximum stacksize for task 2: unlimited
  | Maximum stacksize for task 3: unlimited
  | Current stacksize for task 0: unlimited
  | Current stacksize for task 1: unlimited
  | Current stacksize for task 2: unlimited
  | Current stacksize for task 3: unlimited
 
  Consistency checks for the contents of control.in are next.
 
  MPI_IN_PLACE appears to work with this MPI implementation.
  | Keeping use_mpi_in_place .true. (see manual).
  Target number of points in a grid batch is not set. Defaulting to  100
  Method for grid partitioning is not set. Defaulting to parallel hash+maxmin partitioning.
  Batch size limit is not set. Defaulting to    200
  By default, will store active basis functions for each batch.
  If in need of memory, prune_basis_once .false. can be used to disable this option.
  communication_type for Hartree potential was not specified.
  Defaulting to calc_hartree .
  Defaulting to Pulay charge density mixer.
  Pulay mixer: Number of relevant iterations not set.
  Defaulting to    8 iterations.
  Pulay mixer: Number of initial linear mixing iterations not set.
  Defaulting to    0 iterations.
  Work space size for distributed Hartree potential not set.
  Defaulting to   0.200000E+03 MB.
  Mixing parameter for charge density mixing has not been set.
  Using default: charge_mix_param =     0.0500.
  The mixing parameter will be adjusted in iteration number     2 of the first full s.c.f. cycle only.
  Algorithm-dependent basis array size parameters:
  | n_max_pulay                         :        8
  Maximum number of self-consistency iterations not provided.
  Presetting  1000 iterations.
  Presetting      1001 iterations before the initial mixing cycle
  is restarted anyway using the sc_init_iter criterion / keyword.
  Presetting a factor      1.000 between actual scf density residual
  and density convergence criterion sc_accuracy_rho below which sc_init_iter
  takes no effect.
 * No s.c.f. convergence criteria (sc_accuracy_*) were provided in control.in.
 * The run will proceed with a reasonable default guess, but please check whether.
 * the s.c.f. cycles seem to take too much or too little time.
  No maximum number of relaxation steps, defaulting to     1000
  Default initial Hessian is Lindh matrix (thres = 15.00) plus  0.200000E+01 eV/A^2 times unity.
  No maximum energy tolerance for TRM/BFGS moves, defaulting to   0.150000E-02
  Maximum energy tolerance by which TRM/BFGS trajectory may increase over multiple steps:   0.300000E-02
  No harmonic length scale. Defaulting to   0.250000E-01 A.
  No trust radius initializer. Defaulting to   0.200000E+00 A.
  Forces evaluation will include force correction term due to incomplete self-consistency (default).
 * Notice: The s.c.f. convergence criterion sc_accuracy_rho was not provided.
 * We used to stop in this case, and ask the user to provide reasonable
 * scf convergence criteria. However, this led some users to employ criteria
 * that led to extremely long run times, e.g., for simple relaxation.
 * We now preset a default value for sc_accuracy_rho if it is not set.
 * You may still wish to check if this setting is too tight or too loose for your needs.
 * Based on n_atoms and forces and force-correction status, FHI-aims chose sc_accuracy_rho =  0.800000E-05 .
  Force calculation: scf convergence accuracy of forces not set.
  Defaulting to 'sc_accuracy_forces not_checked'.
  Handling of forces: Unphysical translation and rotation will be removed from forces.
  No accuracy limit for integral partition fn. given. Defaulting to  0.1000E-14.
  No threshold value for u(r) in integrations given. Defaulting to  0.1000E-05.
  No occupation type (smearing scheme) given. Defaulting to Gaussian broadening, width =  0.1000E-01 eV.
  The width will be adjusted in iteration number     2 of the first full s.c.f. cycle only.
  S.C.F. convergence parameters will be adjusted in iteration number     2 of the first full s.c.f. cycle only.
  No accuracy for occupation numbers given. Defaulting to  0.1000E-12.
  No threshold value for occupation numbers given. Defaulting to  0.0000E+00.
  No accuracy for fermi level given. Defaulting to  0.1000E-19.
  Maximum # of iterations to find E_F not set. Defaulting to  200.
  Preferred method for the eigenvalue solver ('KS_method') not specified in 'control.in'.
  Calling BLACS routine to test compilation state
  Since ScaLAPACK support is enabled, defaulting to ELPA (via ELSI).
  Will not use alltoall communication since running on < 1024 CPUs.
  Threshold for basis singularities not set.
  Default threshold for basis singularities:  0.1000E-04
  partition_type (choice of integration weights) for integrals was not specified.
  | Using a version of the partition function of Stratmann and coworkers ('stratmann_sparse').
  | At each grid point, the set of atoms used to build the partition table is smoothly restricted to
  | only those atoms whose free-atom density would be non-zero at that grid point.
  Partitioning for Hartree potential was not defined. Using partition_type for integrals.
  | Adjusted default value of keyword multip_moments_threshold to:       0.10000000E-11
  | This value may affect high angular momentum components of the Hartree potential in periodic systems.
  No q(lm)/r^(l+1) cutoff set for long-range Hartree potential.
  | Using default value of  0.100000E-09 .
  | Verify using the multipole_threshold keyword.
  Defaulting to new monopole extrapolation.
  Density update method: automatic selection selected.
  Geometry relaxation: A file "geometry.in.next_step" is written out by default after each step.
  | This file contains the geometry of the current relaxation step as well as
  | the current Hessian matrix needed to restart the relaxation algorithm.
  | If you do not want part or all of this information, use the keywords
  | "write_restart_geometry" or "hessian_to_restart_geometry" to switch the output off.
  Charge integration errors on the 3D integration grid will be compensated
  by explicit normalization and distribution of residual charges.
  Use the "compensate_multipole_errors" flag to change this behaviour.
  Set 'collect_eigenvectors' to be '.true.' for use_density_matrix .false.
 
  Consistency checks for the contents of geometry.in are next.
 
  Number of empty states per atom not set in control.in - providing a guess from actual geometry.
  | Total number of empty states used during s.c.f. cycle:        6
  If you use a very high smearing, use empty_states (per atom!) in control.in to increase this value.

  Structure-dependent array size parameters: 
  | Maximum number of distinct radial functions  :        9
  | Maximum number of basis functions            :       24
  | Number of Kohn-Sham states (occupied + empty):       11
------------------------------------------------------------
  After read_input_data [GB]:    434.16

  Performing system and environment tests:
  | Environment variable OMP_NUM_THREADS correctly set to 1.
  | Checking for ScaLAPACK...
  | Testing pdtran()...
  | All pdtran() tests passed.
  After prepare_system [GB]:    434.13

------------------------------------------------------------
          Preparing all fixed parts of the calculation.
------------------------------------------------------------
  Determining machine precision:
    2.225073858507201E-308
  Setting up grids for atomic and cluster calculations.

  Creating wave function, potential, and density for free atoms.
  Runtime choices for atomic solver:
  | atomic solver xc        : PBE
  | compute density gradient: 1
  | compute kinetic density : F

  Species: H

  List of occupied orbitals and eigenvalues:
    n    l              occ      energy [Ha]    energy [eV]
    1    0           1.0000        -0.237589        -6.4651


  Species: O

  List of occupied orbitals and eigenvalues:
    n    l              occ      energy [Ha]    energy [eV]
    1    0           2.0000       -18.898188      -514.2459
    2    0           2.0000        -0.878505       -23.9053
    2    1           4.0000        -0.331779        -9.0282


  Adding cutoff potential to free-atom effective potential.
  Creating fixed part of basis set: Ionic, confined, hydrogenic.
 
  H                    hydrogenic:
 
  List of hydrogenic basis orbitals: 
    n    l      effective z      eigenvalue [eV]  inner max. [A]     outer max. [A]     outer radius [A]   
    2    0         2.100000       -14.9728           0.193243           1.317208           4.583499
    2    1         3.500000       -41.6669           0.602369           0.602369           3.723403
 
 
  O                    hydrogenic:
 
  List of hydrogenic basis orbitals: 
    n    l      effective z      eigenvalue [eV]  inner max. [A]     outer max. [A]     outer radius [A]   
    2    1         1.800000       -10.9749           1.164242           1.164242           4.578029
    3    2         7.600000       -87.3180           0.624125           0.624125           3.251020
    3    0         6.400000       -61.9207           0.061167           1.081902           4.001998
 
  Creating atomic-like basis functions for current effective potential.

  Species H                   :

  List of atomic basis orbitals and eigenvalues:
    n    l      energy [Ha]    energy [eV]    outer radius [A]
    1    0        -0.237589        -6.4651       4.527807


  Species O                   :

  List of atomic basis orbitals and eigenvalues:
    n    l      energy [Ha]    energy [eV]    outer radius [A]
    1    0       -18.898188      -514.2459       1.415765
    2    0        -0.878505       -23.9053       4.413171
    2    1        -0.331779        -9.0282       4.522403

  Assembling full basis from fixed parts.
  | Species H :   atomic orbital   1 s accepted.
  | Species H :    hydro orbital   2 s accepted.
  | Species H :    hydro orbital   2 p accepted.
  | Species O :   atomic orbital   1 s accepted.
  | Species O :    hydro orbital   3 s accepted.
  | Species O :   atomic orbital   2 s accepted.
  | Species O :   atomic orbital   2 p accepted.
  | Species O :    hydro orbital   2 p accepted.
  | Species O :    hydro orbital   3 d accepted.
 
  Basis size parameters after reduction:
  | Total number of radial functions:        9
  | Total number of basis functions :       24
 
  Per-task memory consumption for arrays in subroutine allocate_ext:
  |           2.249332MB.
  Testing on-site integration grid accuracy.
  |  Species  Function  <phi|h_atom|phi> (log., in eV)  <phi|h_atom|phi> (rad., in eV)
           1        1                 -6.4663192853                 -6.4651273558
           1        2                 13.7111246313                 13.7170609718
           1        3                 25.2673269279                 25.2674696378
           2        4               -514.2458688638               -514.2457643834
           2        5                 15.1795651126                 15.1795290741
           2        6                -21.5359799773                -21.5360846186
           2        7                 -9.0283069236                 -9.0284644067
           2        8                  8.3027758564                  8.2834874195
           2        9                 45.8339351983                 45.8338762259

  Preparing densities etc. for the partition functions (integrals / Hartree potential).

  Preparations completed.
  max(cpu_time)          :      0.067 s.
  Wall clock time (cpu1) :      0.067 s.
------------------------------------------------------------
  After prepare_scf [GB]:    434.12

  Initializing index lists of integration centers etc. from given atomic structure:
  | Number of centers in hartree potential         :         3
  | Number of centers in hartree multipole         :         3
  | Number of centers in electron density summation:         3
  | Number of centers in basis integrals           :         3
  | Number of centers in integrals                 :         3
  | Number of centers in hamiltonian               :         3
  After initialize_bc_dependent_lists [GB]:    434.12

------------------------------------------------------------
          Begin self-consistency loop: Initialization.

          Date     :  20231208, Time     :  113806.407
------------------------------------------------------------

  Initializing relaxation algorithms.
  Finished initialization of distributed Hessian storage.
  | Global dimension:         9
  | BLACS block size:         3
  | Number of workers:        3

  Available memory per node after initialize_hartree_non_periodic_ewald [GB]:    434.12
  Available memory per node after initialize_recip_hartree_potential [GB]:    434.12
  * Using 4 tasks for Scalapack Eigenvalue solver.
  Detailed listing of tasks and assigned k-points:
  (for non-periodic systems, the "k-point" denotes an internal label only)
   Task     0 k-point     1 on raven03
   Task     1 k-point     1 on raven03
   Task     2 k-point     1 on raven03
   Task     3 k-point     1 on raven03
  Tasks:     4 split into      2 X      2 BLACS grid
  Calculating block size based on n_basis =           24  max_nprow =            2  max_npcol =            2
  ScaLAPACK block size set to:            8
  Allocating        0.002 MB for ovlp
  Allocating        0.002 MB for ham
  Allocating        0.002 MB for eigenvec
  Required Scalapack workspace - INTEGER:            1  REAL:             1
  Available memory per node after initialize_scalapack [GB]:    434.12
  Available memory per node after aims_elsi_init_scf [GB]:    434.12
  Available memory per node after initialize_fixed_grids [GB]:    434.12
  Partitioning the integration grid into batches with parallel hashing+maxmin method.
  | Number of batches:      248
  | Maximal batch size:     101
  | Minimal batch size:      49
  | Average batch size:      64.210
  | Standard deviation of batch sizes:       9.281

  Integration load balanced across     4 MPI tasks.
  Work distribution over tasks is as follows:
  Task     0 has       3947 integration points.
  Task     1 has       3986 integration points.
  Task     2 has       3984 integration points.
  Task     3 has       4007 integration points.
  Available memory per node after partition_grid [GB]:    434.12
  Initializing partition tables, free-atom densities, potentials, etc. across the integration grid (initialize_grid_storage).
  | initialize_grid_storage: Actual outermost partition radius vs. multipole_radius_free
  | (-- VB: in principle, multipole_radius_free should be larger, hence this output)
  | Species        1: Confinement radius =              4.999999999999999 AA, multipole_radius_free =              5.054417573612229 AA.
  | Species        1: outer_partition_radius set to              5.054417573612229 AA .
  | Species        2: Confinement radius =              4.999999999999999 AA, multipole_radius_free =              5.048384829883283 AA.
  | Species        2: outer_partition_radius set to              5.048384829883283 AA .
  | The sparse table of interatomic distances needs          0.09 kbyte instead of         0.07 kbyte of memory.
  | Using the partition_type stratmann_smoother will reduce your memory usage.
  | Net number of integration points:    15924
  | of which are non-zero points    :    14516
  Available memory per node after initialize_grid_storage_p1 [GB]:    434.11
  Renormalizing the initial density to the exact electron count on the 3D integration grid.
  | Initial density: Formal number of electrons (from input files) :      10.0000000000
  | Integrated number of electrons on 3D grid     :       9.9999492619
  | Charge integration error                      :      -0.0000507381
  | Normalization factor for density and gradient :       1.0000050738
  Renormalizing the free-atom superposition density to the exact electron count on the 3D integration grid.
  | Formal number of electrons (from input files) :      10.0000000000
  | Integrated number of electrons on 3D grid     :       9.9999492619
  | Charge integration error                      :      -0.0000507381
  | Normalization factor for density and gradient :       1.0000050738
  Obtaining max. number of non-zero basis functions in each batch (get_n_compute_maxes).
  | Maximal number of non-zero basis functions:       24 in task     0
  | Maximal number of non-zero basis functions:       24 in task     1
  | Maximal number of non-zero basis functions:       24 in task     2
  | Maximal number of non-zero basis functions:       24 in task     3
  Selecting the method for density update.
  Loop over occupied states selected for charge density update.
  Available memory per node after get_n_compute_maxes_p1 [GB]:    434.11
  Allocating        0.002 MB for KS_eigenvector
  Available memory per node after allocate_matrices [GB]:    434.11
  Available memory per node after init_comm_sparse_local_matrix_scalapack [GB]:    434.11
  Integrating Hamiltonian matrix: batch-based integration.
  Time summed over all CPUs for integration: real work        0.029 s, elapsed        0.030 s
  Available memory per node after integrate hamiltonian matrix [GB]:    434.10
  Integrating overlap matrix.
  Time summed over all CPUs for integration: real work        0.011 s, elapsed        0.011 s
  Available memory per node after integrate ovlp matrix [GB]:    434.09
  Available memory per node after ASI_callbacks invoke [GB]:    434.09
  Deallocating overlap matrix.
  Available memory per node after save_overlap_scalapack [GB]:    434.09

  Updating Kohn-Sham eigenvalues and eigenvectors using ELSI and the ELPA eigensolver.
  Overlap matrix is not singular
  | Lowest and highest eigenvalues :  0.1998E-01,  0.2747E+01
  Finished singularity check of overlap matrix
  | Time :     0.001 s
  Starting ELPA eigensolver
  Finished Cholesky decomposition
  | Time :     0.000 s
  Finished transformation to standard eigenproblem
  | Time :     0.001 s
  Finished solving standard eigenproblem
  | Time :     0.000 s
  Finished back-transformation of eigenvectors
  | Time :     0.000 s

  Obtaining occupation numbers and electronic chemical potential using ELSI.
  | Note that, for insulating systems, the printed 'chemical potential' value is not uniquely defined.
  | It can be anywhere in the energy gap, as long as it correctly separates occupied and unoccupied states.
  | In systems with a gap, the physically relevant chemical potential is the VBM or HOMO.

  | Chemical potential (Fermi level):    -9.80869355 eV
  Available memory per node after advance_KS_solution [GB]:    434.09
  Writing Kohn-Sham eigenvalues.

  State    Occupation    Eigenvalue [Ha]    Eigenvalue [eV]
      1       2.00000         -18.992379         -516.80894
      2       2.00000          -1.082022          -29.44330
      3       2.00000          -0.580291          -15.79051
      4       2.00000          -0.520660          -14.16787
      5       2.00000          -0.427443          -11.63133
      6       0.00000          -0.057132           -1.55465
      7       0.00000           0.021894            0.59576
      8       0.00000           0.212375            5.77901
      9       0.00000           0.252333            6.86633
     10       0.00000           0.296602            8.07094
     11       0.00000           0.555861           15.12574

  Highest occupied state (VBM) at    -11.63132776 eV
  | Occupation number:      2.00000000

  Lowest unoccupied state (CBM) at    -1.55464978 eV
  | Occupation number:      0.00000000

  Overall HOMO-LUMO gap:     10.07667798 eV.
  Calculating total energy contributions from superposition of free atom densities.

  Total energy components:
  | Sum of eigenvalues            :         -43.20558980 Ha       -1175.68391668 eV
  | XC energy correction          :          -9.00388265 Ha        -245.00811291 eV
  | XC potential correction       :          11.57665952 Ha         315.01693336 eV
  | Free-atom electrostatic energy:         -35.81296084 Ha        -974.52024760 eV
  | Hartree energy correction     :           0.00000000 Ha           0.00000000 eV
  | Entropy correction            :           0.00000000 Ha           0.00000000 eV
  | ---------------------------
  | Total energy                  :         -76.44577378 Ha       -2080.19534383 eV
  | Total energy, T -> 0          :         -76.44577378 Ha       -2080.19534383 eV  <-- do not rely on this value for anything but (periodic) metals
  | Electronic free energy        :         -76.44577378 Ha       -2080.19534383 eV

  Derived energy quantities:
  | Kinetic energy                :          75.52664410 Ha        2055.18455248 eV
  | Electrostatic energy          :        -142.96853522 Ha       -3890.37178340 eV
  | Energy correction for multipole
  | error in Hartree potential    :           0.00000000 Ha           0.00000000 eV
  | Sum of eigenvalues per atom                           :        -391.89463889 eV
  | Total energy (T->0) per atom                          :        -693.39844794 eV  <-- do not rely on this value for anything but (periodic) metals
  | Electronic free energy per atom                       :        -693.39844794 eV
  Initialize hartree_potential_storage
  Max. number of atoms included in rho_multipole:            3

  End scf initialization - timings             :  max(cpu_time)    wall_clock(cpu1)
  | Time for scf. initialization                :        0.028 s           0.028 s
  | Boundary condition initialization           :        0.002 s           0.002 s
  | Relaxation initialization                   :        0.000 s           0.000 s
  | Integration                                 :        0.011 s           0.011 s
  | Solution of K.-S. eqns.                     :        0.003 s           0.003 s
  | Grid partitioning                           :        0.006 s           0.006 s
  | Preloading free-atom quantities on grid     :        0.005 s           0.004 s
  | Free-atom superposition energy              :        0.002 s           0.003 s
  | Total energy evaluation                     :        0.000 s           0.000 s

  Partial memory accounting:
  | Current value for overall tracked memory usage:
  |   Minimum:        0.007 MB (on task 3)
  |   Maximum:        0.012 MB (on task 0)
  |   Average:        0.009 MB
  | Peak value for overall tracked memory usage:
  |   Minimum:        0.123 MB (on task 3 after allocating grid_partition)
  |   Maximum:        0.157 MB (on task 0 after allocating grid_partition)
  |   Average:        0.142 MB
  | Largest tracked array allocation so far:
  |   Minimum:        0.080 MB (all_coords on task 3)
  |   Maximum:        0.100 MB (all_coords on task 0)
  |   Average:        0.091 MB
  Note:  These values currently only include a subset of arrays which are explicitly tracked.
  The "true" memory usage will be greater.
------------------------------------------------------------
  Available memory after initialize_scf [GB]:    434.09
  Available memory after allocating mixing [GB]:    434.09
  Evaluating new KS density.
  Integration grid: deviation in total charge (<rho> - N_e) =   1.065814E-14

  Time for density update prior                :  max(cpu_time)    wall_clock(cpu1)
  | self-consistency iterative process          :        0.005 s           0.005 s
  Available memory before start of SCF loop [GB]:    434.09

------------------------------------------------------------
          Begin self-consistency iteration #    1

  Date     :  20231208, Time     :  113806.440
------------------------------------------------------------
  Pulay mixing of updated and previous charge densities.
  Available memory per node after mixing [GB]:    434.09
  Renormalizing the density to the exact electron count on the 3D integration grid.
  | Formal number of electrons (from input files) :      10.0000000000
  | Integrated number of electrons on 3D grid     :      10.0000000000
  | Charge integration error                      :      -0.0000000000
  | Normalization factor for density and gradient :       1.0000000000

  Evaluating partitioned Hartree potential by multipole expansion.
  | Original multipole sum: apparent total charge =  -0.657375E-14
  | Sum of charges compensated after spline to logarithmic grids =   0.118053E-04
  | Analytical far-field extrapolation by fixed multipoles:
  | Hartree multipole sum: apparent total charge =  -0.667829E-14
  Summing up the Hartree potential.
  Time summed over all CPUs for potential: real work        0.003 s, elapsed        0.003 s
  | RMS charge density error from multipole expansion :   0.334194E-03

  Integrating Hamiltonian matrix: batch-based integration.
  Time summed over all CPUs for integration: real work        0.027 s, elapsed        0.028 s

  Updating Kohn-Sham eigenvalues and eigenvectors using ELSI and the ELPA eigensolver.
  Starting ELPA eigensolver
  Finished transformation to standard eigenproblem
  | Time :     0.000 s
  Finished solving standard eigenproblem
  | Time :     0.000 s
  Finished back-transformation of eigenvectors
  | Time :     0.000 s

  Obtaining occupation numbers and electronic chemical potential using ELSI.
  | Note that, for insulating systems, the printed 'chemical potential' value is not uniquely defined.
  | It can be anywhere in the energy gap, as long as it correctly separates occupied and unoccupied states.
  | In systems with a gap, the physically relevant chemical potential is the VBM or HOMO.

  | Chemical potential (Fermi level):    -9.62296946 eV
  Writing Kohn-Sham eigenvalues.

  State    Occupation    Eigenvalue [Ha]    Eigenvalue [eV]
      1       2.00000         -18.954965         -515.79084
      2       2.00000          -1.063860          -28.94912
      3       2.00000          -0.564437          -15.35911
      4       2.00000          -0.502256          -13.66709
      5       2.00000          -0.407792          -11.09658
      6       0.00000          -0.052663           -1.43305
      7       0.00000           0.027994            0.76175
      8       0.00000           0.220648            6.00415
      9       0.00000           0.261051            7.10357
     10       0.00000           0.302594            8.23399
     11       0.00000           0.561182           15.27053

  Highest occupied state (VBM) at    -11.09657832 eV
  | Occupation number:      2.00000000

  Lowest unoccupied state (CBM) at    -1.43304534 eV
  | Occupation number:      0.00000000

  Overall HOMO-LUMO gap:      9.66353298 eV.

  Total energy components:
  | Sum of eigenvalues            :         -42.98662008 Ha       -1169.72544748 eV
  | XC energy correction          :          -9.02825177 Ha        -245.67123017 eV
  | XC potential correction       :          11.60860268 Ha         315.88615112 eV
  | Free-atom electrostatic energy:         -35.81296084 Ha        -974.52024760 eV
  | Hartree energy correction     :          -0.21026251 Ha          -5.72153405 eV
  | Entropy correction            :           0.00000000 Ha           0.00000000 eV
  | ---------------------------
  | Total energy                  :         -76.42949252 Ha       -2079.75230818 eV
  | Total energy, T -> 0          :         -76.42949252 Ha       -2079.75230818 eV  <-- do not rely on this value for anything but (periodic) metals
  | Electronic free energy        :         -76.42949252 Ha       -2079.75230818 eV

  Derived energy quantities:
  | Kinetic energy                :          75.67346419 Ha        2059.17973064 eV
  | Electrostatic energy          :        -143.07470495 Ha       -3893.26080865 eV
  | Energy correction for multipole
  | error in Hartree potential    :           0.00006829 Ha           0.00185831 eV
  | Sum of eigenvalues per atom                           :        -389.90848249 eV
  | Total energy (T->0) per atom                          :        -693.25076939 eV  <-- do not rely on this value for anything but (periodic) metals
  | Electronic free energy per atom                       :        -693.25076939 eV
  Evaluating new KS density.
  Integration grid: deviation in total charge (<rho> - N_e) =  -5.329071E-15

  Self-consistency convergence accuracy:
  | Change of charge density      :  0.2935E+00
  | Change of unmixed KS density  :  0.9099E+01
  | Change of sum of eigenvalues  :  0.5958E+01 eV
  | Change of total energy        :  0.4430E+00 eV


------------------------------------------------------------
  End self-consistency iteration #     1       :  max(cpu_time)    wall_clock(cpu1)
  | Time for this iteration                     :        0.017 s           0.017 s
  | Charge density update                       :        0.005 s           0.005 s
  | Density mixing                              :        0.001 s           0.001 s
  | Hartree multipole update                    :        0.001 s           0.001 s
  | Hartree multipole summation                 :        0.003 s           0.003 s
  | Integration                                 :        0.007 s           0.007 s
  | Solution of K.-S. eqns.                     :        0.001 s           0.000 s
  | Total energy evaluation                     :        0.000 s           0.000 s

  Partial memory accounting:
  | Current value for overall tracked memory usage:
  |   Minimum:        2.210 MB (on task 0)
  |   Maximum:        2.239 MB (on task 3)
  |   Average:        2.227 MB
  | Peak value for overall tracked memory usage:
  |   Minimum:        2.284 MB (on task 0 after allocating gradient_basis_wave)
  |   Maximum:        2.313 MB (on task 3 after allocating gradient_basis_wave)
  |   Average:        2.301 MB
  | Largest tracked array allocation so far:
  |   Minimum:        0.723 MB (previous_rho_gradient_diff on task 0)
  |   Maximum:        0.734 MB (previous_rho_gradient_diff on task 3)
  |   Average:        0.729 MB
  Note:  These values currently only include a subset of arrays which are explicitly tracked.
  The "true" memory usage will be greater.
------------------------------------------------------------

------------------------------------------------------------
          Begin self-consistency iteration #    2

  Date     :  20231208, Time     :  113806.457
------------------------------------------------------------
  Pulay mixing of updated and previous charge densities.
  Available memory per node after mixing [GB]:    434.08
  Renormalizing the density to the exact electron count on the 3D integration grid.
  | Formal number of electrons (from input files) :      10.0000000000
  | Integrated number of electrons on 3D grid     :      10.0000000000
  | Charge integration error                      :       0.0000000000
  | Normalization factor for density and gradient :       1.0000000000

  Evaluating partitioned Hartree potential by multipole expansion.
  | Original multipole sum: apparent total charge =   0.229989E-14
  | Sum of charges compensated after spline to logarithmic grids =   0.802127E-04
  | Analytical far-field extrapolation by fixed multipoles:
  | Hartree multipole sum: apparent total charge =   0.222610E-14
  Summing up the Hartree potential.
  Time summed over all CPUs for potential: real work        0.003 s, elapsed        0.003 s
  | RMS charge density error from multipole expansion :   0.227007E-02

  Integrating Hamiltonian matrix: batch-based integration.
  Time summed over all CPUs for integration: real work        0.027 s, elapsed        0.028 s

  Updating Kohn-Sham eigenvalues and eigenvectors using ELSI and the ELPA eigensolver.
  Starting ELPA eigensolver
  Finished transformation to standard eigenproblem
  | Time :     0.000 s
  Finished solving standard eigenproblem
  | Time :     0.000 s
  Finished back-transformation of eigenvectors
  | Time :     0.000 s

  Obtaining occupation numbers and electronic chemical potential using ELSI.
  | Note that, for insulating systems, the printed 'chemical potential' value is not uniquely defined.
  | It can be anywhere in the energy gap, as long as it correctly separates occupied and unoccupied states.
  | In systems with a gap, the physically relevant chemical potential is the VBM or HOMO.

  | Chemical potential (Fermi level):    -4.44904444 eV
  Highest occupied state (VBM) at     -8.23032772 eV
  | Occupation number:      2.00000000

  Lowest unoccupied state (CBM) at    -0.72134907 eV
  | Occupation number:      0.00000000

  Overall HOMO-LUMO gap:      7.50897865 eV.

  Checking to see if s.c.f. parameters should be adjusted.
  The system likely has a gap. Increased the default Pulay mixing parameter (charge_mix_param). Value:   0.200000 .
  Kept the default occupation width. Value:   0.010000 eV.

  Total energy components:
  | Sum of eigenvalues            :         -41.81042414 Ha       -1137.71952737 eV
  | XC energy correction          :          -9.16537788 Ha        -249.40262152 eV
  | XC potential correction       :          11.78833081 Ha         320.77680239 eV
  | Free-atom electrostatic energy:         -35.81296084 Ha        -974.52024760 eV
  | Hartree energy correction     :          -1.38204483 Ha         -37.60735327 eV
  | Entropy correction            :           0.00000000 Ha           0.00000000 eV
  | ---------------------------
  | Total energy                  :         -76.38247688 Ha       -2078.47294737 eV
  | Total energy, T -> 0          :         -76.38247688 Ha       -2078.47294737 eV  <-- do not rely on this value for anything but (periodic) metals
  | Electronic free energy        :         -76.38247688 Ha       -2078.47294737 eV

  Derived energy quantities:
  | Kinetic energy                :          76.39395754 Ha        2078.78535202 eV
  | Electrostatic energy          :        -143.61105654 Ha       -3907.85567787 eV
  | Energy correction for multipole
  | error in Hartree potential    :           0.00025521 Ha           0.00694460 eV
  | Sum of eigenvalues per atom                           :        -379.23984246 eV
  | Total energy (T->0) per atom                          :        -692.82431579 eV  <-- do not rely on this value for anything but (periodic) metals
  | Electronic free energy per atom                       :        -692.82431579 eV
  Evaluating new KS density.
  Integration grid: deviation in total charge (<rho> - N_e) =  -1.776357E-15

  Self-consistency convergence accuracy:
  | Change of charge density      :  0.2565E+00
  | Change of unmixed KS density  :  0.2937E-01
  | Change of sum of eigenvalues  :  0.3201E+02 eV
  | Change of total energy        :  0.1279E+01 eV


------------------------------------------------------------
  End self-consistency iteration #     2       :  max(cpu_time)    wall_clock(cpu1)
  | Time for this iteration                     :        0.016 s           0.017 s
  | Charge density update                       :        0.005 s           0.005 s
  | Density mixing                              :        0.001 s           0.001 s
  | Hartree multipole update                    :        0.001 s           0.001 s
  | Hartree multipole summation                 :        0.003 s           0.002 s
  | Integration                                 :        0.007 s           0.008 s
  | Solution of K.-S. eqns.                     :        0.000 s           0.000 s
  | Total energy evaluation                     :        0.000 s           0.000 s

  Partial memory accounting:
  | Current value for overall tracked memory usage:
  |   Minimum:        2.211 MB (on task 0)
  |   Maximum:        2.240 MB (on task 3)
  |   Average:        2.227 MB
  | Peak value for overall tracked memory usage:
  |   Minimum:        2.285 MB (on task 0 after allocating gradient_basis_wave)
  |   Maximum:        2.314 MB (on task 3 after allocating gradient_basis_wave)
  |   Average:        2.301 MB
  | Largest tracked array allocation so far:
  |   Minimum:        0.723 MB (previous_rho_gradient_diff on task 0)
  |   Maximum:        0.734 MB (previous_rho_gradient_diff on task 3)
  |   Average:        0.729 MB
  Note:  These values currently only include a subset of arrays which are explicitly tracked.
  The "true" memory usage will be greater.
------------------------------------------------------------

------------------------------------------------------------
          Begin self-consistency iteration #    3

  Date     :  20231208, Time     :  113806.474
------------------------------------------------------------
  Pulay mixing of updated and previous charge densities.
  Available memory per node after mixing [GB]:    434.08
  Renormalizing the density to the exact electron count on the 3D integration grid.
  | Formal number of electrons (from input files) :      10.0000000000
  | Integrated number of electrons on 3D grid     :      10.0000000000
  | Charge integration error                      :       0.0000000000
  | Normalization factor for density and gradient :       1.0000000000

  Evaluating partitioned Hartree potential by multipole expansion.
  | Original multipole sum: apparent total charge =   0.113150E-14
  | Sum of charges compensated after spline to logarithmic grids =   0.642059E-04
  | Analytical far-field extrapolation by fixed multipoles:
  | Hartree multipole sum: apparent total charge =   0.110690E-14
  Summing up the Hartree potential.
  Time summed over all CPUs for potential: real work        0.002 s, elapsed        0.003 s
  | RMS charge density error from multipole expansion :   0.375416E-02

  Integrating Hamiltonian matrix: batch-based integration.
  Time summed over all CPUs for integration: real work        0.027 s, elapsed        0.028 s

  Updating Kohn-Sham eigenvalues and eigenvectors using ELSI and the ELPA eigensolver.
  Starting ELPA eigensolver
  Finished transformation to standard eigenproblem
  | Time :     0.000 s
  Finished solving standard eigenproblem
  | Time :     0.000 s
  Finished back-transformation of eigenvectors
  | Time :     0.000 s

  Obtaining occupation numbers and electronic chemical potential using ELSI.
  | Note that, for insulating systems, the printed 'chemical potential' value is not uniquely defined.
  | It can be anywhere in the energy gap, as long as it correctly separates occupied and unoccupied states.
  | In systems with a gap, the physically relevant chemical potential is the VBM or HOMO.

  | Chemical potential (Fermi level):    -8.83678216 eV
  Highest occupied state (VBM) at     -9.29228345 eV
  | Occupation number:      2.00000000

  Lowest unoccupied state (CBM) at    -0.87951258 eV
  | Occupation number:      0.00000000

  Overall HOMO-LUMO gap:      8.41277087 eV.

  Total energy components:
  | Sum of eigenvalues            :         -42.35749240 Ha       -1152.60601202 eV
  | XC energy correction          :          -9.10095271 Ha        -247.64952340 eV
  | XC potential correction       :          11.70337572 Ha         318.46505656 eV
  | Free-atom electrostatic energy:         -35.81296084 Ha        -974.52024760 eV
  | Hartree energy correction     :          -0.82696942 Ha         -22.50298290 eV
  | Entropy correction            :           0.00000000 Ha           0.00000000 eV
  | ---------------------------
  | Total energy                  :         -76.39499965 Ha       -2078.81370936 eV
  | Total energy, T -> 0          :         -76.39499965 Ha       -2078.81370936 eV  <-- do not rely on this value for anything but (periodic) metals
  | Electronic free energy        :         -76.39499965 Ha       -2078.81370936 eV

  Derived energy quantities:
  | Kinetic energy                :          75.75795726 Ha        2061.47890403 eV
  | Electrostatic energy          :        -143.05200421 Ha       -3892.64308998 eV
  | Energy correction for multipole
  | error in Hartree potential    :          -0.00180810 Ha          -0.04920081 eV
  | Sum of eigenvalues per atom                           :        -384.20200401 eV
  | Total energy (T->0) per atom                          :        -692.93790312 eV  <-- do not rely on this value for anything but (periodic) metals
  | Electronic free energy per atom                       :        -692.93790312 eV
  Evaluating new KS density.
  Integration grid: deviation in total charge (<rho> - N_e) =   0.000000E+00

  Self-consistency convergence accuracy:
  | Change of charge density      :  0.1197E+00
  | Change of unmixed KS density  :  0.1698E+00
  | Change of sum of eigenvalues  : -0.1489E+02 eV
  | Change of total energy        : -0.3408E+00 eV


------------------------------------------------------------
  End self-consistency iteration #     3       :  max(cpu_time)    wall_clock(cpu1)
  | Time for this iteration                     :        0.016 s           0.016 s
  | Charge density update                       :        0.005 s           0.004 s
  | Density mixing                              :        0.001 s           0.001 s
  | Hartree multipole update                    :        0.001 s           0.000 s
  | Hartree multipole summation                 :        0.003 s           0.003 s
  | Integration                                 :        0.007 s           0.007 s
  | Solution of K.-S. eqns.                     :        0.000 s           0.000 s
  | Total energy evaluation                     :        0.000 s           0.001 s

  Partial memory accounting:
  | Current value for overall tracked memory usage:
  |   Minimum:        2.211 MB (on task 0)
  |   Maximum:        2.240 MB (on task 3)
  |   Average:        2.227 MB
  | Peak value for overall tracked memory usage:
  |   Minimum:        2.285 MB (on task 0 after allocating gradient_basis_wave)
  |   Maximum:        2.314 MB (on task 3 after allocating gradient_basis_wave)
  |   Average:        2.301 MB
  | Largest tracked array allocation so far:
  |   Minimum:        0.723 MB (previous_rho_gradient_diff on task 0)
  |   Maximum:        0.734 MB (previous_rho_gradient_diff on task 3)
  |   Average:        0.729 MB
  Note:  These values currently only include a subset of arrays which are explicitly tracked.
  The "true" memory usage will be greater.
------------------------------------------------------------

------------------------------------------------------------
          Begin self-consistency iteration #    4

  Date     :  20231208, Time     :  113806.490
------------------------------------------------------------
  Pulay mixing of updated and previous charge densities.
  Available memory per node after mixing [GB]:    434.08
  Renormalizing the density to the exact electron count on the 3D integration grid.
  | Formal number of electrons (from input files) :      10.0000000000
  | Integrated number of electrons on 3D grid     :      10.0000000000
  | Charge integration error                      :       0.0000000000
  | Normalization factor for density and gradient :       1.0000000000

  Evaluating partitioned Hartree potential by multipole expansion.
  | Original multipole sum: apparent total charge =  -0.334529E-14
  | Sum of charges compensated after spline to logarithmic grids =   0.118505E-03
  | Analytical far-field extrapolation by fixed multipoles:
  | Hartree multipole sum: apparent total charge =  -0.423081E-14
  Summing up the Hartree potential.
  Time summed over all CPUs for potential: real work        0.002 s, elapsed        0.003 s
  | RMS charge density error from multipole expansion :   0.597094E-02

  Integrating Hamiltonian matrix: batch-based integration.
  Time summed over all CPUs for integration: real work        0.027 s, elapsed        0.028 s

  Updating Kohn-Sham eigenvalues and eigenvectors using ELSI and the ELPA eigensolver.
  Starting ELPA eigensolver
  Finished transformation to standard eigenproblem
  | Time :     0.001 s
  Finished solving standard eigenproblem
  | Time :     0.000 s
  Finished back-transformation of eigenvectors
  | Time :     0.000 s

  Obtaining occupation numbers and electronic chemical potential using ELSI.
  | Note that, for insulating systems, the printed 'chemical potential' value is not uniquely defined.
  | It can be anywhere in the energy gap, as long as it correctly separates occupied and unoccupied states.
  | In systems with a gap, the physically relevant chemical potential is the VBM or HOMO.

  | Chemical potential (Fermi level):    -3.91820169 eV
  Highest occupied state (VBM) at     -7.50406199 eV
  | Occupation number:      2.00000000

  Lowest unoccupied state (CBM) at    -0.33476222 eV
  | Occupation number:      0.00000000

  Overall HOMO-LUMO gap:      7.16929977 eV.

  Total energy components:
  | Sum of eigenvalues            :         -41.67466981 Ha       -1134.02546417 eV
  | XC energy correction          :          -9.18741094 Ha        -250.00217171 eV
  | XC potential correction       :          11.81652778 Ha         321.54408079 eV
  | Free-atom electrostatic energy:         -35.81296084 Ha        -974.52024760 eV
  | Hartree energy correction     :          -1.51979614 Ha         -41.35575700 eV
  | Entropy correction            :           0.00000000 Ha           0.00000000 eV
  | ---------------------------
  | Total energy                  :         -76.37830996 Ha       -2078.35955969 eV
  | Total energy, T -> 0          :         -76.37830996 Ha       -2078.35955969 eV  <-- do not rely on this value for anything but (periodic) metals
  | Electronic free energy        :         -76.37830996 Ha       -2078.35955969 eV

  Derived energy quantities:
  | Kinetic energy                :          75.99802330 Ha        2068.01143312 eV
  | Electrostatic energy          :        -143.18892231 Ha       -3896.36882110 eV
  | Energy correction for multipole
  | error in Hartree potential    :          -0.00279553 Ha          -0.07607032 eV
  | Sum of eigenvalues per atom                           :        -378.00848806 eV
  | Total energy (T->0) per atom                          :        -692.78651990 eV  <-- do not rely on this value for anything but (periodic) metals
  | Electronic free energy per atom                       :        -692.78651990 eV
  Evaluating new KS density.
  Integration grid: deviation in total charge (<rho> - N_e) =  -3.552714E-15

  Self-consistency convergence accuracy:
  | Change of charge density      :  0.1511E+00
  | Change of unmixed KS density  :  0.1002E+00
  | Change of sum of eigenvalues  :  0.1858E+02 eV
  | Change of total energy        :  0.4541E+00 eV


------------------------------------------------------------
  End self-consistency iteration #     4       :  max(cpu_time)    wall_clock(cpu1)
  | Time for this iteration                     :        0.016 s           0.017 s
  | Charge density update                       :        0.005 s           0.005 s
  | Density mixing                              :        0.001 s           0.001 s
  | Hartree multipole update                    :        0.001 s           0.001 s
  | Hartree multipole summation                 :        0.003 s           0.002 s
  | Integration                                 :        0.007 s           0.007 s
  | Solution of K.-S. eqns.                     :        0.000 s           0.001 s
  | Total energy evaluation                     :        0.000 s           0.000 s

  Partial memory accounting:
  | Current value for overall tracked memory usage:
  |   Minimum:        2.211 MB (on task 0)
  |   Maximum:        2.240 MB (on task 3)
  |   Average:        2.227 MB
  | Peak value for overall tracked memory usage:
  |   Minimum:        2.285 MB (on task 0 after allocating gradient_basis_wave)
  |   Maximum:        2.314 MB (on task 3 after allocating gradient_basis_wave)
  |   Average:        2.301 MB
  | Largest tracked array allocation so far:
  |   Minimum:        0.723 MB (previous_rho_gradient_diff on task 0)
  |   Maximum:        0.734 MB (previous_rho_gradient_diff on task 3)
  |   Average:        0.729 MB
  Note:  These values currently only include a subset of arrays which are explicitly tracked.
  The "true" memory usage will be greater.
------------------------------------------------------------

------------------------------------------------------------
          Begin self-consistency iteration #    5

  Date     :  20231208, Time     :  113806.507
------------------------------------------------------------
  Pulay mixing of updated and previous charge densities.
  Available memory per node after mixing [GB]:    434.08
  Renormalizing the density to the exact electron count on the 3D integration grid.
  | Formal number of electrons (from input files) :      10.0000000000
  | Integrated number of electrons on 3D grid     :      10.0000000000
  | Charge integration error                      :       0.0000000000
  | Normalization factor for density and gradient :       1.0000000000

  Evaluating partitioned Hartree potential by multipole expansion.
  | Original multipole sum: apparent total charge =   0.752691E-14
  | Sum of charges compensated after spline to logarithmic grids =   0.116418E-03
  | Analytical far-field extrapolation by fixed multipoles:
  | Hartree multipole sum: apparent total charge =   0.705955E-14
  Summing up the Hartree potential.
  Time summed over all CPUs for potential: real work        0.003 s, elapsed        0.003 s
  | RMS charge density error from multipole expansion :   0.596312E-02

  Integrating Hamiltonian matrix: batch-based integration.
  Time summed over all CPUs for integration: real work        0.027 s, elapsed        0.028 s

  Updating Kohn-Sham eigenvalues and eigenvectors using ELSI and the ELPA eigensolver.
  Starting ELPA eigensolver
  Finished transformation to standard eigenproblem
  | Time :     0.000 s
  Finished solving standard eigenproblem
  | Time :     0.000 s
  Finished back-transformation of eigenvectors
  | Time :     0.000 s

  Obtaining occupation numbers and electronic chemical potential using ELSI.
  | Note that, for insulating systems, the printed 'chemical potential' value is not uniquely defined.
  | It can be anywhere in the energy gap, as long as it correctly separates occupied and unoccupied states.
  | In systems with a gap, the physically relevant chemical potential is the VBM or HOMO.

  | Chemical potential (Fermi level):    -3.92769920 eV
  Highest occupied state (VBM) at     -7.52309059 eV
  | Occupation number:      2.00000000

  Lowest unoccupied state (CBM) at    -0.34153662 eV
  | Occupation number:      0.00000000

  Overall HOMO-LUMO gap:      7.18155398 eV.

  Total energy components:
  | Sum of eigenvalues            :         -41.68215715 Ha       -1134.22920493 eV
  | XC energy correction          :          -9.18648255 Ha        -249.97690894 eV
  | XC potential correction       :          11.81530081 Ha         321.51069321 eV
  | Free-atom electrostatic energy:         -35.81296084 Ha        -974.52024760 eV
  | Hartree energy correction     :          -1.51206954 Ha         -41.14550556 eV
  | Entropy correction            :           0.00000000 Ha           0.00000000 eV
  | ---------------------------
  | Total energy                  :         -76.37836928 Ha       -2078.36117383 eV
  | Total energy, T -> 0          :         -76.37836928 Ha       -2078.36117383 eV  <-- do not rely on this value for anything but (periodic) metals
  | Electronic free energy        :         -76.37836928 Ha       -2078.36117383 eV

  Derived energy quantities:
  | Kinetic energy                :          75.99599902 Ha        2067.95634977 eV
  | Electrostatic energy          :        -143.18788574 Ha       -3896.34061466 eV
  | Energy correction for multipole
  | error in Hartree potential    :          -0.00276957 Ha          -0.07536373 eV
  | Sum of eigenvalues per atom                           :        -378.07640164 eV
  | Total energy (T->0) per atom                          :        -692.78705794 eV  <-- do not rely on this value for anything but (periodic) metals
  | Electronic free energy per atom                       :        -692.78705794 eV
  Evaluating new KS density.
  Integration grid: deviation in total charge (<rho> - N_e) =  -7.105427E-15

  Self-consistency convergence accuracy:
  | Change of charge density      :  0.2670E-01
  | Change of unmixed KS density  :  0.9118E-01
  | Change of sum of eigenvalues  : -0.2037E+00 eV
  | Change of total energy        : -0.1614E-02 eV


------------------------------------------------------------
  End self-consistency iteration #     5       :  max(cpu_time)    wall_clock(cpu1)
  | Time for this iteration                     :        0.016 s           0.016 s
  | Charge density update                       :        0.005 s           0.005 s
  | Density mixing                              :        0.001 s           0.000 s
  | Hartree multipole update                    :        0.001 s           0.001 s
  | Hartree multipole summation                 :        0.003 s           0.003 s
  | Integration                                 :        0.007 s           0.007 s
  | Solution of K.-S. eqns.                     :        0.000 s           0.000 s
  | Total energy evaluation                     :        0.000 s           0.000 s

  Partial memory accounting:
  | Current value for overall tracked memory usage:
  |   Minimum:        2.211 MB (on task 0)
  |   Maximum:        2.240 MB (on task 3)
  |   Average:        2.227 MB
  | Peak value for overall tracked memory usage:
  |   Minimum:        2.285 MB (on task 0 after allocating gradient_basis_wave)
  |   Maximum:        2.314 MB (on task 3 after allocating gradient_basis_wave)
  |   Average:        2.301 MB
  | Largest tracked array allocation so far:
  |   Minimum:        0.723 MB (previous_rho_gradient_diff on task 0)
  |   Maximum:        0.734 MB (previous_rho_gradient_diff on task 3)
  |   Average:        0.729 MB
  Note:  These values currently only include a subset of arrays which are explicitly tracked.
  The "true" memory usage will be greater.
------------------------------------------------------------

------------------------------------------------------------
          Begin self-consistency iteration #    6

  Date     :  20231208, Time     :  113806.523
------------------------------------------------------------
  Pulay mixing of updated and previous charge densities.
  Available memory per node after mixing [GB]:    434.08
  Renormalizing the density to the exact electron count on the 3D integration grid.
  | Formal number of electrons (from input files) :      10.0000000000
  | Integrated number of electrons on 3D grid     :      10.0000000000
  | Charge integration error                      :      -0.0000000000
  | Normalization factor for density and gradient :       1.0000000000

  Evaluating partitioned Hartree potential by multipole expansion.
  | Original multipole sum: apparent total charge =   0.132336E-13
  | Sum of charges compensated after spline to logarithmic grids =   0.151920E-03
  | Analytical far-field extrapolation by fixed multipoles:
  | Hartree multipole sum: apparent total charge =   0.138485E-13
  Summing up the Hartree potential.
  Time summed over all CPUs for potential: real work        0.002 s, elapsed        0.003 s
  | RMS charge density error from multipole expansion :   0.630233E-02

  Integrating Hamiltonian matrix: batch-based integration.
  Time summed over all CPUs for integration: real work        0.027 s, elapsed        0.028 s

  Updating Kohn-Sham eigenvalues and eigenvectors using ELSI and the ELPA eigensolver.
  Starting ELPA eigensolver
  Finished transformation to standard eigenproblem
  | Time :     0.000 s
  Finished solving standard eigenproblem
  | Time :     0.001 s
  Finished back-transformation of eigenvectors
  | Time :     0.000 s

  Obtaining occupation numbers and electronic chemical potential using ELSI.
  | Note that, for insulating systems, the printed 'chemical potential' value is not uniquely defined.
  | It can be anywhere in the energy gap, as long as it correctly separates occupied and unoccupied states.
  | In systems with a gap, the physically relevant chemical potential is the VBM or HOMO.

  | Chemical potential (Fermi level):    -3.72868115 eV
  Highest occupied state (VBM) at     -7.13621282 eV
  | Occupation number:      2.00000000

  Lowest unoccupied state (CBM) at    -0.19889009 eV
  | Occupation number:      0.00000000

  Overall HOMO-LUMO gap:      6.93732273 eV.

  Total energy components:
  | Sum of eigenvalues            :         -41.53454899 Ha       -1130.21258250 eV
  | XC energy correction          :          -9.20545505 Ha        -250.49317684 eV
  | XC potential correction       :          11.84031085 Ha         322.19125115 eV
  | Free-atom electrostatic energy:         -35.81296084 Ha        -974.52024760 eV
  | Hartree energy correction     :          -1.66506027 Ha         -45.30859533 eV
  | Entropy correction            :           0.00000000 Ha           0.00000000 eV
  | ---------------------------
  | Total energy                  :         -76.37771430 Ha       -2078.34335111 eV
  | Total energy, T -> 0          :         -76.37771430 Ha       -2078.34335111 eV  <-- do not rely on this value for anything but (periodic) metals
  | Electronic free energy        :         -76.37771430 Ha       -2078.34335111 eV

  Derived energy quantities:
  | Kinetic energy                :          76.02530471 Ha        2068.75379812 eV
  | Electrostatic energy          :        -143.19756396 Ha       -3896.60397239 eV
  | Energy correction for multipole
  | error in Hartree potential    :          -0.00329406 Ha          -0.08963589 eV
  | Sum of eigenvalues per atom                           :        -376.73752750 eV
  | Total energy (T->0) per atom                          :        -692.78111704 eV  <-- do not rely on this value for anything but (periodic) metals
  | Electronic free energy per atom                       :        -692.78111704 eV
  Evaluating new KS density.
  Integration grid: deviation in total charge (<rho> - N_e) =   3.552714E-15

  Self-consistency convergence accuracy:
  | Change of charge density      :  0.2798E-01
  | Change of unmixed KS density  :  0.1017E-02
  | Change of sum of eigenvalues  :  0.4017E+01 eV
  | Change of total energy        :  0.1782E-01 eV


------------------------------------------------------------
  End self-consistency iteration #     6       :  max(cpu_time)    wall_clock(cpu1)
  | Time for this iteration                     :        0.016 s           0.016 s
  | Charge density update                       :        0.005 s           0.004 s
  | Density mixing                              :        0.001 s           0.001 s
  | Hartree multipole update                    :        0.001 s           0.001 s
  | Hartree multipole summation                 :        0.003 s           0.002 s
  | Integration                                 :        0.007 s           0.007 s
  | Solution of K.-S. eqns.                     :        0.000 s           0.001 s
  | Total energy evaluation                     :        0.000 s           0.000 s

  Partial memory accounting:
  | Current value for overall tracked memory usage:
  |   Minimum:        2.211 MB (on task 0)
  |   Maximum:        2.240 MB (on task 3)
  |   Average:        2.227 MB
  | Peak value for overall tracked memory usage:
  |   Minimum:        2.285 MB (on task 0 after allocating gradient_basis_wave)
  |   Maximum:        2.314 MB (on task 3 after allocating gradient_basis_wave)
  |   Average:        2.301 MB
  | Largest tracked array allocation so far:
  |   Minimum:        0.723 MB (previous_rho_gradient_diff on task 0)
  |   Maximum:        0.734 MB (previous_rho_gradient_diff on task 3)
  |   Average:        0.729 MB
  Note:  These values currently only include a subset of arrays which are explicitly tracked.
  The "true" memory usage will be greater.
------------------------------------------------------------

------------------------------------------------------------
          Begin self-consistency iteration #    7

  Date     :  20231208, Time     :  113806.540
------------------------------------------------------------
  Pulay mixing of updated and previous charge densities.
  Available memory per node after mixing [GB]:    434.08
  Renormalizing the density to the exact electron count on the 3D integration grid.
  | Formal number of electrons (from input files) :      10.0000000000
  | Integrated number of electrons on 3D grid     :      10.0000000000
  | Charge integration error                      :       0.0000000000
  | Normalization factor for density and gradient :       1.0000000000

  Evaluating partitioned Hartree potential by multipole expansion.
  | Original multipole sum: apparent total charge =   0.169970E-13
  | Sum of charges compensated after spline to logarithmic grids =   0.155527E-03
  | Analytical far-field extrapolation by fixed multipoles:
  | Hartree multipole sum: apparent total charge =   0.163329E-13
  Summing up the Hartree potential.
  Time summed over all CPUs for potential: real work        0.002 s, elapsed        0.003 s
  | RMS charge density error from multipole expansion :   0.632114E-02

  Integrating Hamiltonian matrix: batch-based integration.
  Time summed over all CPUs for integration: real work        0.027 s, elapsed        0.028 s

  Updating Kohn-Sham eigenvalues and eigenvectors using ELSI and the ELPA eigensolver.
  Starting ELPA eigensolver
  Finished transformation to standard eigenproblem
  | Time :     0.000 s
  Finished solving standard eigenproblem
  | Time :     0.000 s
  Finished back-transformation of eigenvectors
  | Time :     0.000 s

  Obtaining occupation numbers and electronic chemical potential using ELSI.
  | Note that, for insulating systems, the printed 'chemical potential' value is not uniquely defined.
  | It can be anywhere in the energy gap, as long as it correctly separates occupied and unoccupied states.
  | In systems with a gap, the physically relevant chemical potential is the VBM or HOMO.

  | Chemical potential (Fermi level):    -3.71445710 eV
  Highest occupied state (VBM) at     -7.10357602 eV
  | Occupation number:      2.00000000

  Lowest unoccupied state (CBM) at    -0.18845652 eV
  | Occupation number:      0.00000000

  Overall HOMO-LUMO gap:      6.91511950 eV.

  Total energy components:
  | Sum of eigenvalues            :         -41.52203087 Ha       -1129.87194727 eV
  | XC energy correction          :          -9.20701023 Ha        -250.53549539 eV
  | XC potential correction       :          11.84236916 Ha         322.24726071 eV
  | Free-atom electrostatic energy:         -35.81296084 Ha        -974.52024760 eV
  | Hartree energy correction     :          -1.67807389 Ha         -45.66271375 eV
  | Entropy correction            :           0.00000000 Ha           0.00000000 eV
  | ---------------------------
  | Total energy                  :         -76.37770667 Ha       -2078.34314330 eV
  | Total energy, T -> 0          :         -76.37770667 Ha       -2078.34314330 eV  <-- do not rely on this value for anything but (periodic) metals
  | Electronic free energy        :         -76.37770667 Ha       -2078.34314330 eV

  Derived energy quantities:
[...]
  | Integration                                 :        0.007 s           0.007 s
  | Solution of K.-S. eqns.                     :        0.000 s           0.000 s
  | Total energy evaluation                     :        0.000 s           0.000 s

  Partial memory accounting:
  | Current value for overall tracked memory usage:
  |   Minimum:        2.209 MB (on task 3)
  |   Maximum:        2.250 MB (on task 0)
  |   Average:        2.228 MB
  | Peak value for overall tracked memory usage:
  |   Minimum:        2.433 MB (on task 2 after allocating hessian_basis_wave)
  |   Maximum:        2.450 MB (on task 0 after allocating hessian_basis_wave)
  |   Average:        2.440 MB
  | Largest tracked array allocation so far:
  |   Minimum:        0.729 MB (previous_rho_gradient_diff on task 2)
  |   Maximum:        0.735 MB (previous_rho_gradient_diff on task 0)
  |   Average:        0.732 MB
  Note:  These values currently only include a subset of arrays which are explicitly tracked.
  The "true" memory usage will be greater.
------------------------------------------------------------

------------------------------------------------------------
          Begin self-consistency iteration #    6

  Date     :  20231208, Time     :  113807.293
------------------------------------------------------------
  Pulay mixing of updated and previous charge densities.
  Available memory per node after mixing [GB]:    434.07
  Renormalizing the density to the exact electron count on the 3D integration grid.
  | Formal number of electrons (from input files) :      10.0000000000
  | Integrated number of electrons on 3D grid     :      10.0000000000
  | Charge integration error                      :      -0.0000000000
  | Normalization factor for density and gradient :       1.0000000000

  Evaluating partitioned Hartree potential by multipole expansion.
  | Original multipole sum: apparent total charge =  -0.351748E-14
  | Sum of charges compensated after spline to logarithmic grids =   0.163115E-03
  | Analytical far-field extrapolation by fixed multipoles:
  | Hartree multipole sum: apparent total charge =  -0.381265E-14
  Summing up the Hartree potential.
  Time summed over all CPUs for potential: real work        0.007 s, elapsed        0.008 s
  | RMS charge density error from multipole expansion :   0.647095E-02

  Integrating Hamiltonian matrix: batch-based integration.
  Time summed over all CPUs for integration: real work        0.027 s, elapsed        0.028 s

  Updating Kohn-Sham eigenvalues and eigenvectors using ELSI and the ELPA eigensolver.
  Starting ELPA eigensolver
  Finished transformation to standard eigenproblem
  | Time :     0.001 s
  Finished solving standard eigenproblem
  | Time :     0.000 s
  Finished back-transformation of eigenvectors
  | Time :     0.000 s

  Obtaining occupation numbers and electronic chemical potential using ELSI.
  | Note that, for insulating systems, the printed 'chemical potential' value is not uniquely defined.
  | It can be anywhere in the energy gap, as long as it correctly separates occupied and unoccupied states.
  | In systems with a gap, the physically relevant chemical potential is the VBM or HOMO.

  | Chemical potential (Fermi level):    -0.79341476 eV
  Highest occupied state (VBM) at     -7.07428960 eV
  | Occupation number:      2.00000000

  Lowest unoccupied state (CBM) at     0.07513205 eV
  | Occupation number:      0.00000000

  Overall HOMO-LUMO gap:      7.14942164 eV.

  Total energy components:
  | Sum of eigenvalues            :         -41.52002269 Ha       -1129.81730179 eV
  | XC energy correction          :          -9.23033976 Ha        -251.17032417 eV
  | XC potential correction       :          11.87315274 Ha         323.08492441 eV
  | Free-atom electrostatic energy:         -35.70925476 Ha        -971.69826156 eV
  | Hartree energy correction     :          -1.79687673 Ha         -48.89550367 eV
  | Entropy correction            :           0.00000000 Ha           0.00000000 eV
  | ---------------------------
  | Total energy                  :         -76.38334120 Ha       -2078.49646678 eV
  | Total energy, T -> 0          :         -76.38334120 Ha       -2078.49646678 eV  <-- do not rely on this value for anything but (periodic) metals
  | Electronic free energy        :         -76.38334120 Ha       -2078.49646678 eV

  Derived energy quantities:
  | Kinetic energy                :          76.08385362 Ha        2070.34699514 eV
  | Electrostatic energy          :        -143.23685507 Ha       -3897.67313774 eV
  | Energy correction for multipole
  | error in Hartree potential    :          -0.00339080 Ha          -0.09226823 eV
  | Sum of eigenvalues per atom                           :        -376.60576726 eV
  | Total energy (T->0) per atom                          :        -692.83215559 eV  <-- do not rely on this value for anything but (periodic) metals
  | Electronic free energy per atom                       :        -692.83215559 eV
  Evaluating new KS density and force components.
  Integration grid: deviation in total charge (<rho> - N_e) =   5.329071E-15

  atomic forces [eV/Ang]:
  -----------------------
  atom #    1
   Hellmann-Feynman              :  0.115893E-11  0.175647E+02  0.173296E-11
   Ionic forces                  :  0.000000E+00  0.000000E+00  0.000000E+00
   Multipole                     :  0.559324E-13 -0.899305E-01 -0.166431E-12
   Hartree pot. SCF incomplete   : -0.126714E-12 -0.106512E-05 -0.936205E-12
   Pulay + GGA                   : -0.462429E-12 -0.174762E+02 -0.348249E-12
   ----------------------------------------------------------------
   Total forces(   1)            :  0.625716E-12 -0.151569E-02  0.282076E-12
  atom #    2
   Hellmann-Feynman              :  0.295312E+00 -0.306915E+00 -0.493403E-16
   Ionic forces                  :  0.000000E+00  0.000000E+00  0.000000E+00
   Multipole                     : -0.437393E-02 -0.317226E-01 -0.122933E-14
   Hartree pot. SCF incomplete   : -0.275195E-06  0.318196E-06  0.534870E-13
   Pulay + GGA                   : -0.291094E+00  0.337250E+00 -0.472553E-13
   ----------------------------------------------------------------
   Total forces(   2)            : -0.155625E-03 -0.138755E-02  0.495300E-14
  atom #    3
   Hellmann-Feynman              : -0.295312E+00 -0.306915E+00  0.150855E-13
   Ionic forces                  :  0.000000E+00  0.000000E+00  0.000000E+00
   Multipole                     :  0.437393E-02 -0.317226E-01 -0.161123E-14
   Hartree pot. SCF incomplete   :  0.275195E-06  0.318196E-06 -0.155316E-13
   Pulay + GGA                   :  0.291094E+00  0.337250E+00  0.332727E-13
   ----------------------------------------------------------------
   Total forces(   3)            :  0.155625E-03 -0.138755E-02  0.312154E-13


  Self-consistency convergence accuracy:
  | Change of charge density      :  0.2789E-06
  | Change of unmixed KS density  :  0.8432E-06
  | Change of sum of eigenvalues  : -0.7358E-05 eV
  | Change of total energy        : -0.5584E-08 eV
  | Change of forces              :  0.4670E+00 eV/A

  Writing Kohn-Sham eigenvalues.

  State    Occupation    Eigenvalue [Ha]    Eigenvalue [eV]
      1       2.00000         -18.759530         -510.47279
      2       2.00000          -0.923744          -25.13635
      3       2.00000          -0.478609          -13.02362
      4       2.00000          -0.338153           -9.20160
      5       2.00000          -0.259975           -7.07429
      6       0.00000           0.002761            0.07513
      7       0.00000           0.100436            2.73300
      8       0.00000           0.298237            8.11545
      9       0.00000           0.334191            9.09381
     10       0.00000           0.369630           10.05815
     11       0.00000           0.575048           15.64786

  Highest occupied state (VBM) at     -7.07428960 eV
  | Occupation number:      2.00000000

  Lowest unoccupied state (CBM) at     0.07513205 eV
  | Occupation number:      0.00000000

  Overall HOMO-LUMO gap:      7.14942164 eV.

  | Chemical Potential                          :    -0.79341476 eV
  | Note that, for insulating systems, the printed 'chemical potential' value is not uniquely defined.
  | It can be anywhere in the energy gap, as long as it correctly separates occupied and unoccupied states.
  | In systems with a gap, the physically relevant chemical potential is the VBM or HOMO.

  Self-consistency cycle converged.


------------------------------------------------------------
  End self-consistency iteration #     6       :  max(cpu_time)    wall_clock(cpu1)
  | Time for this iteration                     :        0.036 s           0.036 s
  | Charge density & force component update     :        0.014 s           0.014 s
  | Density mixing                              :        0.001 s           0.001 s
  | Hartree multipole update                    :        0.001 s           0.001 s
  | Hartree multipole summation                 :        0.008 s           0.007 s
  | Hartree pot. SCF incomplete forces          :        0.005 s           0.005 s
  | Integration                                 :        0.007 s           0.007 s
  | Solution of K.-S. eqns.                     :        0.000 s           0.001 s
  | Total energy evaluation                     :        0.000 s           0.000 s

  Partial memory accounting:
  | Current value for overall tracked memory usage:
  |   Minimum:        2.209 MB (on task 3)
  |   Maximum:        2.250 MB (on task 0)
  |   Average:        2.228 MB
  | Peak value for overall tracked memory usage:
  |   Minimum:        2.433 MB (on task 2 after allocating hessian_basis_wave)
  |   Maximum:        2.450 MB (on task 0 after allocating hessian_basis_wave)
  |   Average:        2.440 MB
  | Largest tracked array allocation so far:
  |   Minimum:        0.729 MB (previous_rho_gradient_diff on task 2)
  |   Maximum:        0.735 MB (previous_rho_gradient_diff on task 0)
  |   Average:        0.732 MB
  Note:  These values currently only include a subset of arrays which are explicitly tracked.
  The "true" memory usage will be greater.
------------------------------------------------------------
  Removing unitary transformations (pure translations, rotations) from forces on atoms.
  Atomic forces before filtering:
  | Net force on center of mass :   0.116881E-11 -0.429079E-02  0.318244E-12 eV/A
  | Net torque on center of mass:   0.105085E-12  0.201541E-13 -0.414879E-12 eV
  Atomic forces after filtering:
  | Net force on center of mass :   0.000000E+00  0.104535E-17 -0.520812E-28 eV/A
  | Net torque on center of mass:  -0.242211E-28  0.226404E-42 -0.144056E-18 eV

  Energy and forces in a compact form:
  | Total energy uncorrected      :         -0.207849646677991E+04 eV
  | Total energy corrected        :         -0.207849646677991E+04 eV  <-- do not rely on this value for anything but (periodic) metals
  | Electronic free energy        :         -0.207849646677991E+04 eV
  Total atomic forces (unitary forces cleaned) [eV/Ang]:
  |    1          0.119441803030833E-12         -0.854308180835223E-04         -0.579252703088368E-28
  |    2         -0.155625412618024E-03          0.427154090882281E-04          0.292201393736212E-29
  |    3          0.155625412498582E-03          0.427154089952953E-04          0.292201393736212E-29

  ------------------------------------ 
  Start decomposition of the XC Energy 
  ------------------------------------ 
  X and C from original XC functional choice 
  Hartree-Fock Energy :          0.000000000 Ha              0.000000000 eV
  X Energy            :         -8.905291034 Ha           -242.325298402 eV
  C Energy            :         -0.325048722 Ha             -8.845025769 eV
  XC Energy w/o HF    :         -9.230339756 Ha           -251.170324170 eV
  Total XC Energy     :         -9.230339756 Ha           -251.170324170 eV
  ------------------------------------ 
  LDA X and C from self-consistent density 
  X Energy LDA        :         -8.090652386 Ha           -220.157852919 eV
  C Energy LDA        :         -0.659246389 Ha            -17.939006982 eV
  ------------------------------------ 
  End decomposition of the XC Energy 
  ------------------------------------ 

------------------------------------------------------------
  Relaxation / MD: End force evaluation.       :  max(cpu_time)    wall_clock(cpu1)
  | Time for this force evaluation              :        0.146 s           0.146 s

------------------------------------------------------------
  Geometry optimization: Attempting to predict improved coordinates.

  Removing unitary transformations (pure translations, rotations) from forces on atoms.
  Atomic forces before filtering:
  | Net force on center of mass :   0.000000E+00  0.104535E-17 -0.520812E-28 eV/A
  | Net torque on center of mass:  -0.242211E-28  0.226404E-42 -0.144056E-18 eV
  Atomic forces after filtering:
  | Net force on center of mass :   0.000000E+00  0.000000E+00  0.164052E-43 eV/A
  | Net torque on center of mass:   0.106109E-43  0.194389E-45  0.720279E-21 eV
  Net remaining forces (excluding translations, rotations) in present geometry:
  || Forces on atoms   || =   0.155625E-03 eV/A.
  Maximum force component is  0.155625E-03 eV/A.
  Present geometry is converged.

------------------------------------------------------------
  Final atomic structure:
                         x [A]             y [A]             z [A]
            atom         0.00000000       -0.07327021        0.00000000  O
            atom         0.76741278       -0.67036490        0.00000000  H
            atom        -0.76741278       -0.67036490        0.00000000  H
------------------------------------------------------------

------------------------------------------------------------------------------
  Final output of selected total energy values:

  The following output summarizes some interesting total energy values
  at the end of a run (AFTER all relaxation, molecular dynamics, etc.).

  | Total energy of the DFT / Hartree-Fock s.c.f. calculation      :          -2078.496466780 eV
  | Final zero-broadening corrected energy (caution - metals only) :          -2078.496466780 eV
  | For reference only, the value of 1 Hartree used in FHI-aims is :             27.211384500 eV

  Before relying on these values, please be sure to understand exactly which
  total energy value is referred to by a given number. Different objects may
  all carry the same name 'total energy'. Definitions:

  Total energy of the DFT / Hartree-Fock s.c.f. calculation:
  | Note that this energy does not include ANY quantities calculated after the
  | s.c.f. cycle, in particular not ANY RPA, MP2, etc. many-body perturbation terms.

  Final zero-broadening corrected energy:
  | For metallic systems only, a broadening of the occupation numbers at the Fermi
  | level can be extrapolated back to zero broadening by an electron-gas inspired
  | formula. For all systems that are not real metals, this value can be
  | meaningless and should be avoided.

------------------------------------------------------------------------------
  Methods described in the following list of references were used in this FHI-aims run.
  If you publish the results, please make sure to cite these reference if they apply.
  FHI-aims is an academic code, and for our developers (often, Ph.D. students
  and postdocs), scientific credit in the community is essential.
  Thank you for helping us!

  For any use of FHI-aims, please cite:

    Volker Blum, Ralf Gehrke, Felix Hanke, Paula Havu, Ville Havu,
    Xinguo Ren, Karsten Reuter, and Matthias Scheffler
    'Ab initio molecular simulations with numeric atom-centered orbitals'
    Computer Physics Communications 180, 2175-2196 (2009)
    http://doi.org/10.1016/j.cpc.2009.06.022


  The ELSI infrastructure was used in your run to solve the Kohn-Sham electronic structure.
  Please check out http://elsi-interchange.org to learn more.
  If scalability is important for your project, please acknowledge ELSI by citing:

    V. W-z. Yu, F. Corsetti, A. Garcia, W. P. Huhn, M. Jacquelin, W. Jia,
    B. Lange, L. Lin, J. Lu, W. Mi, A. Seifitokaldani, A. Vazquez-Mayagoitia,
    C. Yang, H. Yang, and V. Blum
    'ELSI: A unified software interface for Kohn-Sham electronic structure solvers'
    Computer Physics Communications 222, 267-285 (2018).
    http://doi.org/10.1016/j.cpc.2017.09.007


  For the real-space grid partitioning and parallelization used in this calculation, please cite:

    Ville Havu, Volker Blum, Paula Havu, and Matthias Scheffler,
    'Efficient O(N) integration for all-electron electronic structure calculation'
    'using numerically tabulated basis functions'
    Journal of Computational Physics 228, 8367-8379 (2009).
    http://doi.org/10.1016/j.jcp.2009.08.008

  Of course, there are many other important community references, e.g., those cited in the
  above references. Our list is limited to references that describe implementations in the
  FHI-aims code. The reason is purely practical (length of this list) - please credit others as well.

------------------------------------------------------------
          Leaving FHI-aims.
          Date     :  20231208, Time     :  113807.333

          Computational steps:
          | Number of self-consistency cycles          :           42
          | Number of SCF (re)initializations          :            5
          | Number of relaxation steps                 :            4

          Detailed time accounting                     :  max(cpu_time)    wall_clock(cpu1)
          | Total time                                  :        1.029 s           1.033 s
          | Preparation time                            :        0.067 s           0.067 s
          | Boundary condition initalization            :        0.010 s           0.005 s
          | Grid partitioning                           :        0.026 s           0.026 s
          | Preloading free-atom quantities on grid     :        0.017 s           0.016 s
          | Free-atom superposition energy              :        0.012 s           0.013 s
          | Total time for integrations                 :        0.319 s           0.321 s
          | Total time for solution of K.-S. equations  :        0.019 s           0.021 s
          | Total time for EV reorthonormalization      :        0.001 s           0.002 s
          | Total time for density & force components   :        0.269 s           0.267 s
          | Total time for mixing                       :        0.026 s           0.025 s
          | Total time for Hartree multipole update     :        0.035 s           0.036 s
          | Total time for Hartree multipole sum        :        0.138 s           0.134 s
          | Total time for total energy evaluation      :        0.002 s           0.002 s
          | Total time NSC force correction             :        0.025 s           0.025 s

          Partial memory accounting:
          | Residual value for overall tracked memory usage across tasks:     0.000000 MB (should be 0.000000 MB)
          | Peak values for overall tracked memory usage:
          |   Minimum:        2.433 MB (on task 2 after allocating hessian_basis_wave)
          |   Maximum:        2.450 MB (on task 0 after allocating hessian_basis_wave)
          |   Average:        2.440 MB
          | Largest tracked array allocation:
          |   Minimum:        0.729 MB (previous_rho_gradient_diff on task 2)
          |   Maximum:        0.735 MB (previous_rho_gradient_diff on task 0)
          |   Average:        0.732 MB
          Note:  These values currently only include a subset of arrays which are explicitly tracked.
          The "true" memory usage will be greater.

          Have a nice day.
------------------------------------------------------------
