

 Parallel Execution: Process Information
 ==============================================================================
 Rank   Node Name                              NodeID   MyNodeRank  NodeMaster
    0   ubuntu-kch                                0          0          0
    1   ubuntu-kch                                0          1         -1
    2   ubuntu-kch                                0          2         -1
    3   ubuntu-kch                                0          3         -1
 ==============================================================================


May use up to 7570MB of RAM as shared memory on node 0

 *******************************************************************************
 *                                                                             *
 *  --------------------------------                                           *
 *   Amsterdam Modeling Suite (AMS)              2020.202                      *
 *  --------------------------------                                           *
 *                                               r90167 2020-12-05             *
 *                                                                             *
 *                                                                             *
 *                              =================                              *
 *                              |               |                              *
 *                              |     A M S     |                              *
 *                              |               |                              *
 *                              =================                              *
 *                                                                             *
 *                                                                             *
 *   Online information and documentation:  https://www.scm.com/support/       *
 *   E-mail:  support@scm.com   info@scm.com                                   *
 *                                                                             *
 *   Scientific publications using AMS results must be properly referenced     *
 *   See the User Manuals (or the web site) for recommended citations          *
 *   The terms and conditions of the End User License Agreement apply to       *
 *   the use of AMS, https://www.scm.com/license-terms/                        *
 *                                                                             *
 **********************  x86_64_linux_intel / intelmpi  ************************
 
 Licensed to: Dr. Miroslav Ilias / Matej Bel University, Department Chemistry, Fac. Natural Sciences / Banska Bystrica / SLOVAKIA
 SCM User ID: u17848
  
 AMS 2020.202  RunTime: Mar08-2021 19:18:11  Nodes: 1  Procs: 4

 AMS jobname: ams
 AMS jobid  : 410397985

 Start   directory: /home/milias/work/projects/open-collection/theoretical_chemistry/projects/nmr_diplomovky/reference_compounds/phosphoric_acid/ams/b3lyp_tz2p_good/cosmo-h2o/tmp.milias.1588644.0.noindex/
 Results directory: /home/milias/work/projects/open-collection/theoretical_chemistry/projects/nmr_diplomovky/reference_compounds/phosphoric_acid/ams/b3lyp_tz2p_good/cosmo-h2o/phosporic_acid.geopt_freq_nmrshield_b3lyp_tz2p_good_cosmo-h2o.results/
 Scratch directory: /tmp/amstmp_ams_kid0.410397985/


 Communication costs MPI_COMM_WORLD:      1.075 usec per message,   0.0141 usec per 8-byte item
 Communication costs for intra-node:      0.496 usec per message,   0.0188 usec per 8-byte item

 RNG seed: 1307440183 -2082890730 1169702306 842713863 -988624723 -245617823 632934095 -2049959010



                        ********************************************************************
                        *  ADF 2020.202  RunTime: Mar08-2021 19:18:13  Nodes: 1  Procs: 4  *
                        ********************************************************************
  
       ***************************
       *  GEOMETRY OPTIMIZATION  *
       ***************************

Optimization Method                    Quasi Newton
Optimization Coordinates               Delocalized Coordinates
Optimize lattice                       F
 
 ------------------------------------------------------
 Convergence criteria (Hartree,Angstrom)
 ------------------------------------------------------
 Maximum gradient               0.001000000000
 Maximum rms gradient           0.000666666667
 Maximum step allowed           0.001000000000
 Maximum rms step allowed       0.000666666667
 Maximum energy change allowe   0.000080000000
 Maximum stress energy allowe   0.000500000000
 
Initial model Hessian                  Automatic Hessian
 
------------------------------------
Quasi-Newton Optimizer Parameters
------------------------------------
Hessian Update Method                  BFGS
Maximum number of steps                  250
First GDIIS cycle                          0
Maximum GDIIS vectors                      0
Trust radius (bohr)                        0.200000
Trust radius varies                        T
Constraints converged at all steps         T
Use projector                              T
 
 Rigid motions settings for: old optimizer
 Atomic rotations (x,y,z):     T T T
 Atomic translations (x,y,z):  T T T
 Tolerance:                   1.000000000000000E-006
 
--------
Geometry
--------
Atoms
  Index Symbol   x (angstrom)   y (angstrom)   z (angstrom)
      1      P    -0.00000000    -0.00000000    -0.16289629       adf.R=1.850
      2      O    -1.37349922    -0.35406788     0.52325653       adf.R=1.517
      3      O     0.99338139    -1.01245127     0.52325653       adf.R=1.517
      4      O     0.38011782     1.36651915     0.52325653       adf.R=1.517
      5      O    -0.00000000    -0.00000000    -1.63218030       adf.R=1.517
      6      H    -2.14207944     0.02017583     0.07510234       adf.R=1.350
      7      H     1.05356694    -1.86518313     0.07510234       adf.R=1.350
      8      H     1.08851251     1.84500730     0.07510234       adf.R=1.350
 
Total System Charge             0.00000
Bonding info available!
 
 
----------------
ADF Engine Input
----------------
 
 Basis
 Type TZ2P
 Core None
 End
 Save TAPE10
 XC
 Hybrid B3LYP
 End
 Relativity
 Level None
 End
 Solvation
 Surf Delley
 Solv name=Water cav0=0.0 cav1=0.0067639
 Charged method=CONJ
 C-Mat POT
 SCF VAR ALL
 CSMRSP
 End
 NumericalQuality Good
 

 Title: *** (NO TITLE) ***

Number of symmetry operators: 3
Schoenflies symbol:           C(3)
 Using automatic Hessian for delocalized coordinates.
 *** GOStep1 ***

 SOLVATION
-------------------------------------------

  The Delley construction of COSMO surface surface is calculated

       Division Level for Surface Triangles (NDIV)                  3
       Final Division Level for Triangles (NFDIV)                   1
       Radius of the Solvent (RSOL)                           1.93000 angstr
  Dielectric Constant (EPSL)                                 78.39000

       COSMO equation is solved iteratively-               conjugate-gradient

       Maximun of Iterations for Charges (NCIX)                  1000
       Criterion for Charge convergence (CCNV)                1.0E-08

  COSMO charges included variationally in SCF

       COSMO included at every SCF cycle

  Geometry-dependent empirical factor                         0.00000

  C-Matrix calculated in cspmtx

  In cspmtx, C-Matrix calculated using fitted potential

-------------------------------------------



 -------------------------------------------
  COSMO surface
  Area             =          347.383
  Volume           =          502.706
  Number of Points =          978
 -------------------------------------------



 ======================
 RI Hartree-Fock Scheme
 ======================
  
 Fit Set Quality     : GOOD
 Integration Quality : GOOD
 Threshold Quality   : GOOD
 Response Quality    : DEFAULT
 Is Range Separated  :  F
 
 RIHartreeFock Dependency: number of modified vectors:           3
 cosmo_calcen: 0.5 (esolb+esolc) (Hartrees) =   -0.029537

 Solvation energy (screening term,uncorrected) =    -18.535049 kcal/mol

 Solvation energy (dispersion and cavitation terms) =      0.649580 kcal/mol
 Solvation Energy Contributions (Hartrees)
          esola   esolb+esolc
     0.02953748   -0.05907496
 esol last cycle   -0.02953748
  
 Hartree-Fock exchange energy:   -56.8405749151847     
 cosmo_calcen: 0.5 (esolb+esolc) (Hartrees) =   -0.029537

 Solvation energy (screening term,uncorrected) =    -18.535049 kcal/mol

 Solvation energy (dispersion and cavitation terms) =      0.649580 kcal/mol
 Solvation Energy Contributions (Hartrees)
          esola   esolb+esolc
     0.02953748   -0.05907495
 esol last cycle   -0.02953748
  pauli hf:                              0.913769013210109         24.8649           573.40          2399.10
  elstat hf:                            -0.662721318173482        -18.0336          -415.86         -1739.97

 Energy gradients wrt nuclear displacements
 ==========================================

     Atom      Cartesian (a.u./angstrom)
                 X         Y         Z
 ----------------------------------------
     1 P     0.000026 -0.000133  0.000789
     2 O     0.007331  0.004070 -0.006189
     3 O    -0.007152  0.004294 -0.006227
     4 O    -0.000097 -0.008354 -0.006146
     5 O    -0.000009 -0.000021  0.013811
     6 H     0.005561 -0.001223  0.001281
     7 H    -0.001646  0.005563  0.001316
     8 H    -0.004014 -0.004197  0.001364
 ----------------------------------------
 Mulliken charges used for AMS results%charges...
 
----------------------------------------------------------------------
Geometry Convergence after Step   1       (Hartree/Angstrom,Angstrom)
----------------------------------------------------------------------
current energy                               -2.09651189 Hartree
energy change                      -2.09651189     0.00008000    F
constrained gradient max            0.01381081     0.00100000    F
constrained gradient rms            0.00508622     0.00066667    F
gradient max                        0.01381081
gradient rms                        0.00508622
cart. step max                      0.01288026     0.00100000    F
cart. step rms                      0.00558079     0.00066667    F
 
 
--------
Geometry
--------
Atoms
  Index Symbol   x (angstrom)   y (angstrom)   z (angstrom)
      1      P    -0.00000000    -0.00000000    -0.16435649       adf.R=1.850
      2      O    -1.38065103    -0.35432640     0.52328837       adf.R=1.517
      3      O     0.99718117    -1.01851567     0.52328837       adf.R=1.517
      4      O     0.38346985     1.37284206     0.52328837       adf.R=1.517
      5      O    -0.00000000    -0.00000000    -1.64010654       adf.R=1.517
      6      H    -2.15495970     0.01928077     0.07819931       adf.R=1.350
      7      H     1.06078221    -1.87589023     0.07819931       adf.R=1.350
      8      H     1.09417749     1.85660946     0.07819931       adf.R=1.350
 
Total System Charge             0.00000
Bonding info available!
 
 *** GOStep2 ***

 SOLVATION
-------------------------------------------

  The Delley construction of COSMO surface surface is calculated

       Division Level for Surface Triangles (NDIV)                  3
       Final Division Level for Triangles (NFDIV)                   1
       Radius of the Solvent (RSOL)                           1.93000 angstr
  Dielectric Constant (EPSL)                                 78.39000

       COSMO equation is solved iteratively-               conjugate-gradient

       Maximun of Iterations for Charges (NCIX)                  1000
       Criterion for Charge convergence (CCNV)                1.0E-08

  COSMO charges included variationally in SCF

       COSMO included at every SCF cycle

  Geometry-dependent empirical factor                         0.00000

  C-Matrix calculated in cspmtx

  In cspmtx, C-Matrix calculated using fitted potential

-------------------------------------------



 -------------------------------------------
  COSMO surface
  Area             =          348.637
  Volume           =          504.582
  Number of Points =          982
 -------------------------------------------



 ======================
 RI Hartree-Fock Scheme
 ======================
  
 Fit Set Quality     : GOOD
 Integration Quality : GOOD
 Threshold Quality   : GOOD
 Response Quality    : DEFAULT
 Is Range Separated  :  F
 
 RIHartreeFock Dependency: number of modified vectors:           3
 cosmo_calcen: 0.5 (esolb+esolc) (Hartrees) =   -0.029781

 Solvation energy (screening term,uncorrected) =    -18.688091 kcal/mol

 Solvation energy (dispersion and cavitation terms) =      0.651924 kcal/mol
 Solvation Energy Contributions (Hartrees)
          esola   esolb+esolc
     0.02978136   -0.05956273
 esol last cycle   -0.02978136
  
 Hartree-Fock exchange energy:   -56.8166404717723     
 cosmo_calcen: 0.5 (esolb+esolc) (Hartrees) =   -0.029781

 Solvation energy (screening term,uncorrected) =    -18.688091 kcal/mol

 Solvation energy (dispersion and cavitation terms) =      0.651924 kcal/mol
 Solvation Energy Contributions (Hartrees)
          esola   esolb+esolc
     0.02978137   -0.05956273
 esol last cycle   -0.02978137
  pauli hf:                              0.915713046775647         24.9178           574.62          2404.20
  elstat hf:                            -0.654033054412752        -17.7971          -410.41         -1717.16

 Energy gradients wrt nuclear displacements
 ==========================================

     Atom      Cartesian (a.u./angstrom)
                 X         Y         Z
 ----------------------------------------
     1 P     0.000025 -0.000155  0.006176
     2 O     0.001332  0.000503 -0.001500
     3 O    -0.001051  0.000877 -0.001521
     4 O    -0.000217 -0.001372 -0.001426
     5 O    -0.000003 -0.000018 -0.001570
     6 H     0.000011  0.000132 -0.000091
     7 H    -0.000036  0.000089 -0.000051
     8 H    -0.000061 -0.000057 -0.000016
 ----------------------------------------
 Mulliken charges used for AMS results%charges...

 dE(predicted):    -0.23621E-03, dE(actual):    -0.27118E-03, Trust radius:    0.200000, all in a.u.
 
----------------------------------------------------------------------
Geometry Convergence after Step   2       (Hartree/Angstrom,Angstrom)
----------------------------------------------------------------------
current energy                               -2.09678307 Hartree
energy change                      -0.00027118     0.00008000    F
constrained gradient max            0.00617577     0.00100000    F
constrained gradient rms            0.00148626     0.00066667    F
gradient max                        0.00617577
gradient rms                        0.00148626
cart. step max                      0.00348267     0.00100000    F
cart. step rms                      0.00127267     0.00066667    F
 
 
--------
Geometry
--------
Atoms
  Index Symbol   x (angstrom)   y (angstrom)   z (angstrom)
      1      P    -0.00000000    -0.00000000    -0.16783916       adf.R=1.850
      2      O    -1.38030819    -0.35467837     0.52316641       adf.R=1.517
      3      O     0.99731457    -1.01804278     0.52316641       adf.R=1.517
      4      O     0.38299362     1.37272114     0.52316641       adf.R=1.517
      5      O    -0.00000000    -0.00000000    -1.64300387       adf.R=1.517
      6      H    -2.15580822     0.01957024     0.08044794       adf.R=1.350
      7      H     1.06095578    -1.87676980     0.08044794       adf.R=1.350
      8      H     1.09485243     1.85719956     0.08044794       adf.R=1.350
 
Total System Charge             0.00000
Bonding info available!
 
 *** GOStep3 ***

 SOLVATION
-------------------------------------------

  The Delley construction of COSMO surface surface is calculated

       Division Level for Surface Triangles (NDIV)                  3
       Final Division Level for Triangles (NFDIV)                   1
       Radius of the Solvent (RSOL)                           1.93000 angstr
  Dielectric Constant (EPSL)                                 78.39000

       COSMO equation is solved iteratively-               conjugate-gradient

       Maximun of Iterations for Charges (NCIX)                  1000
       Criterion for Charge convergence (CCNV)                1.0E-08

  COSMO charges included variationally in SCF

       COSMO included at every SCF cycle

  Geometry-dependent empirical factor                         0.00000

  C-Matrix calculated in cspmtx

  In cspmtx, C-Matrix calculated using fitted potential

-------------------------------------------



 -------------------------------------------
  COSMO surface
  Area             =          348.692
  Volume           =          504.682
  Number of Points =          983
 -------------------------------------------



 ======================
 RI Hartree-Fock Scheme
 ======================
  
 Fit Set Quality     : GOOD
 Integration Quality : GOOD
 Threshold Quality   : GOOD
 Response Quality    : DEFAULT
 Is Range Separated  :  F
 
 RIHartreeFock Dependency: number of modified vectors:           3
 cosmo_calcen: 0.5 (esolb+esolc) (Hartrees) =   -0.029730

 Solvation energy (screening term,uncorrected) =    -18.655739 kcal/mol

 Solvation energy (dispersion and cavitation terms) =      0.652028 kcal/mol
 Solvation Energy Contributions (Hartrees)
          esola   esolb+esolc
     0.02972981   -0.05945962
 esol last cycle   -0.02972981
  
 Hartree-Fock exchange energy:   -56.8145948017463     
 cosmo_calcen: 0.5 (esolb+esolc) (Hartrees) =   -0.029730

 Solvation energy (screening term,uncorrected) =    -18.655739 kcal/mol

 Solvation energy (dispersion and cavitation terms) =      0.652028 kcal/mol
 Solvation Energy Contributions (Hartrees)
          esola   esolb+esolc
     0.02972981   -0.05945962
 esol last cycle   -0.02972981
  pauli hf:                              0.916176521312812         24.9304           574.91          2405.42
  elstat hf:                            -0.653214616571471        -17.7749          -409.90         -1715.01

 Energy gradients wrt nuclear displacements
 ==========================================

     Atom      Cartesian (a.u./angstrom)
                 X         Y         Z
 ----------------------------------------
     1 P     0.000019 -0.000148  0.001972
     2 O     0.000541  0.000208 -0.000278
     3 O    -0.000399  0.000336 -0.000293
     4 O    -0.000080 -0.000537 -0.000215
     5 O    -0.000002 -0.000019 -0.001007
     6 H    -0.000206  0.000192 -0.000102
     7 H     0.000022 -0.000130 -0.000061
     8 H     0.000106  0.000098 -0.000015
 ----------------------------------------
 Mulliken charges used for AMS results%charges...

 dE(predicted):    -0.80449E-05, dE(actual):    -0.98164E-05, Trust radius:    0.200000, all in a.u.
 
----------------------------------------------------------------------
Geometry Convergence after Step   3       (Hartree/Angstrom,Angstrom)
----------------------------------------------------------------------
current energy                               -2.09679288 Hartree
energy change                      -0.00000982     0.00008000    T
constrained gradient max            0.00197184     0.00100000    F
constrained gradient rms            0.00050349     0.00066667    T
gradient max                        0.00197184
gradient rms                        0.00050349
cart. step max                      0.00090909     0.00100000    T
cart. step rms                      0.00034662     0.00066667    T
 
 
--------
Geometry
--------
Atoms
  Index Symbol   x (angstrom)   y (angstrom)   z (angstrom)
      1      P    -0.00000000    -0.00000000    -0.16874824       adf.R=1.850
      2      O    -1.38032919    -0.35509870     0.52298192       adf.R=1.517
      3      O     0.99768908    -1.01785079     0.52298192       adf.R=1.517
      4      O     0.38264010     1.37294949     0.52298192       adf.R=1.517
      5      O    -0.00000000    -0.00000000    -1.64334630       adf.R=1.517
      6      H    -2.15585957     0.01983638     0.08104960       adf.R=1.350
      7      H     1.06075098    -1.87694734     0.08104960       adf.R=1.350
      8      H     1.09510859     1.85711097     0.08104960       adf.R=1.350
 
Total System Charge             0.00000
Bonding info available!
 
 *** GOStep4 ***

 SOLVATION
-------------------------------------------

  The Delley construction of COSMO surface surface is calculated

       Division Level for Surface Triangles (NDIV)                  3
       Final Division Level for Triangles (NFDIV)                   1
       Radius of the Solvent (RSOL)                           1.93000 angstr
  Dielectric Constant (EPSL)                                 78.39000

       COSMO equation is solved iteratively-               conjugate-gradient

       Maximun of Iterations for Charges (NCIX)                  1000
       Criterion for Charge convergence (CCNV)                1.0E-08

  COSMO charges included variationally in SCF

       COSMO included at every SCF cycle

  Geometry-dependent empirical factor                         0.00000

  C-Matrix calculated in cspmtx

  In cspmtx, C-Matrix calculated using fitted potential

-------------------------------------------



 -------------------------------------------
  COSMO surface
  Area             =          348.697
  Volume           =          504.700
  Number of Points =          983
 -------------------------------------------



 ======================
 RI Hartree-Fock Scheme
 ======================
  
 Fit Set Quality     : GOOD
 Integration Quality : GOOD
 Threshold Quality   : GOOD
 Response Quality    : DEFAULT
 Is Range Separated  :  F
 
 RIHartreeFock Dependency: number of modified vectors:           3
 cosmo_calcen: 0.5 (esolb+esolc) (Hartrees) =   -0.029701

 Solvation energy (screening term,uncorrected) =    -18.637408 kcal/mol

 Solvation energy (dispersion and cavitation terms) =      0.652037 kcal/mol
 Solvation Energy Contributions (Hartrees)
          esola   esolb+esolc
     0.02970060   -0.05940119
 esol last cycle   -0.02970060
  
 Hartree-Fock exchange energy:   -56.8143887412881     
 cosmo_calcen: 0.5 (esolb+esolc) (Hartrees) =   -0.029701

 Solvation energy (screening term,uncorrected) =    -18.637408 kcal/mol

 Solvation energy (dispersion and cavitation terms) =      0.652037 kcal/mol
 Solvation Energy Contributions (Hartrees)
          esola   esolb+esolc
     0.02970060   -0.05940120
 esol last cycle   -0.02970060
  pauli hf:                              0.916397834024847         24.9365           575.05          2406.00
  elstat hf:                            -0.653090106623100        -17.7715          -409.82         -1714.69

 Energy gradients wrt nuclear displacements
 ==========================================

     Atom      Cartesian (a.u./angstrom)
                 X         Y         Z
 ----------------------------------------
     1 P     0.000020 -0.000146 -0.000005
     2 O     0.000032  0.000139 -0.000049
     3 O    -0.000087 -0.000071 -0.000061
     4 O     0.000116 -0.000063  0.000014
     5 O    -0.000002 -0.000019  0.000058
     6 H    -0.000095  0.000153 -0.000028
     7 H     0.000001 -0.000013  0.000012
     8 H     0.000015  0.000021  0.000059
 ----------------------------------------
 Mulliken charges used for AMS results%charges...
 
---------------------------------------------------------
Geometry Convergence after Step   4       ** CONVERGED **
---------------------------------------------------------
current energy                               -2.09679312 Hartree
energy change                      -0.00000023     0.00008000    T
constrained gradient max            0.00006776     0.00100000    T
constrained gradient rms            0.00003679     0.00066667    T
gradient max                        0.00006776
gradient rms                        0.00003679
cart. step max                      0.00025770     0.00100000    T
cart. step rms                      0.00014417     0.00066667    T
 
Geometry optimization converged

Optimized geometry:
 
--------
Geometry
--------
Atoms
  Index Symbol   x (angstrom)   y (angstrom)   z (angstrom)
      1      P    -0.00000000    -0.00000000    -0.16874824       adf.R=1.850
      2      O    -1.38032919    -0.35509870     0.52298192       adf.R=1.517
      3      O     0.99768908    -1.01785079     0.52298192       adf.R=1.517
      4      O     0.38264010     1.37294949     0.52298192       adf.R=1.517
      5      O    -0.00000000    -0.00000000    -1.64334630       adf.R=1.517
      6      H    -2.15585957     0.01983638     0.08104960       adf.R=1.350
      7      H     1.06075098    -1.87694734     0.08104960       adf.R=1.350
      8      H     1.09510859     1.85711097     0.08104960       adf.R=1.350
 
Total System Charge             0.00000
Bonding info available!
 
Performing a single point calculation on the final geometry ...

 *** adf ***



 ===========================
 A T T A C H E D   F I L E S
 ===========================
  
 Restart/tmp/amstmp_ams_kid0.410397985/GOStep4.rkf*** GOStep4 ***



 ===============================
 M O D E L   P A R A M E T E R S
 ===============================
  
 DENSITY FUNCTIONAL POTENTIAL (scf)
    Hybrid:                            B3LYP                                   == Not Default ==

 SPIN  (restricted / unrestr.)
    Molecule:                          Restricted                               
    Fragments:                         Restricted                               

 OTHER ASPECTS
    Relativistic Corrections:          ---                                     == Not Default ==

    Nuclear Charge Density Model:      Point Charge Nuclei                      
    Core Treatment:                    Frozen Orbital(s)                        

    Hyperfine or Zeeman Interaction:   ---                                      

 SOLVATION
-------------------------------------------

  The Delley construction of COSMO surface surface is calculated

       Division Level for Surface Triangles (NDIV)                  3
       Final Division Level for Triangles (NFDIV)                   1
       Radius of the Solvent (RSOL)                           1.93000 angstr
  Dielectric Constant (EPSL)                                 78.39000

       COSMO equation is solved iteratively-               conjugate-gradient

       Maximun of Iterations for Charges (NCIX)                  1000
       Criterion for Charge convergence (CCNV)                1.0E-08

  COSMO charges included variationally in SCF

       COSMO included at every SCF cycle

  Geometry-dependent empirical factor                         0.00000

  C-Matrix calculated in cspmtx

  In cspmtx, C-Matrix calculated using fitted potential

-------------------------------------------




 ===============
 G E O M E T R Y  ***  3D  Molecule  ***
 ===============
  

 ATOMS
 =====                            X Y Z                    CHARGE                     RADIUS
                                (Angstrom)             Nucl     +Core       At.Mass (Angstrom)
                       --------------------------    ----------------       ------- ----------
    1  P              -0.0000   -0.0000   -0.1687     15.00     15.00       30.9738    1.8500
    2  O              -1.3803   -0.3551    0.5230      8.00      8.00       15.9949    1.5170
    3  O               0.9977   -1.0179    0.5230      8.00      8.00       15.9949    1.5170
    4  O               0.3826    1.3729    0.5230      8.00      8.00       15.9949    1.5170
    5  O              -0.0000   -0.0000   -1.6433      8.00      8.00       15.9949    1.5170
    6  H              -2.1559    0.0198    0.0810      1.00      1.00        1.0078    1.3500
    7  H               1.0608   -1.8769    0.0810      1.00      1.00        1.0078    1.3500
    8  H               1.0951    1.8571    0.0810      1.00      1.00        1.0078    1.3500


 FRAGMENTS
 =========                                     Atoms in this Fragment     Cart. coord.s (Angstrom)
                                               -------------------------------------------------------
    1  P                                                 1  P           -0.0000   -0.0000   -0.1687
    2  O                                                 2  O           -1.3803   -0.3551    0.5230
    3  O                                                 3  O            0.9977   -1.0179    0.5230
    4  O                                                 4  O            0.3826    1.3729    0.5230
    5  O                                                 5  O           -0.0000   -0.0000   -1.6433
    6  H                                                 6  H           -2.1559    0.0198    0.0810
    7  H                                                 7  H            1.0608   -1.8769    0.0810
    8  H                                                 8  H            1.0951    1.8571    0.0810


 Interatomic Distance Matrix (Angstrom)
 --------------------------------------

   1)     0.000
   2)     1.584   0.000
   3)     1.584   2.469   0.000
   4)     1.584   2.469   2.469   0.000
   5)     1.475   2.593   2.593   2.593   0.000
   6)     2.170   0.968   3.349   2.910   2.761   0.000
   7)     2.170   2.910   0.968   3.349   2.761   3.734   0.000
   8)     2.170   3.349   2.910   0.968   2.761   3.734   3.734   0.000

 Min. Distance =    0.9682
 Max. Distance =    3.7342



 =====================================
 S Y M M E T R Y ,   E L E C T R O N S
 =====================================
  
 Symmetry: NOSYM

 Irreducible Representations, including subspecies
 -------------------------------------------------
 A

 Symmetry is NOT used when fitting density


 Configuration of Valence Electrons
 ==================================
 ( determined in the SCF procedure )

 Total:   50

 Net Charge: 0 (Nuclei minus Electrons)

 Aufbau principle for MO occupations will be applied through SCF cycle no.     150
 Thereafter, the program will assign electrons to MOs that are spatially
 similar to the occupied MOs in a "reference" cycle ("KeepOrbitals").
 The reference cycle is always the PREVIOUS cycle: it will evolve with
 the SCF procedure.
1
 ***************************************************************************************************



                                      ****************************************
                                      *  B U I L D : (Fragments, Functions)  *
                                      ****************************************
  



 =======
 S F O s  ***  (Symmetrized Fragment Orbitals)  ***
 =======
  
 SFOs are linear combinations of (valence) Fragment Orbitals (FOs), such that the SFOs transform as the
 irreducible representations of the (molecular) symmetry group. Each SFO is therefore characterized by
 an irrep of the molecule and by a few (or only one) generating FOs.
 The SFOs constitute a symmetry-adapted basis for the Fock matrix. The MO eigenvector coefficients in
 this basis provide a direct interpretation of the MOs in terms of Frontier Orbital Theory.

 The SFOs are combined with auxiliary Core Functions (CFs) to ensure orthogonalization on the (frozen)
 Core Orbitals (COs). The Core-orthogonalized SFOs (CSFOs) constitute the true Fock basis.

 The FOs, and hence also the (C)SFOs are combinations of the elementary basis functions (BAS). The basis
 functions that participate in the description of the SFOs depend on the irrep. The indices of the
 involved functions are printed below for each irrep.
 (The complete list of primitive basis functions is printed in another section)

 Total nr. of (C)SFOs (summation over all irreps) :   171

 NOTE: a (C)SFO that is defined as a combination of more than one FO is usually NOT normalized.



                                       === A ===
 Nr. of SFOs :  171
 Cartesian basis functions that participate in this irrep (total number =   194) :
      1     2     3     4    11    12    13     5     8    14
     17    20     6     9    15    18    21     7    10    16
     19    22    23    24    25    26    27    28    29    30
     31    32    33    34    35    36    37    38    39    40
     41    42    43    44    47    50    45    48    51    46
     49    52    53    54    55    56    57    58    59    60
     61    62    63    64    65    66    67    68    69    70
     71    72    73    74    77    80    75    78    81    76
     79    82    83    84    85    86    87    88    89    90
     91    92    93    94    95    96    97    98    99   100
    101   102   103   104   107   110   105   108   111   106
    109   112   113   114   115   116   117   118   119   120
    121   122   123   124   125   126   127   128   129   130
    131   132   133   134   137   140   135   138   141   136
    139   142   143   144   145   146   147   148   149   150
    151   152   153   154   155   156   157   158   159   160
    161   162   163   164   165   166   167   168   169   170
    171   172   173   174   175   176   177   178   179   180
    181   182   183   184   185   186   187   188   189   190
    191   192   193   194

    SFO  (index         Fragment          Generating    Expansion in Fragment Orbitals
  indx  incl.CFs)   Occup   Orb.Energy   FragmentType  Coeff.   Orbital     on Fragment
 --------------------------------------------------------------------------------------
     1       1      2.000     -77.122 au  P             1.00      1 S               1
                        (   -2098.594 eV)
     2       2      2.000      -6.605 au  P             1.00      2 S               1
                        (    -179.735 eV)
     3       3      2.000      -0.561 au  P             1.00      3 S               1
                        (     -15.274 eV)
     4       4       --         0.131 au  P             1.00      4 S               1
                        (       3.576 eV)
     5       5       --         1.368 au  P             1.00      5 S               1
                        (      37.216 eV)
     6       6       --         9.496 au  P             1.00      6 S               1
                        (     258.396 eV)
     7       7       --       165.054 au  P             1.00      7 S               1
                        (    4491.348 eV)
     8       8      2.000      -4.762 au  P             1.00      1 P:x             1
                        (    -129.571 eV)
     9       9      1.000      -0.204 au  P             1.00      2 P:x             1
                        (      -5.555 eV)
    10      10       --         0.100 au  P             1.00      3 P:x             1
                        (       2.712 eV)
    11      11       --         0.905 au  P             1.00      4 P:x             1
                        (      24.616 eV)
    12      12       --        10.491 au  P             1.00      5 P:x             1
                        (     285.464 eV)
    13      13      2.000      -4.762 au  P             1.00      1 P:y             1
                        (    -129.571 eV)
    14      14      1.000      -0.204 au  P             1.00      2 P:y             1
                        (      -5.555 eV)
    15      15       --         0.100 au  P             1.00      3 P:y             1
                        (       2.712 eV)
    16      16       --         0.905 au  P             1.00      4 P:y             1
                        (      24.616 eV)
    17      17       --        10.491 au  P             1.00      5 P:y             1
                        (     285.464 eV)
    18      18      2.000      -4.762 au  P             1.00      1 P:z             1
                        (    -129.571 eV)
    19      19      1.000      -0.204 au  P             1.00      2 P:z             1
                        (      -5.555 eV)
    20      20       --         0.100 au  P             1.00      3 P:z             1
                        (       2.712 eV)
    21      21       --         0.905 au  P             1.00      4 P:z             1
                        (      24.616 eV)
    22      22       --        10.491 au  P             1.00      5 P:z             1
                        (     285.464 eV)
    23      23       --         0.428 au  P             1.00      1 D:z2            1
                        (      11.653 eV)
    24      24       --         0.428 au  P             1.00      1 D:x2-y2         1
                        (      11.653 eV)
    25      25       --         0.428 au  P             1.00      1 D:xy            1
                        (      11.653 eV)
    26      26       --         0.428 au  P             1.00      1 D:xz            1
                        (      11.653 eV)
    27      27       --         0.428 au  P             1.00      1 D:yz            1
                        (      11.653 eV)
    28      28       --         1.204 au  P             1.00      1 F:z3            1
                        (      32.762 eV)
    29      29       --         1.204 au  P             1.00      1 F:z             1
                        (      32.762 eV)
    30      30       --         1.204 au  P             1.00      1 F:xyz           1
                        (      32.762 eV)
    31      31       --         1.204 au  P             1.00      1 F:z2x           1
                        (      32.762 eV)
    32      32       --         1.204 au  P             1.00      1 F:z2y           1
                        (      32.762 eV)
    33      33       --         1.204 au  P             1.00      1 F:x             1
                        (      32.762 eV)
    34      34       --         1.204 au  P             1.00      1 F:y             1
                        (      32.762 eV)
    35      35      2.000     -19.301 au  O             1.00      1 S               2
                        (    -525.210 eV)
    36      36      2.000      -0.971 au  O             1.00      2 S               2
                        (     -26.409 eV)
    37      37       --         0.840 au  O             1.00      3 S               2
                        (      22.860 eV)
    38      38       --        13.636 au  O             1.00      4 S               2
                        (     371.062 eV)
    39      39       --       123.736 au  O             1.00      5 S               2
                        (    3367.024 eV)
    40      40      1.333      -0.361 au  O             1.00      1 P:x             2
                        (      -9.826 eV)
    41      41       --         0.380 au  O             1.00      2 P:x             2
                        (      10.335 eV)
    42      42       --         3.936 au  O             1.00      3 P:x             2
                        (     107.096 eV)
    43      43      1.333      -0.361 au  O             1.00      1 P:y             2
                        (      -9.826 eV)
    44      44       --         0.380 au  O             1.00      2 P:y             2
                        (      10.335 eV)
    45      45       --         3.936 au  O             1.00      3 P:y             2
                        (     107.096 eV)
    46      46      1.333      -0.361 au  O             1.00      1 P:z             2
                        (      -9.826 eV)
    47      47       --         0.380 au  O             1.00      2 P:z             2
                        (      10.335 eV)
    48      48       --         3.936 au  O             1.00      3 P:z             2
                        (     107.096 eV)
    49      49       --         1.117 au  O             1.00      1 D:z2            2
                        (      30.395 eV)
    50      50       --         1.117 au  O             1.00      1 D:x2-y2         2
                        (      30.395 eV)
    51      51       --         1.117 au  O             1.00      1 D:xy            2
                        (      30.395 eV)
    52      52       --         1.117 au  O             1.00      1 D:xz            2
                        (      30.395 eV)
    53      53       --         1.117 au  O             1.00      1 D:yz            2
                        (      30.395 eV)
    54      54       --         3.432 au  O             1.00      1 F:z3            2
                        (      93.388 eV)
    55      55       --         3.432 au  O             1.00      1 F:z             2
                        (      93.388 eV)
    56      56       --         3.432 au  O             1.00      1 F:xyz           2
                        (      93.388 eV)
    57      57       --         3.432 au  O             1.00      1 F:z2x           2
                        (      93.388 eV)
    58      58       --         3.432 au  O             1.00      1 F:z2y           2
                        (      93.388 eV)
    59      59       --         3.432 au  O             1.00      1 F:x             2
                        (      93.388 eV)
    60      60       --         3.432 au  O             1.00      1 F:y             2
                        (      93.388 eV)
    61      61      2.000     -19.301 au  O             1.00      1 S               3
                        (    -525.210 eV)
    62      62      2.000      -0.971 au  O             1.00      2 S               3
                        (     -26.409 eV)
    63      63       --         0.840 au  O             1.00      3 S               3
                        (      22.860 eV)
    64      64       --        13.636 au  O             1.00      4 S               3
                        (     371.062 eV)
    65      65       --       123.736 au  O             1.00      5 S               3
                        (    3367.024 eV)
    66      66      1.333      -0.361 au  O             1.00      1 P:x             3
                        (      -9.826 eV)
    67      67       --         0.380 au  O             1.00      2 P:x             3
                        (      10.335 eV)
    68      68       --         3.936 au  O             1.00      3 P:x             3
                        (     107.096 eV)
    69      69      1.333      -0.361 au  O             1.00      1 P:y             3
                        (      -9.826 eV)
    70      70       --         0.380 au  O             1.00      2 P:y             3
                        (      10.335 eV)
    71      71       --         3.936 au  O             1.00      3 P:y             3
                        (     107.096 eV)
    72      72      1.333      -0.361 au  O             1.00      1 P:z             3
                        (      -9.826 eV)
    73      73       --         0.380 au  O             1.00      2 P:z             3
                        (      10.335 eV)
    74      74       --         3.936 au  O             1.00      3 P:z             3
                        (     107.096 eV)
    75      75       --         1.117 au  O             1.00      1 D:z2            3
                        (      30.395 eV)
    76      76       --         1.117 au  O             1.00      1 D:x2-y2         3
                        (      30.395 eV)
    77      77       --         1.117 au  O             1.00      1 D:xy            3
                        (      30.395 eV)
    78      78       --         1.117 au  O             1.00      1 D:xz            3
                        (      30.395 eV)
    79      79       --         1.117 au  O             1.00      1 D:yz            3
                        (      30.395 eV)
    80      80       --         3.432 au  O             1.00      1 F:z3            3
                        (      93.388 eV)
    81      81       --         3.432 au  O             1.00      1 F:z             3
                        (      93.388 eV)
    82      82       --         3.432 au  O             1.00      1 F:xyz           3
                        (      93.388 eV)
    83      83       --         3.432 au  O             1.00      1 F:z2x           3
                        (      93.388 eV)
    84      84       --         3.432 au  O             1.00      1 F:z2y           3
                        (      93.388 eV)
    85      85       --         3.432 au  O             1.00      1 F:x             3
                        (      93.388 eV)
    86      86       --         3.432 au  O             1.00      1 F:y             3
                        (      93.388 eV)
    87      87      2.000     -19.301 au  O             1.00      1 S               4
                        (    -525.210 eV)
    88      88      2.000      -0.971 au  O             1.00      2 S               4
                        (     -26.409 eV)
    89      89       --         0.840 au  O             1.00      3 S               4
                        (      22.860 eV)
    90      90       --        13.636 au  O             1.00      4 S               4
                        (     371.062 eV)
    91      91       --       123.736 au  O             1.00      5 S               4
                        (    3367.024 eV)
    92      92      1.333      -0.361 au  O             1.00      1 P:x             4
                        (      -9.826 eV)
    93      93       --         0.380 au  O             1.00      2 P:x             4
                        (      10.335 eV)
    94      94       --         3.936 au  O             1.00      3 P:x             4
                        (     107.096 eV)
    95      95      1.333      -0.361 au  O             1.00      1 P:y             4
                        (      -9.826 eV)
    96      96       --         0.380 au  O             1.00      2 P:y             4
                        (      10.335 eV)
    97      97       --         3.936 au  O             1.00      3 P:y             4
                        (     107.096 eV)
    98      98      1.333      -0.361 au  O             1.00      1 P:z             4
                        (      -9.826 eV)
    99      99       --         0.380 au  O             1.00      2 P:z             4
                        (      10.335 eV)
   100     100       --         3.936 au  O             1.00      3 P:z             4
                        (     107.096 eV)
   101     101       --         1.117 au  O             1.00      1 D:z2            4
                        (      30.395 eV)
   102     102       --         1.117 au  O             1.00      1 D:x2-y2         4
                        (      30.395 eV)
   103     103       --         1.117 au  O             1.00      1 D:xy            4
                        (      30.395 eV)
   104     104       --         1.117 au  O             1.00      1 D:xz            4
                        (      30.395 eV)
   105     105       --         1.117 au  O             1.00      1 D:yz            4
                        (      30.395 eV)
   106     106       --         3.432 au  O             1.00      1 F:z3            4
                        (      93.388 eV)
   107     107       --         3.432 au  O             1.00      1 F:z             4
                        (      93.388 eV)
   108     108       --         3.432 au  O             1.00      1 F:xyz           4
                        (      93.388 eV)
   109     109       --         3.432 au  O             1.00      1 F:z2x           4
                        (      93.388 eV)
   110     110       --         3.432 au  O             1.00      1 F:z2y           4
                        (      93.388 eV)
   111     111       --         3.432 au  O             1.00      1 F:x             4
                        (      93.388 eV)
   112     112       --         3.432 au  O             1.00      1 F:y             4
                        (      93.388 eV)
   113     113      2.000     -19.301 au  O             1.00      1 S               5
                        (    -525.210 eV)
   114     114      2.000      -0.971 au  O             1.00      2 S               5
                        (     -26.409 eV)
   115     115       --         0.840 au  O             1.00      3 S               5
                        (      22.860 eV)
   116     116       --        13.636 au  O             1.00      4 S               5
                        (     371.062 eV)
   117     117       --       123.736 au  O             1.00      5 S               5
                        (    3367.024 eV)
   118     118      1.333      -0.361 au  O             1.00      1 P:x             5
                        (      -9.826 eV)
   119     119       --         0.380 au  O             1.00      2 P:x             5
                        (      10.335 eV)
   120     120       --         3.936 au  O             1.00      3 P:x             5
                        (     107.096 eV)
   121     121      1.333      -0.361 au  O             1.00      1 P:y             5
                        (      -9.826 eV)
   122     122       --         0.380 au  O             1.00      2 P:y             5
                        (      10.335 eV)
   123     123       --         3.936 au  O             1.00      3 P:y             5
                        (     107.096 eV)
   124     124      1.333      -0.361 au  O             1.00      1 P:z             5
                        (      -9.826 eV)
   125     125       --         0.380 au  O             1.00      2 P:z             5
                        (      10.335 eV)
   126     126       --         3.936 au  O             1.00      3 P:z             5
                        (     107.096 eV)
   127     127       --         1.117 au  O             1.00      1 D:z2            5
                        (      30.395 eV)
   128     128       --         1.117 au  O             1.00      1 D:x2-y2         5
                        (      30.395 eV)
   129     129       --         1.117 au  O             1.00      1 D:xy            5
                        (      30.395 eV)
   130     130       --         1.117 au  O             1.00      1 D:xz            5
                        (      30.395 eV)
   131     131       --         1.117 au  O             1.00      1 D:yz            5
                        (      30.395 eV)
   132     132       --         3.432 au  O             1.00      1 F:z3            5
                        (      93.388 eV)
   133     133       --         3.432 au  O             1.00      1 F:z             5
                        (      93.388 eV)
   134     134       --         3.432 au  O             1.00      1 F:xyz           5
                        (      93.388 eV)
   135     135       --         3.432 au  O             1.00      1 F:z2x           5
                        (      93.388 eV)
   136     136       --         3.432 au  O             1.00      1 F:z2y           5
                        (      93.388 eV)
   137     137       --         3.432 au  O             1.00      1 F:x             5
                        (      93.388 eV)
   138     138       --         3.432 au  O             1.00      1 F:y             5
                        (      93.388 eV)
   139     139      1.000      -0.244 au  H             1.00      1 S               6
                        (      -6.641 eV)
   140     140       --         0.104 au  H             1.00      2 S               6
                        (       2.836 eV)
   141     141       --         1.564 au  H             1.00      3 S               6
                        (      42.568 eV)
   142     142       --         0.436 au  H             1.00      1 P:x             6
                        (      11.864 eV)
   143     143       --         0.436 au  H             1.00      1 P:y             6
                        (      11.864 eV)
   144     144       --         0.436 au  H             1.00      1 P:z             6
                        (      11.864 eV)
   145     145       --         2.618 au  H             1.00      1 D:z2            6
                        (      71.229 eV)
   146     146       --         2.618 au  H             1.00      1 D:x2-y2         6
                        (      71.229 eV)
   147     147       --         2.618 au  H             1.00      1 D:xy            6
                        (      71.229 eV)
   148     148       --         2.618 au  H             1.00      1 D:xz            6
                        (      71.229 eV)
   149     149       --         2.618 au  H             1.00      1 D:yz            6
                        (      71.229 eV)
   150     150      1.000      -0.244 au  H             1.00      1 S               7
                        (      -6.641 eV)
   151     151       --         0.104 au  H             1.00      2 S               7
                        (       2.836 eV)
   152     152       --         1.564 au  H             1.00      3 S               7
                        (      42.568 eV)
   153     153       --         0.436 au  H             1.00      1 P:x             7
                        (      11.864 eV)
   154     154       --         0.436 au  H             1.00      1 P:y             7
                        (      11.864 eV)
   155     155       --         0.436 au  H             1.00      1 P:z             7
                        (      11.864 eV)
   156     156       --         2.618 au  H             1.00      1 D:z2            7
                        (      71.229 eV)
   157     157       --         2.618 au  H             1.00      1 D:x2-y2         7
                        (      71.229 eV)
   158     158       --         2.618 au  H             1.00      1 D:xy            7
                        (      71.229 eV)
   159     159       --         2.618 au  H             1.00      1 D:xz            7
                        (      71.229 eV)
   160     160       --         2.618 au  H             1.00      1 D:yz            7
                        (      71.229 eV)
   161     161      1.000      -0.244 au  H             1.00      1 S               8
                        (      -6.641 eV)
   162     162       --         0.104 au  H             1.00      2 S               8
                        (       2.836 eV)
   163     163       --         1.564 au  H             1.00      3 S               8
                        (      42.568 eV)
   164     164       --         0.436 au  H             1.00      1 P:x             8
                        (      11.864 eV)
   165     165       --         0.436 au  H             1.00      1 P:y             8
                        (      11.864 eV)
   166     166       --         0.436 au  H             1.00      1 P:z             8
                        (      11.864 eV)
   167     167       --         2.618 au  H             1.00      1 D:z2            8
                        (      71.229 eV)
   168     168       --         2.618 au  H             1.00      1 D:x2-y2         8
                        (      71.229 eV)
   169     169       --         2.618 au  H             1.00      1 D:xy            8
                        (      71.229 eV)
   170     170       --         2.618 au  H             1.00      1 D:xz            8
                        (      71.229 eV)
   171     171       --         2.618 au  H             1.00      1 D:yz            8
                        (      71.229 eV)



 ================================
 (Slater-type)  F U N C T I O N S  ***  (Basis and Fit)  ***
 ================================
  

 Atom Type    1  (P)
 ==============

 Valence Basis Sets:  14
 -----------------------
   1 S   18.000000
   1 S   13.350000
   2 S    5.600000
   2 S    4.050000
   2 P    7.450000
   2 P    4.100000
   3 S    2.700000
   3 S    1.850000
   3 S    1.300000
   3 P    2.300000
   3 P    1.350000
   3 P    0.850000
   3 D    1.900000
   4 F    2.000000

 Charge Fitting Sets (for the computation of the Coulomb Potential):  30
 -----------------------------------------------------------------------
   1 S   36.000000
   1 S   21.450000
   2 S   23.670000
   2 S   15.860000
   3 S   15.600000
   3 S   11.130000
   3 S    7.940000
   4 S    7.490000
   4 S    5.560000
   4 S    4.130000
   5 S    3.810000
   5 S    2.910000
   5 S    2.230000
   5 S    1.700000
   2 P   25.450000
   3 P   18.490000
   4 P   13.440000
   4 P    7.810000
   5 P    5.730000
   5 P    3.510000
   5 P    2.150000
   3 D   19.350000
   4 D   13.230000
   4 D    7.250000
   5 D    5.040000
   5 D    2.930000
   5 D    1.700000
   4 F    5.000000
   4 F    3.000000
   5 G    3.750000

 Atom Type    2  (O)
 ==============

 Valence Basis Sets:  10
 -----------------------
   1 S    9.800000
   1 S    6.800000
   2 S    7.580000
   2 S    2.880000
   2 S    1.720000
   2 P    4.080000
   2 P    2.080000
   2 P    1.120000
   3 D    2.000000
   4 F    3.000000

 Charge Fitting Sets (for the computation of the Coulomb Potential):  22
 -----------------------------------------------------------------------
   1 S   19.600000
   2 S   22.600000
   2 S   15.680000
   2 S   10.890000
   2 S    7.560000
   3 S    7.690000
   3 S    5.650000
   3 S    4.150000
   3 S    3.050000
   3 S    2.240000
   2 P   12.860000
   2 P    7.680000
   3 P    6.780000
   3 P    4.390000
   3 P    2.840000
   3 D    8.800000
   3 D    5.580000
   3 D    3.530000
   3 D    2.240000
   4 F    6.200000
   4 F    3.700000
   5 G    4.500000

 Atom Type    3  (H)
 ==============

 Valence Basis Sets:   5
 -----------------------
   1 S    0.690000
   1 S    0.920000
   1 S    1.580000
   2 P    1.250000
   3 D    2.500000

 Charge Fitting Sets (for the computation of the Coulomb Potential):  11
 -----------------------------------------------------------------------
   1 S    3.160000
   1 S    2.090000
   1 S    1.380000
   2 S    1.500000
   2 P    4.000000
   2 P    2.650000
   2 P    1.750000
   3 D    4.000000
   3 D    2.500000
   4 F    3.000000
   5 G    4.000000


 BAS: List of all Elementary Cartesian Basis Functions
 =====================================================

 The numbering in the list below (to the right of the function characteristics) is referred
 to in print-outs of MO eigenvectors and Mulliken populations in the BAS representation
 (as contrasted to the SFO representation).

 Notes:
 1. The functions are characterized by a polynomial prefactor (powers of x,y,z and r) and
    an exponential decay factor alpha.
 2. Since the basis sets are specific for an atom TYPE, the individual functions occur on
    all atoms of that type.
 3. The word 'Core' in the left margin signals that it is a Core Function (CF) : not a
    degree of freedom in the valence set, but only used to ensure orthogonalization of
    the other valence basis functions on the frozen Core Orbitals.


 (power of) X  Y  Z  R     Alpha  on Atom
            ==========     =====     ==========

 P                                    1
                                  ---------------------------------------------------------------------------
            0  0  0  0    18.000      1
            0  0  0  0    13.350      2
            0  0  0  1     5.600      3
            0  0  0  1     4.050      4
            1  0  0  0     7.450      5
            0  1  0  0     7.450      6
            0  0  1  0     7.450      7
            1  0  0  0     4.100      8
            0  1  0  0     4.100      9
            0  0  1  0     4.100     10
            0  0  0  2     2.700     11
            0  0  0  2     1.850     12
            0  0  0  2     1.300     13
            1  0  0  1     2.300     14
            0  1  0  1     2.300     15
            0  0  1  1     2.300     16
            1  0  0  1     1.350     17
            0  1  0  1     1.350     18
            0  0  1  1     1.350     19
            1  0  0  1     0.850     20
            0  1  0  1     0.850     21
            0  0  1  1     0.850     22
            2  0  0  0     1.900     23
            1  1  0  0     1.900     24
            1  0  1  0     1.900     25
            0  2  0  0     1.900     26
            0  1  1  0     1.900     27
            0  0  2  0     1.900     28
            3  0  0  0     2.000     29
            2  1  0  0     2.000     30
            2  0  1  0     2.000     31
            1  2  0  0     2.000     32
            1  1  1  0     2.000     33
            1  0  2  0     2.000     34
            0  3  0  0     2.000     35
            0  2  1  0     2.000     36
            0  1  2  0     2.000     37
            0  0  3  0     2.000     38

 O                                    2    3    4    5
                                  ---------------------------------------------------------------------------
            0  0  0  0     9.800     39   69   99  129
            0  0  0  0     6.800     40   70  100  130
            0  0  0  1     7.580     41   71  101  131
            0  0  0  1     2.880     42   72  102  132
            0  0  0  1     1.720     43   73  103  133
            1  0  0  0     4.080     44   74  104  134
            0  1  0  0     4.080     45   75  105  135
            0  0  1  0     4.080     46   76  106  136
            1  0  0  0     2.080     47   77  107  137
            0  1  0  0     2.080     48   78  108  138
            0  0  1  0     2.080     49   79  109  139
            1  0  0  0     1.120     50   80  110  140
            0  1  0  0     1.120     51   81  111  141
            0  0  1  0     1.120     52   82  112  142
            2  0  0  0     2.000     53   83  113  143
            1  1  0  0     2.000     54   84  114  144
            1  0  1  0     2.000     55   85  115  145
            0  2  0  0     2.000     56   86  116  146
            0  1  1  0     2.000     57   87  117  147
            0  0  2  0     2.000     58   88  118  148
            3  0  0  0     3.000     59   89  119  149
            2  1  0  0     3.000     60   90  120  150
            2  0  1  0     3.000     61   91  121  151
            1  2  0  0     3.000     62   92  122  152
            1  1  1  0     3.000     63   93  123  153
            1  0  2  0     3.000     64   94  124  154
            0  3  0  0     3.000     65   95  125  155
            0  2  1  0     3.000     66   96  126  156
            0  1  2  0     3.000     67   97  127  157
            0  0  3  0     3.000     68   98  128  158

 H                                    6    7    8
                                  ---------------------------------------------------------------------------
            0  0  0  0     0.690    159  171  183
            0  0  0  0     0.920    160  172  184
            0  0  0  0     1.580    161  173  185
            1  0  0  0     1.250    162  174  186
            0  1  0  0     1.250    163  175  187
            0  0  1  0     1.250    164  176  188
            2  0  0  0     2.500    165  177  189
            1  1  0  0     2.500    166  178  190
            1  0  1  0     2.500    167  179  191
            0  2  0  0     2.500    168  180  192
            0  1  1  0     2.500    169  181  193
            0  0  2  0     2.500    170  182  194

 Total number of charge fitting functions (nprimf)       592
 Total number of Cartesian basis functions (naos)        194
 Total number of Cartesian core functions  (ncos)          0

1
 ***************************************************************************************************



                                              ***********************
                                              *  T E C H N I C A L  *
                                              ***********************
  



 =============================================================
 P A R A L L E L I Z A T I O N  and  V E C T O R I Z A T I O N
 =============================================================
  
 Nr of parallel processes:                                4
 Maximum vector length in NumInt loops:                 128



 =====================
 S C F   U P D A T E S
 =====================
  
 Max. nr. of cycles:                               300
 Convergence criterion:                              0.0000010000
   secondary criterion:                              0.0010000000

 Mix parameter (when DIIS does not apply):           0.2000000000
 Mixed ADIIS+SDIIS will be used                  
    Max number of expansion vectors:                10
    Pure ADIIS when Max([F,P]) is above              0.1000000000
    Pure SDIIS when Max([F,P]) is below              0.0010000000
 Automatic ElectronSmearing (in case of problematic SCF convergence) disabled



 =================
 P R E C I S I O N  ***  (General: NumInt, NeglectFunctionTails, ...)  ***
 =================
  

 NumInt:           Target precision:                 6.0000000000
 -------           Initial precision:                6.0000000000
                   Min. precision (optimization):    6.0000000000

 Neglect Functions:          Basis functions:        0.1000000000E-07
 ------------------          Fit functions:          0.1000000000E-07



 ===========================
 L I N E A R   S C A L I N G
 ===========================
  

 Cut-off radii density fit:                        0.1000000000E-09
 Overlap cut-off criterion AO matrix elements:     0.1000000000E-07
 Cut-offs for Coulomb potential and fitted density:0.1000000000E-09
 Cut-off criterion for Coulomb multipole terms:    0.1000000000E-09
 Progressive Convergence parameter:                 0.000000000    

 Number of elements of the density matrix on this node (used, total):      4860     18915



 ===========================================
 Numerical Integration : Fuzzy Cells (Becke)
 ===========================================
  
 Becke grid quality: GOOD           
  
 Lebedev angular grid order:             min:  11 max:  31
 Nr. of radial points:                   min:  54 max:  76

 Total nr. of points:     101647
 Nr. of blocks:              795
 Block length:               128
 Nr. of dummy points:        113


 Test of Precision of the Numerical Integration Grid
 ===================================================

 Integral of the Total Core Density:                   0.00000000000000


 -------------------------------------------
  COSMO surface
  Area             =          348.697
  Volume           =          504.700
  Number of Points =          983
 -------------------------------------------



 ========================
 Density Fitting (zlmFit)
 ========================
  
 ZlmFit Fit Quality: GOOD           
  
 Max L-expansion:                        min:   8 max:   9
 Nr. of radial interpolation points:     min:  78 max: 126



 ======================
 RI Hartree-Fock Scheme
 ======================
  
 Fit Set Quality     : GOOD
 Integration Quality : GOOD
 Threshold Quality   : GOOD
 Response Quality    : DEFAULT
 Is Range Separated  :  F
 
 RIHartreeFock Dependency: number of modified vectors:           3



 =====
 S C F  ***  ScaSCF  ***
 =====
  
 Initial density matrix is taken from previous geometry

 CYCLE    1
  ***********************************************************
  ** : orbital data taken from :/tmp/amstmp_ams_kid0.410397985/GOStep4.rkf
  ***********************************************************
 SCF Error: norm([F,P])=      0.085107689921, max([F,P])=      0.020853624392
 orbitals (Q,E):
 ---------------
 A :16...35          ( 2.00    -0.5814)  ( 2.00    -0.4804)  ( 2.00    -0.4471)  ( 2.00    -0.4471)
                     ( 2.00    -0.3992)  ( 2.00    -0.3992)  ( 2.00    -0.3779)  ( 2.00    -0.3603)
                     ( 2.00    -0.2975)  ( 2.00    -0.2975)  ( 0.00    -0.0282)  ( 0.00     0.0114)
                     ( 0.00     0.0114)  ( 0.00     0.0964)  ( 0.00     0.1154)  ( 0.00     0.1154)
                     ( 0.00     0.1307)  ( 0.00     0.1568)  ( 0.00     0.1574)  ( 0.00     0.1574)

 CYCLE    2
  SDIIS (wt  0.000):  0.6419  0.3581
 A-DIIS (wt  1.000):  0.6571  0.3429
  DIIS coefficients:  0.6571  0.3429
 SCF Error: norm([F,P])=      0.144891198570, max([F,P])=      0.043603536353
 orbitals (Q,E):
 ---------------
 A :16...26          ( 2.00    -0.5765)  ( 2.00    -0.4857)  ( 2.00    -0.4467)  ( 2.00    -0.4467)
                     ( 2.00    -0.3977)  ( 2.00    -0.3977)  ( 2.00    -0.3868)  ( 2.00    -0.3651)
                     ( 2.00    -0.3131)  ( 2.00    -0.3131)  ( 0.00    -0.0212)

 CYCLE    3
  SDIIS (wt  0.000):  0.4454  0.1450  0.4097
 A-DIIS (wt  1.000):  0.3286  0.0000  0.6714
  DIIS coefficients:  0.3286  0.0000  0.6714
 SCF Error: norm([F,P])=      0.057999849622, max([F,P])=      0.014151224403
 orbitals (Q,E):
 ---------------
 A :16...26          ( 2.00    -0.5737)  ( 2.00    -0.4865)  ( 2.00    -0.4461)  ( 2.00    -0.4461)
                     ( 2.00    -0.3964)  ( 2.00    -0.3964)  ( 2.00    -0.3879)  ( 2.00    -0.3640)
                     ( 2.00    -0.3131)  ( 2.00    -0.3131)  ( 0.00    -0.0148)

 CYCLE    4
  SDIIS (wt  0.866): -0.3504  0.2366  1.1138
 A-DIIS (wt  0.134):  0.0000  0.0000  1.0000
  DIIS coefficients: -0.3035  0.2049  1.0986
 SCF Error: norm([F,P])=      0.045308055990, max([F,P])=      0.014245548965
 orbitals (Q,E):
 ---------------
 A :16...26          ( 2.00    -0.5696)  ( 2.00    -0.4907)  ( 2.00    -0.4451)  ( 2.00    -0.4451)
                     ( 2.00    -0.3957)  ( 2.00    -0.3941)  ( 2.00    -0.3941)  ( 2.00    -0.3619)
                     ( 2.00    -0.3236)  ( 2.00    -0.3236)  ( 0.00    -0.0089)

 CYCLE    5
  SDIIS (wt  0.960): -0.1220 -0.0525  0.5894  0.5851
 A-DIIS (wt  0.040):  0.0000  0.0000  0.0000  1.0000
  DIIS coefficients: -0.1172 -0.0504  0.5659  0.6017
 SCF Error: norm([F,P])=      0.022079709098, max([F,P])=      0.004947028717
 orbitals (Q,E):
 ---------------
 A :16...26          ( 2.00    -0.5714)  ( 2.00    -0.4908)  ( 2.00    -0.4464)  ( 2.00    -0.4464)
                     ( 2.00    -0.3957)  ( 2.00    -0.3957)  ( 2.00    -0.3953)  ( 2.00    -0.3637)
                     ( 2.00    -0.3223)  ( 2.00    -0.3223)  ( 0.00    -0.0091)

 CYCLE    6
  SDIIS (wt  1.000):  0.0010 -0.0569  0.0864  0.3108  0.6587
  DIIS coefficients:  0.0010 -0.0569  0.0864  0.3108  0.6587
 SCF Error: norm([F,P])=      0.006285351111, max([F,P])=      0.000987119706
 orbitals (Q,E):
 ---------------
 A :16...26          ( 2.00    -0.5710)  ( 2.00    -0.4906)  ( 2.00    -0.4461)  ( 2.00    -0.4461)
                     ( 2.00    -0.3953)  ( 2.00    -0.3953)  ( 2.00    -0.3951)  ( 2.00    -0.3632)
                     ( 2.00    -0.3222)  ( 2.00    -0.3222)  ( 0.00    -0.0089)

 CYCLE    7
  SDIIS (wt  1.000):  0.0009  0.0014 -0.0098  0.0129  0.0593  0.9353
  DIIS coefficients:  0.0009  0.0014 -0.0098  0.0129  0.0593  0.9353
 SCF Error: norm([F,P])=      0.000523550646, max([F,P])=      0.000131338450
 orbitals (Q,E):
 ---------------
 A :16...26          ( 2.00    -0.5710)  ( 2.00    -0.4906)  ( 2.00    -0.4461)  ( 2.00    -0.4461)
                     ( 2.00    -0.3953)  ( 2.00    -0.3953)  ( 2.00    -0.3951)  ( 2.00    -0.3632)
                     ( 2.00    -0.3222)  ( 2.00    -0.3222)  ( 0.00    -0.0089)

 CYCLE    8
  SDIIS (wt  1.000):  0.0001  0.0003 -0.0012 -0.0010  0.0012  0.1076  0.8930
  DIIS coefficients:  0.0001  0.0003 -0.0012 -0.0010  0.0012  0.1076  0.8930
 SCF Error: norm([F,P])=      0.000042904201, max([F,P])=      0.000008375820
 orbitals (Q,E):
 ---------------
 A :16...26          ( 2.00    -0.5710)  ( 2.00    -0.4906)  ( 2.00    -0.4461)  ( 2.00    -0.4461)
                     ( 2.00    -0.3953)  ( 2.00    -0.3953)  ( 2.00    -0.3951)  ( 2.00    -0.3632)
                     ( 2.00    -0.3222)  ( 2.00    -0.3222)  ( 0.00    -0.0089)

 CYCLE    9
  SDIIS (wt  1.000):  0.0000 -0.0000  0.0000 -0.0006 -0.0012 -0.0026  0.1987  0.8056
  DIIS coefficients:  0.0000 -0.0000  0.0000 -0.0006 -0.0012 -0.0026  0.1987  0.8056
 SCF Error: norm([F,P])=      0.000009732050, max([F,P])=      0.000001787353
 orbitals (Q,E):
 ---------------
 A :16...26          ( 2.00    -0.5710)  ( 2.00    -0.4906)  ( 2.00    -0.4461)  ( 2.00    -0.4461)
                     ( 2.00    -0.3953)  ( 2.00    -0.3953)  ( 2.00    -0.3951)  ( 2.00    -0.3632)
                     ( 2.00    -0.3222)  ( 2.00    -0.3222)  ( 0.00    -0.0089)

 CYCLE   10
  SDIIS (wt  1.000):  0.0000 -0.0000  0.0000 -0.0002 -0.0006 -0.0043  0.0596  0.3493  0.5962
  DIIS coefficients:  0.0000 -0.0000  0.0000 -0.0002 -0.0006 -0.0043  0.0596  0.3493  0.5962
 SCF Error: norm([F,P])=      0.000003530615, max([F,P])=      0.000000520709
 orbitals (Q,E):
 ---------------
 A :16...26          ( 2.00    -0.5710)  ( 2.00    -0.4906)  ( 2.00    -0.4461)  ( 2.00    -0.4461)
                     ( 2.00    -0.3953)  ( 2.00    -0.3953)  ( 2.00    -0.3951)  ( 2.00    -0.3632)
                     ( 2.00    -0.3222)  ( 2.00    -0.3222)  ( 0.00    -0.0089)

 SCF CONVERGED
 cosmo_calcen: 0.5 (esolb+esolc) (Hartrees) =   -0.029701

 Solvation energy (screening term,uncorrected) =    -18.637408 kcal/mol

 Solvation energy (dispersion and cavitation terms) =      0.652037 kcal/mol
 Solvation Energy Contributions (Hartrees)
          esola   esolb+esolc
     0.02970060   -0.05940119
 esol last cycle   -0.02970060

 CYCLE   11
1
 ***************************************************************************************************



                                                *******************
                                                *  R E S U L T S  *
                                                *******************
  
  
 Hartree-Fock exchange energy:   -56.8143890645706     
 *** Using FIT density in Focky
  SDIIS (wt  1.000):  0.0000 -0.0000  0.0000 -0.0000 -0.0001 -0.0013  0.0017  0.0498  0.1674  0.7825
  DIIS coefficients:  0.0000 -0.0000  0.0000 -0.0000 -0.0001 -0.0013  0.0017  0.0498  0.1674  0.7825
 SCF Error: norm([F,P])=      0.000000673961, max([F,P])=      0.000000124713

 Orbital Energies, per Irrep and Spin:
 ======================================
                        Occup              E (au)              E (eV)       Diff (eV) with prev. cycle
                        -----      --------------------        ------       --------------------------
 A
              16        2.000     -0.57102052239323E+00       -15.538              -5.44E-07
              17        2.000     -0.49060345480197E+00       -13.350               9.83E-08
              18        2.000     -0.44608140540127E+00       -12.138               9.39E-07
              19        2.000     -0.44607236557978E+00       -12.138              -5.29E-07
              20        2.000     -0.39530500190096E+00       -10.757               2.70E-07
              21        2.000     -0.39528527159262E+00       -10.756              -1.35E-08
              22        2.000     -0.39512980055718E+00       -10.752               3.30E-08
              23        2.000     -0.36323125561660E+00        -9.884               1.07E-07
              24        2.000     -0.32222266310494E+00        -8.768               6.74E-08
              25        2.000     -0.32221796174008E+00        -8.768              -5.08E-08
              26        0.000     -0.89336090156981E-02        -0.243
              27        0.000      0.37366738791167E-01         1.017
              28        0.000      0.37385999037205E-01         1.017
              29        0.000      0.85377641493728E-01         2.323
              30        0.000      0.12436433415556E+00         3.384
              31        0.000      0.12439656243341E+00         3.385
              32        0.000      0.13322637218400E+00         3.625
              33        0.000      0.15856876419801E+00         4.315
              34        0.000      0.15858158159162E+00         4.315
              35        0.000      0.16613531412885E+00         4.521
  
 HOMO :       25 A                -0.32221796174008E+00
 LUMO :       26 A                -0.89336090156981E-02
  
 cosmo_calcen: 0.5 (esolb+esolc) (Hartrees) =   -0.029701

 Solvation energy (screening term,uncorrected) =    -18.637408 kcal/mol

 Solvation energy (dispersion and cavitation terms) =      0.652037 kcal/mol
 Solvation Energy Contributions (Hartrees)
          esola   esolb+esolc
     0.02970060   -0.05940120
 esol last cycle   -0.02970060


 All Electron Calculation, thus no Orbital Energies of the Core Orbitals are calculated


 Fit test: (difference of exact and fit density, squared integrated, result summed over spins)
         Sum-of-Fragments:                             0.00000000403202
         Orthogonalized Fragments:                     0.00003204024436
         SCF:                                          0.00001822353726



 ==========================
 Electron Density at Nuclei
 ==========================
  
 The electron density is calculated at points on a small sphere around the center of a nucleus.
 The printed electron density is the average electron density on these points.
 The radius of the sphere is the printed approximate finite nuclear radius.

         Atom        Nuclear Radius (Angstrom)             Electron Density (a.u.)
         ----        -------------------------             -----------------------
     1)   P                 0.0000412627                             2176.14381
     2)   O                 0.0000345546                              310.14449
     3)   O                 0.0000345546                              310.14504
     4)   O                 0.0000345546                              310.14428
     5)   O                 0.0000345546                              310.43402
     6)   H                 0.0000181514                                0.45009
     7)   H                 0.0000181514                                0.45009
     8)   H                 0.0000181514                                0.45011



 =======================================
 M U L L I K E N   P O P U L A T I O N S
 =======================================
  
 The survey below gives for each atom:
 a) the total charge (Z minus electrons)
 b) the net spin polarization (nr of electrons spin-A minus spin-B)
 c) for each spin the atomic electron valence density (integrated) per L-value.

 Atom              Charge    Spin density          S         P         D         F
 ----              ------    ------------       ------    ------    ------    ------
 1 P               1.6986                       4.7526    7.5552    0.8343    0.1593
 2 O              -0.5471                       3.7383    4.7633    0.0415    0.0041
 3 O              -0.5472                       3.7383    4.7633    0.0415    0.0041
 4 O              -0.5474                       3.7383    4.7635    0.0415    0.0041
 5 O              -0.8115                       3.8123    4.9527    0.0425    0.0040
 6 H               0.2514                       0.6234    0.1126    0.0126    0.0000
 7 H               0.2515                       0.6234    0.1125    0.0126    0.0000
 8 H               0.2516                       0.6232    0.1125    0.0126    0.0000

 Populations of individual BAS functions
 ----------------------------------------
 1 P            0.5110  1.4531  1.3779  0.6439  0.7903  0.7903  0.7931  1.2120  1.2120  1.2089
                0.3573  0.6024 -0.1929  0.3559  0.3559  0.3893  0.2219  0.2219  0.1611 -0.0668
               -0.0668 -0.0239  0.0908  0.1407  0.1922  0.0908  0.1922  0.1275  0.0062  0.0173
                0.0075  0.0121  0.0202  0.0321  0.0080  0.0075  0.0321  0.0162
 2 O            0.6152  1.3677 -0.0111  0.9956  0.7709  0.2375  0.3030  0.2950  0.8846  0.9651
                0.9460  0.1723  0.4920  0.4678  0.0307  0.0095  0.0141 -0.0127  0.0070 -0.0071
                0.0098  0.0110  0.0107 -0.0062  0.0007 -0.0026 -0.0096 -0.0036 -0.0002 -0.0058
 3 O            0.6152  1.3677 -0.0111  0.9956  0.7710  0.2933  0.2472  0.2950  0.9540  0.8957
[...]
 Rank   Node Name                              NodeID   MyNodeRank  NodeMaster
    0   ubuntu-kch                                0          0          0
    1   ubuntu-kch                                0          1         -1
    2   ubuntu-kch                                0          2         -1
    3   ubuntu-kch                                0          3         -1
 ==============================================================================


May use up to 7570MB of RAM as shared memory on node 0
 
NMR
    out    iso    tens
    adfgui
    Atoms 1
    u1k best
    calc all
End

 *******************************************************************************
 *                                                                             *
 *  --------------------------------                                           *
 *   Amsterdam Modeling Suite (AMS)              2020.202                      *
 *  --------------------------------                                           *
 *                                               r90167 2020-12-05             *
 *                                                                             *
 *                                                                             *
 *                              =================                              *
 *                              |               |                              *
 *                              |     N M R     |                              *
 *                              |               |                              *
 *                              =================                              *
 *                                                                             *
 *                                                                             *
 *   Online information and documentation:  https://www.scm.com/support/       *
 *   E-mail:  support@scm.com   info@scm.com                                   *
 *                                                                             *
 *   Scientific publications using AMS results must be properly referenced     *
 *   See the User Manuals (or the web site) for recommended citations          *
 *   The terms and conditions of the End User License Agreement apply to       *
 *   the use of AMS, https://www.scm.com/license-terms/                        *
 *                                                                             *
 **********************  x86_64_linux_intel / intelmpi  ************************
 
 Licensed to: Dr. Miroslav Ilias / Matej Bel University, Department Chemistry, Fac. Natural Sciences / Banska Bystrica / SLOVAKIA
 SCM User ID: u17848
  
 NMR 2020.202  RunTime: Mar08-2021 19:45:37  Nodes: 1  Procs: 4

 Temporary files are created in /tmp/kid_0.1458727627 (0xEF53)


 Communication costs MPI_COMM_WORLD:      0.371 usec per message,   0.0042 usec per 8-byte item
 Communication costs for intra-node:      0.382 usec per message,   0.0045 usec per 8-byte item




 ======================
 RI Hartree-Fock Scheme
 ======================
  
 Fit Set Quality     : GOOD
 Integration Quality : GOOD
 Threshold Quality   : GOOD
 Response Quality    : DEFAULT
 Is Range Separated  :  F
 
 RIHartreeFock Dependency: number of modified vectors:           0
                    
                      **********************************    
                      ||******************************||    
                      ||                              ||    
                      ||  ##   ##  ###  ###  ######   ||    
                      ||  ###  ##  ########  ##   ##  ||    
                      ||  #### ##  ## ## ##  ######   ||    
                      ||  ## ####  ##    ##  ## ##    ||    
                      ||  ##  ###  ##    ##  ##  ##   ||    
                      ||  ##   ##  ##    ##  ##   ##  ||    
                      ||                              ||    
                      | ****************************** |    
                      **********************************    
                    
                            Written for ADF by              
                    
                    Stephen K. Wolff & Georg Schreckenbach  
                    
                      The research group of Tom Ziegler     
                            University of Calgary           
                               Alberta, Canada              
                    
                      Speedups, NBO analysis, g-tensors,    
                       full ZORA SO, and other goodies by   
                         Jochen Autschbach, SUNY Buffalo
                    
 =============================
 NMR Chemical shift References
 =============================
  
 Lead:
 G. Schreckenbach, T. Ziegler, J. Phys. Chem. 99 (1995) 606
  
 Speed-ups:
 J. Autschbach, E. Zurek, J. Phys. Chem. A 107 (2003), 4967
  
 Hybrids:
 M. Krykunov, T. Ziegler, E. van Lenthe, Int. J. of Quantum Chem. 109, 1676 (2009)
  
 Spin-orbit coupling:
 S.K. Wolff, T. Ziegler, E. van Lenthe, E.J. Baerends, J. Chem. Phys. 110, 7689 (1999)
 J. Autschbach, Mol. Phys. 111 (2013), 2544
  
 Paramagnetic:
 J. Autschbach, S. Patchkovskii, B. Pritchard, J. Chem. Theory Comput. 7, 2175 (2011)
  
 NBO analysis:
 J. Autschbach, J. Chem. Phys. 128 (2008), 164112
 J. Autschbach, S. Zheng, Magn. Reson. Chem. 46 (2008), S48
  
 Suggested:
 G. Schreckenbach, T. Ziegler, Int. J. Quantum Chem. 60, 753 (1996)
 G. Schreckenbach, T. Ziegler, Int. J. Quantum Chem. 61 (1997) 899
 S.K. Wolff, T. Ziegler, J. Chem. Phys. 109 (1998) 895
  
 =======================
 ESR g-tensor References
 =======================
  
 Lead:
 J. Autschbach, B. Pritchard, Theor. Chem. Acc. 129 (2011), 453
  
 Suggested:
 G. Schreckenbach, T. Ziegler, J. Phys. Chem. A 101, 3388 (1997)
 
################################################################################
 
 
################################################################################
 
 
              <><><><><><><><><><><><><><><><><><><><><><><><><>
 
                 GENERAL ADF INFORMATION:
                 ------------------------
 
                 TITLE:    *** adf ***                                  
 JOB ID:      410397985
                 NONLXC:                                                
                 SYMMETRY: NOSYM                                        
                  
                 IOPREL:   0
                 ------>  non-rel. (Re MOs)
 
              <><><><><><><><><><><><><><><><><><><><><><><><><>
 
              ==================================================
 
                 NUCLEAR COORDINATES (ANGSTROMS):
                 --------------------------------
 
                 P  (  1):      -0.0000     -0.0000     -0.1687
                 O  (  2):      -1.3803     -0.3551      0.5230
                 O  (  3):       0.9977     -1.0179      0.5230
                 O  (  4):       0.3826      1.3729      0.5230
                 O  (  5):      -0.0000     -0.0000     -1.6433
                 H  (  6):      -2.1559      0.0198      0.0810
                 H  (  7):       1.0608     -1.8769      0.0810
                 H  (  8):       1.0951      1.8571      0.0810
 
              ==================================================
 
              <><><><><><><><><><><><><><><><><><><><><><><><><>
 
                 NUMBERS:
                 --------
 
                 number of electrons:     50.00
 
                 ---   AOs   ---          ---   MOs   ---
                 ncor =     0             nocc =    25
                 nval =   194             nvir =   146
                 nbas =   194             nmo  =   171
                 naos =   194             nsot =   171
              ==================================================
                  
                 --------------------------
                     ATOM TYPE: P                        
                 --------------------------
                 === BASIS
                   1S   18.00     VALENCE
                   1S   13.35     VALENCE
                   2S    5.60     VALENCE
                   2S    4.05     VALENCE
                   2P    7.45     VALENCE
                   2P    4.10     VALENCE
                   3S    2.70     VALENCE
                   3S    1.85     VALENCE
                   3S    1.30     VALENCE
                   3P    2.30     VALENCE
                   3P    1.35     VALENCE
                   3P    0.85     VALENCE
                   3D    1.90     VALENCE
                   4F    2.00     VALENCE
                  
                 --------------------------
                     ATOM TYPE: O                        
                 --------------------------
                 === BASIS
                   1S    9.80     VALENCE
                   1S    6.80     VALENCE
                   2S    7.58     VALENCE
                   2S    2.88     VALENCE
                   2S    1.72     VALENCE
                   2P    4.08     VALENCE
                   2P    2.08     VALENCE
                   2P    1.12     VALENCE
                   3D    2.00     VALENCE
                   4F    3.00     VALENCE
                  
                 --------------------------
                     ATOM TYPE: H                        
                 --------------------------
                 === BASIS
                   1S    0.69     VALENCE
                   1S    0.92     VALENCE
                   1S    1.58     VALENCE
                   2P    1.25     VALENCE
                   3D    2.50     VALENCE
                  
              ==================================================
              <><><><><><><><><><><><><><><><><><><><><><><><><>
 
                 TENSOR INFORMATION:
                 -------------------
 
                              CALC                   U1K
 
                 paramagnetic  = T     mass-velocity = F
                 diamagnetic   = T     Darwin        = F
                 Fermi-cont.   = F     Zeeman        = F
                 ZORA SO       = F     ZORA SO       = F
                 ZORA SCALE    = F     ZORA SO FULL  = F
                 ZORA SO 1C    = F     E IN U1 SCL   = F
 
              <><><><><><><><><><><><><><><><><><><><><><><><><>
 
              <><><><><><><><><><><><><><><><><><><><><><><><><>
 
                 OUTPUT SWITCHES:
                 ----------------
 
                           ISO = T                F1 = F
                          TENS = T                S1 = F
                           EIG = F                U1 = F
                           AOP = F                B1 = F
                           AOD = F                F  = F
                           AOF = F                 S = F
                          INFO = F              REFS = F
 
              <><><><><><><><><><><><><><><><><><><><><><><><><>
 
              --------------------------------------------------
 
                 CALCULATE THE POTENTIAL? F
                  
                 ---> Potential is already on TAPE10.
                      It will not be re-calculated.
 
              --------------------------------------------------



 ===========================
 L I N E A R   S C A L I N G
 ===========================
  

 Overlap cut-off criterion AO matrix elements:     0.1000000000E-07
 ========================
 STARTING A NEW SCF. Step            1
 CRIT   1.00000000000000     
 CRIT   1.00000000000000     
 CRIT   1.00000000000000     
 ========================
 STARTING A NEW SCF. Step            2
 CRIT   2.13771788412760     
 CRIT   2.14896362740089     
 CRIT   1.79754262447442     
 ========================
 STARTING A NEW SCF. Step            3
 CRIT  0.121142986127272     
 CRIT  0.121947446701916     
 CRIT  0.115715149859559     
 ========================
 STARTING A NEW SCF. Step            4
 CRIT  6.252063568078902E-003
 CRIT  6.303354434462900E-003
 CRIT  5.709358305813332E-003
 ========================
 STARTING A NEW SCF. Step            5
 CRIT  3.652848739366534E-004
 CRIT  3.683310823505936E-004
 CRIT  3.380225095893525E-004
 ========================
 STARTING A NEW SCF. Step            6
 CRIT  1.893179430559249E-005
 CRIT  1.910994138569305E-005
 CRIT  1.899497029926442E-005
 ========================
 STARTING A NEW SCF. Step            7
 CRIT  8.637627372373423E-007
 CRIT  8.719364397374666E-007
 CRIT  9.166374231396749E-007
################################################################################
********************************************************************************
****  N U C L E U S : P(1)
 
 ADF-GUI atom: P(1)
 Internal NMR numbering of atoms: P(1)
 
 
================================================================================
 
 
===  PARAMAGNETIC NMR SHIELDING TENSORS (ppm)
 
    ===     paramagnetic b^(1) tensor       ===     paramagnetic u^(1) tensor
    -----------------------------------     -----------------------------------
           0.000     0.000     0.000            -628.706    -0.021    -0.015
           0.000     0.000     0.000              -0.021  -628.707    -0.015
           0.000     0.000     0.000              -0.015    -0.015  -479.478
    -----------------------------------     -----------------------------------
              isotropic =      0.000                  isotropic =   -578.963

    ===     paramagnetic s^(1) tensor       ===     paramagnetic gauge tensor
    -----------------------------------     -----------------------------------
         -79.613     0.004     0.005              -3.855     0.000    -0.000
           0.004   -79.605     0.012               0.000    -3.856     0.000
           0.005     0.012   -49.203              -0.000     0.000    -1.942
    -----------------------------------     -----------------------------------
              isotropic =    -69.474                  isotropic =     -3.218

                        ***********************************
                        CARTESIAN AXIS REPRESENTATION

                        ==== total paramagnetic tensor
                        -----------------------------------
                            -712.174    -0.017    -0.010
                              -0.017  -712.168    -0.003
                              -0.010    -0.003  -530.622
                        -----------------------------------
                                  isotropic =   -651.655

                        ***********************************
                        -----------------------------------
                        PRINCIPAL AXIS REPRESENTATION

                        ==== Principal components:

                            -712.188  -712.154  -530.622
 
                        ==== Principal Axis System:

                              -0.771     0.637    -0.000
                              -0.637    -0.771    -0.000
                              -0.000     0.000     1.000
                        -----------------------------------
 
================================================================================
 
 
===  DIAMAGNETIC NMR SHIELDING TENSORS (ppm)
 
    ===       diamagnetic core tensor       ===    diamagnetic valence tensor
    -----------------------------------     -----------------------------------
           0.000     0.000     0.000             960.516    -0.001     0.001
           0.000     0.000     0.000              -0.001   960.515    -0.000
           0.000     0.000     0.000               0.001    -0.000   958.445
    -----------------------------------     -----------------------------------
              isotropic =      0.000                  isotropic =    959.825

                        ***********************************
                        CARTESIAN AXIS REPRESENTATION

                        ==== total diamagnetic tensor
                        -----------------------------------
                             960.516    -0.001     0.001
                              -0.001   960.515    -0.000
                               0.001    -0.000   958.445
                        -----------------------------------
                                  isotropic =    959.825

                        ***********************************
                        -----------------------------------
                        PRINCIPAL AXIS REPRESENTATION

                        ==== Principal components:

                             958.445   960.514   960.516
 
                        ==== Principal Axis System:

                              -0.000     0.457     0.889
                               0.000     0.889    -0.457
                               1.000     0.000     0.000
                        -----------------------------------
 
================================================================================
 
 
===  TOTAL NMR SHIELDING TENSOR (ppm)
 
                        ***********************************
                        CARTESIAN AXIS REPRESENTATION

                        ==== total shielding tensor
                        -----------------------------------
                             248.341    -0.018    -0.009
                              -0.018   248.347    -0.003
                              -0.009    -0.003   427.823
                        -----------------------------------
                                  isotropic =    308.170

                        ***********************************
                        -----------------------------------
                        PRINCIPAL AXIS REPRESENTATION

                        ==== Principal components:

                             248.326   248.362   427.823
 
                        ==== Principal Axis System:

                              -0.760     0.650    -0.000
                              -0.650    -0.760    -0.000
                              -0.000     0.000     1.000
                        -----------------------------------
 *******************************************************************************

                             N M R   E X I T
 NORMAL TERMINATION



 =================
 Timing Statistics
 =================
  
 Total Used :                     CPU=       30.10      System=        1.06     Elapsed=       36.61

 Calls  Section                     ( Mean, Percentage )
 ---------------------------------------------------------------------------------------------------
     3  ><      ................      0.00    0.02             0.00    0.04             0.00    0.02
     1  INIT    ................      0.69    2.29             0.03    3.28             0.77    2.10
     1  RDEIGX  ................     16.56   55.01             0.37   34.93            19.51   53.29
     1  AOF1K   ................      1.35    4.47             0.08    7.10             1.47    4.02
     1  AOPKK   ................      9.79   32.54             0.50   46.81            13.02   35.55
     1  XSIGP   ................      0.00    0.00             0.00    0.18             0.00    0.01
     1  AODKKK  ................      1.71    5.67             0.07    6.94             1.82    4.97
     1  XDV     ................      0.00    0.00             0.00    0.00             0.00    0.00
     1  XSIGD   ................      0.00    0.00             0.00    0.00             0.00    0.00
     1  EXIT PROCEDURE .........      0.00    0.00             0.01    0.71             0.01    0.03


 Currently Open Files (EXIT00)
 ====================

 Unit    Access Format  Status   Type       Ident (file)
 -------------------------------------------------------
   3      SEQ    FORM   TRANSP  NORMAL      LOGFILE
                                          ( /home/milias/work/projects/open-collection/theoretical_chemistry/projects/nmr_diplomovky/reference_compounds/phosphoric_acid/ams/b3lyp_tz2p_good/cosmo-h2o/phosporic_acid.geopt_freq_nmrshield_b3lyp_tz2p_good_cosmo-h2o.logfile )
