
     Program PWSCF v.7.4.1 starts on 11May2025 at 20: 9:32 
        Git branch: develop
        Last git commit: 95bc91b9c3ff25f565697dd77c0850e0757537c6-dirty
        Last git commit date: Sun May 11 00:26:41 2025 +0000
        Last git commit subject: Merge branch 'print-cmake-flags' into 'develop'

     This program is part of the open-source Quantum ESPRESSO suite
     for quantum simulation of materials; please cite
         "P. Giannozzi et al., J. Phys.:Condens. Matter 21 395502 (2009);
         "P. Giannozzi et al., J. Phys.:Condens. Matter 29 465901 (2017);
         "P. Giannozzi et al., J. Chem. Phys. 152 154105 (2020);
          URL http://www.quantum-espresso.org", 
     in publications or presentations arising from this work. More details at
     http://www.quantum-espresso.org/quote

     Parallel version (MPI), running on     4 processors

     MPI processes distributed on     1 nodes
     6932 MiB available memory on the printing compute node when the environment starts

     Waiting for input...
     Reading input from standard input

     Current dimensions of program PWSCF are:
     Max number of different atomic species (ntypx) = 10
     Max number of k-points (npk) =  40000
     Max angular momentum in pseudopotentials (lmaxx) =  4
     Message from routine setup:
     using ibrav=0 with symmetry is DISCOURAGED, use correct ibrav instead

     R & G space division:  proc/nbgrp/npool/nimage =       4
     Subspace diagonalization in iterative solution of the eigenvalue problem:
     a serial algorithm will be used


     Parallelization info
     --------------------
     sticks:   dense  smooth     PW     G-vecs:    dense   smooth      PW
     Min        5115    5115   1282               550353   550353   68740
     Max        5116    5116   1283               550358   550358   68741
     Sum       20461   20461   5129              2201421  2201421  274961

     Using Slab Decomposition



     bravais-lattice index     =            0
     lattice parameter (alat)  =      28.3459  a.u.
     unit-cell volume          =   22775.6289 (a.u.)^3
     number of atoms/cell      =            2
     number of atomic types    =            1
     number of electrons       =        44.00
     number of Kohn-Sham states=           26
     kinetic-energy cutoff     =      80.0000  Ry
     charge density cutoff     =     320.0000  Ry
     scf convergence threshold =      1.0E-09
     mixing beta               =       0.3000
     number of iterations used =            8  plain     mixing
     Exchange-correlation= PBE
                           (   1   4   3   4   0   0   0)

     celldm(1)=  28.345892  celldm(2)=   0.000000  celldm(3)=   0.000000
     celldm(4)=   0.000000  celldm(5)=   0.000000  celldm(6)=   0.000000

     crystal axes: (cart. coord. in units of alat)
               a(1) = (   1.000000   0.000000   0.000000 )  
               a(2) = (   0.000000   1.000000   0.000000 )  
               a(3) = (   0.000000   0.000000   1.000000 )  

     reciprocal axes: (cart. coord. in units 2 pi/alat)
               b(1) = (  1.000000  0.000000  0.000000 )  
               b(2) = (  0.000000  1.000000  0.000000 )  
               b(3) = (  0.000000  0.000000  1.000000 )  


     PseudoPot. # 1 for Fl read from file:
     .././Fl-6spd.upf
     MD5 check sum: ca0949fe2216470e740b0a32fe24c0e5
     Pseudo is Norm-conserving + core correction, Zval = 22.0
     Generated using ONCVPSP code by D. R. Hamann
     Using radial grid of 1774 points,  7 beta functions with: 
                l(1) =   0
                l(2) =   0
                l(3) =   1
                l(4) =   1
                l(5) =   2
                l(6) =   2
                l(7) =   3

     atomic species   valence    mass     pseudopotential
     Fl               22.00   289.00000     Fl( 1.00)

      8 Sym. Ops. (no inversion) found


                                    s                        frac. trans.

      isym =  1     identity                                     

 cryst.   s( 1) = (     1          0          0      )
                  (     0          1          0      )
                  (     0          0          1      )

 cart.    s( 1) = (  1.0000000  0.0000000  0.0000000 )
                  (  0.0000000  1.0000000  0.0000000 )
                  (  0.0000000  0.0000000  1.0000000 )


      isym =  2     180 deg rotation - cart. axis [0,0,1]        

 cryst.   s( 2) = (    -1          0          0      )
                  (     0         -1          0      )
                  (     0          0          1      )

 cart.    s( 2) = ( -1.0000000  0.0000000  0.0000000 )
                  (  0.0000000 -1.0000000  0.0000000 )
                  (  0.0000000  0.0000000  1.0000000 )


      isym =  3      90 deg rotation - cart. axis [0,0,-1]       

 cryst.   s( 3) = (     0         -1          0      )
                  (     1          0          0      )
                  (     0          0          1      )

 cart.    s( 3) = (  0.0000000  1.0000000  0.0000000 )
                  ( -1.0000000  0.0000000  0.0000000 )
                  (  0.0000000  0.0000000  1.0000000 )


      isym =  4      90 deg rotation - cart. axis [0,0,1]        

 cryst.   s( 4) = (     0          1          0      )
                  (    -1          0          0      )
                  (     0          0          1      )

 cart.    s( 4) = (  0.0000000 -1.0000000  0.0000000 )
                  (  1.0000000  0.0000000  0.0000000 )
                  (  0.0000000  0.0000000  1.0000000 )


      isym =  5     inv. 180 deg rotation - cart. axis [0,1,0]   

 cryst.   s( 5) = (     1          0          0      )
                  (     0         -1          0      )
                  (     0          0          1      )

 cart.    s( 5) = (  1.0000000  0.0000000  0.0000000 )
                  (  0.0000000 -1.0000000  0.0000000 )
                  (  0.0000000  0.0000000  1.0000000 )


      isym =  6     inv. 180 deg rotation - cart. axis [1,0,0]   

 cryst.   s( 6) = (    -1          0          0      )
                  (     0          1          0      )
                  (     0          0          1      )

 cart.    s( 6) = ( -1.0000000  0.0000000  0.0000000 )
                  (  0.0000000  1.0000000  0.0000000 )
                  (  0.0000000  0.0000000  1.0000000 )


      isym =  7     inv. 180 deg rotation - cart. axis [1,1,0]   

 cryst.   s( 7) = (     0         -1          0      )
                  (    -1          0          0      )
                  (     0          0          1      )

 cart.    s( 7) = (  0.0000000 -1.0000000  0.0000000 )
                  ( -1.0000000  0.0000000  0.0000000 )
                  (  0.0000000  0.0000000  1.0000000 )


      isym =  8     inv. 180 deg rotation - cart. axis [1,-1,0]  

 cryst.   s( 8) = (     0          1          0      )
                  (     1          0          0      )
                  (     0          0          1      )

 cart.    s( 8) = (  0.0000000  1.0000000  0.0000000 )
                  (  1.0000000  0.0000000  0.0000000 )
                  (  0.0000000  0.0000000  1.0000000 )


   Cartesian axes

     site n.     atom                  positions (alat units)
         1        Fl     tau(   1) = (   0.0000000   0.0000000   0.0000000  )
         2        Fl     tau(   2) = (   0.0000000   0.0000000   2.8000000  )

   Crystallographic axes

     site n.     atom                  positions (cryst. coord.)
         1        Fl     tau(   1) = (  0.0000000  0.0000000  0.0000000  )
         2        Fl     tau(   2) = (  0.0000000  0.0000000  2.8000000  )

     number of k points=     1  Gaussian smearing, width (Ry)=  0.0200
                       cart. coord. in units 2pi/alat
        k(    1) = (   0.0000000   0.0000000   0.0000000), wk =   2.0000000

                       cryst. coord.
        k(    1) = (   0.0000000   0.0000000   0.0000000), wk =   2.0000000

     Dense  grid:  2201421 G-vectors     FFT dimensions: ( 162, 162, 162)

     Dynamical RAM for                 wfc:      27.30 MB

     Dynamical RAM for     wfc (w. buffer):      27.30 MB

     Dynamical RAM for           str. fact:       8.40 MB

     Dynamical RAM for           local pot:       0.00 MB

     Dynamical RAM for          nlocal pot:      52.49 MB

     Dynamical RAM for                qrad:       2.68 MB

     Dynamical RAM for          rho,v,vnew:      99.64 MB

     Dynamical RAM for               rhoin:      33.21 MB

     Dynamical RAM for            rho*nmix:     268.73 MB

     Dynamical RAM for           G-vectors:      35.69 MB

     Dynamical RAM for          h,s,v(r/c):       0.12 MB

     Dynamical RAM for          <psi|beta>:       0.02 MB

     Dynamical RAM for                 psi:      54.59 MB

     Dynamical RAM for                hpsi:      54.59 MB

     Dynamical RAM for      wfcinit/wfcrot:      54.61 MB

     Estimated static dynamical RAM per process >     317.25 MB

     Estimated max dynamical RAM per process >     695.30 MB

     Estimated total dynamical RAM >       2.72 GB

     Initial potential from superposition of free atoms

     starting charge      43.9925, renormalised to      44.0000

     negative rho (up, down):  8.569E-04 0.000E+00
     Starting wfcs are   26 randomized atomic wfcs

     total cpu time spent up to now is        3.5 secs

     per-process dynamical memory:   343.4 Mb

     Self-consistent Calculation

     iteration #  1     ecut=    80.00 Ry     beta= 0.30
     Davidson diagonalization with overlap

---- Real-time Memory Report at c_bands before calling an iterative solver
           335 MiB given to the printing process from OS
           385 MiB allocation reported by mallinfo(arena+hblkhd)
          5761 MiB available memory on the node where the printing process lives
------------------
     ethr =  1.00E-02,  avg # of iterations =  4.0

     Threshold (ethr) on eigenvalues was too large:
     Diagonalizing with lowered threshold

     Davidson diagonalization with overlap

---- Real-time Memory Report at c_bands before calling an iterative solver
           468 MiB given to the printing process from OS
           452 MiB allocation reported by mallinfo(arena+hblkhd)
          5458 MiB available memory on the node where the printing process lives
------------------
     ethr =  7.98E-05,  avg # of iterations =  4.0

     negative rho (up, down):  4.692E-04 0.000E+00

     total cpu time spent up to now is       16.4 secs

     total energy              =    -764.07340540 Ry
     estimated scf accuracy    <       0.05107838 Ry

     iteration #  2     ecut=    80.00 Ry     beta= 0.30
     Davidson diagonalization with overlap

---- Real-time Memory Report at c_bands before calling an iterative solver
           691 MiB given to the printing process from OS
           734 MiB allocation reported by mallinfo(arena+hblkhd)
          4331 MiB available memory on the node where the printing process lives
------------------
     ethr =  1.16E-04,  avg # of iterations =  2.0

     negative rho (up, down):  1.546E-04 0.000E+00

     total cpu time spent up to now is       23.2 secs

     total energy              =    -764.07088225 Ry
     estimated scf accuracy    <       0.01437289 Ry

     iteration #  3     ecut=    80.00 Ry     beta= 0.30
     Davidson diagonalization with overlap

---- Real-time Memory Report at c_bands before calling an iterative solver
           725 MiB given to the printing process from OS
           767 MiB allocation reported by mallinfo(arena+hblkhd)
          4198 MiB available memory on the node where the printing process lives
------------------
     ethr =  3.27E-05,  avg # of iterations =  4.0

     negative rho (up, down):  7.848E-05 0.000E+00

     total cpu time spent up to now is       29.9 secs

     total energy              =    -764.07257581 Ry
     estimated scf accuracy    <       0.00077181 Ry

     iteration #  4     ecut=    80.00 Ry     beta= 0.30
     Davidson diagonalization with overlap

---- Real-time Memory Report at c_bands before calling an iterative solver
           759 MiB given to the printing process from OS
           801 MiB allocation reported by mallinfo(arena+hblkhd)
          4058 MiB available memory on the node where the printing process lives
------------------
     ethr =  1.75E-06,  avg # of iterations =  4.0

     negative rho (up, down):  8.453E-06 0.000E+00

     total cpu time spent up to now is       37.3 secs

     total energy              =    -764.07268200 Ry
     estimated scf accuracy    <       0.00020657 Ry

     iteration #  5     ecut=    80.00 Ry     beta= 0.30
     Davidson diagonalization with overlap

---- Real-time Memory Report at c_bands before calling an iterative solver
           793 MiB given to the printing process from OS
           834 MiB allocation reported by mallinfo(arena+hblkhd)
          3927 MiB available memory on the node where the printing process lives
------------------
     ethr =  4.69E-07,  avg # of iterations =  2.0

     negative rho (up, down):  4.607E-07 0.000E+00

     total cpu time spent up to now is       43.9 secs

     total energy              =    -764.07269214 Ry
     estimated scf accuracy    <       0.00002437 Ry

     iteration #  6     ecut=    80.00 Ry     beta= 0.30
     Davidson diagonalization with overlap

---- Real-time Memory Report at c_bands before calling an iterative solver
           826 MiB given to the printing process from OS
           868 MiB allocation reported by mallinfo(arena+hblkhd)
          3779 MiB available memory on the node where the printing process lives
------------------
     ethr =  5.54E-08,  avg # of iterations =  2.0

     negative rho (up, down):  3.659E-08 0.000E+00

     total cpu time spent up to now is       50.0 secs

     total energy              =    -764.07269708 Ry
     estimated scf accuracy    <       0.00000250 Ry

     iteration #  7     ecut=    80.00 Ry     beta= 0.30
     Davidson diagonalization with overlap

---- Real-time Memory Report at c_bands before calling an iterative solver
           860 MiB given to the printing process from OS
           902 MiB allocation reported by mallinfo(arena+hblkhd)
          3649 MiB available memory on the node where the printing process lives
------------------
     ethr =  5.68E-09,  avg # of iterations =  3.0

     total cpu time spent up to now is       56.7 secs

     total energy              =    -764.07269749 Ry
     estimated scf accuracy    <       0.00000141 Ry

     iteration #  8     ecut=    80.00 Ry     beta= 0.30
     Davidson diagonalization with overlap

---- Real-time Memory Report at c_bands before calling an iterative solver
           893 MiB given to the printing process from OS
           935 MiB allocation reported by mallinfo(arena+hblkhd)
          3513 MiB available memory on the node where the printing process lives
------------------
     ethr =  3.20E-09,  avg # of iterations =  2.0

     negative rho (up, down):  4.961E-08 0.000E+00

     total cpu time spent up to now is       63.2 secs

     total energy              =    -764.07269746 Ry
     estimated scf accuracy    <       0.00000045 Ry

     iteration #  9     ecut=    80.00 Ry     beta= 0.30
     Davidson diagonalization with overlap

---- Real-time Memory Report at c_bands before calling an iterative solver
           927 MiB given to the printing process from OS
           969 MiB allocation reported by mallinfo(arena+hblkhd)
          3379 MiB available memory on the node where the printing process lives
------------------
     ethr =  1.03E-09,  avg # of iterations =  3.0

     negative rho (up, down):  1.786E-08 0.000E+00

     total cpu time spent up to now is       70.4 secs

     total energy              =    -764.07269763 Ry
     estimated scf accuracy    <       0.00000030 Ry

     iteration # 10     ecut=    80.00 Ry     beta= 0.30
     Davidson diagonalization with overlap

---- Real-time Memory Report at c_bands before calling an iterative solver
           960 MiB given to the printing process from OS
          1002 MiB allocation reported by mallinfo(arena+hblkhd)
          3240 MiB available memory on the node where the printing process lives
------------------
     ethr =  6.75E-10,  avg # of iterations =  2.0

     total cpu time spent up to now is       77.0 secs

     total energy              =    -764.07269767 Ry
     estimated scf accuracy    <       0.00000001 Ry

     iteration # 11     ecut=    80.00 Ry     beta= 0.30
     Davidson diagonalization with overlap

---- Real-time Memory Report at c_bands before calling an iterative solver
           960 MiB given to the printing process from OS
          1002 MiB allocation reported by mallinfo(arena+hblkhd)
          3242 MiB available memory on the node where the printing process lives
------------------
     ethr =  2.62E-11,  avg # of iterations =  3.0

     total cpu time spent up to now is       83.9 secs

     total energy              =    -764.07269767 Ry
     estimated scf accuracy    <          1.0E-08 Ry

     iteration # 12     ecut=    80.00 Ry     beta= 0.30
     Davidson diagonalization with overlap

---- Real-time Memory Report at c_bands before calling an iterative solver
           960 MiB given to the printing process from OS
          1002 MiB allocation reported by mallinfo(arena+hblkhd)
          3239 MiB available memory on the node where the printing process lives
------------------
     ethr =  2.27E-11,  avg # of iterations =  2.0

     total cpu time spent up to now is       90.2 secs

     End of self-consistent calculation

          k = 0.0000 0.0000 0.0000 (274961 PWs)   bands (ev):

  -164.0758-164.0757 -76.6401 -76.6401 -76.6383 -76.6383 -76.4942 -76.4688
   -16.9071 -16.4653 -16.4653 -16.4261 -16.4261 -16.3741 -16.3740 -16.0639
   -16.0639 -16.0057 -15.6530 -14.2036  -3.5864  -3.3643  -3.3643  -1.7550
    -1.7550  -0.6017

     occupation numbers 
     1.0000   1.0000   1.0000   1.0000   1.0000   1.0000   1.0000   1.0000
     1.0000   1.0000   1.0000   1.0000   1.0000   1.0000   1.0000   1.0000
     1.0000   1.0000   1.0000   1.0000   0.8997   0.5501   0.5501   0.0000
     0.0000   0.0000

     the Fermi energy is    -3.3401 ev

* XDM dispersion
  a1 =     0.428300
  a2 (ang) =     2.469000
  a2 (bohr) =     4.665734

+ Volumes and moments
# All results in atomic units (Hartree,bohr)
# i        V             Vfree           M1             M2             M3
  1   2.259474E+02   2.397186E+02   2.492502E+01   6.907096E+02   2.354047E+04
  2   2.203083E+02   2.397186E+02   2.473451E+01   6.732909E+02   2.206674E+04

+ Dispersion coefficients
# All results in atomic units (Hartree,bohr).
# i   j      C6             C8             C10            Rc            Rvdw
  1   1   3.641416E+02   3.027273E+04   2.550120E+06   9.147958E+00   8.583804E+00
  2   1   3.581781E+02   2.951328E+04   2.450427E+06   9.094654E+00   8.560974E+00
  2   2   3.523396E+02   2.877280E+04   2.353853E+06   9.040751E+00   8.537887E+00

+ van der Waals energies, forces and stresses (Ry,bohr)
  Evdw(total,Ry)   =  -5.960153440137E-03
  Evdw(C6,Ry)      =  -1.703902258160E-03
  Evdw(C8,Ry)      =  -1.975339545498E-03
  Evdw(C10,Ry)     =  -2.280911636479E-03
  Fvdw (001,Ry/bohr) =  -1.454957236981E-22  -4.784563900457E-23  -3.000762787825E-04
  Fvdw (002,Ry/bohr) =   1.401429733548E-22   1.583770607873E-22   3.000762787825E-04
  sigma_vdw (Ry/bohr**3) =  -2.195921062687E-09   1.783295263288E-27   5.495050552363E-27  
                             1.783295263288E-27  -2.195921062687E-09  -3.080046182607E-28  
                             5.495050552363E-27  -3.080046182607E-28  -7.846748896807E-08  
  sigma_vdw (GPa) =  -3.230311402682E-05   2.623317896636E-23   8.083498427712E-23  
                      2.623317896636E-23  -3.230311402682E-05  -4.530904354225E-24  
                      8.083498427712E-23  -4.530904354225E-24  -1.154296612298E-03  


!    total energy              =    -764.07865783 Ry
     estimated scf accuracy    <          7.3E-11 Ry
     smearing contrib. (-TS)   =      -0.02736276 Ry
     internal energy E=F+TS    =    -764.05129507 Ry

     The total energy is F=E-TS. E is the sum of the following terms:
     one-electron contribution =   -1162.05314216 Ry
     hartree contribution      =     551.48717744 Ry
     xc contribution           =    -133.47452379 Ry
     ewald contribution        =     -20.00484641 Ry
     Dispersion XDM Correction =      -0.00596015 Ry

     convergence has been achieved in  12 iterations

     Writing all to output data dir ./pwscf.save/ :
     XML data file, charge density, pseudopotentials, XDM data, collected wavefunctions

     init_run     :      3.00s CPU      3.46s WALL (       1 calls)
     electrons    :     86.77s CPU     89.47s WALL (       1 calls)

     Called by init_run:
     wfcinit      :      1.26s CPU      1.38s WALL (       1 calls)
     wfcinit:atom :      0.02s CPU      0.02s WALL (       1 calls)
     wfcinit:wfcr :      1.16s CPU      1.25s WALL (       1 calls)
     potinit      :      0.60s CPU      0.78s WALL (       1 calls)
     hinit0       :      0.13s CPU      0.19s WALL (       1 calls)
     init_xdm     :      0.00s CPU      0.01s WALL (       1 calls)

     Called by electrons:
     c_bands      :     38.54s CPU     39.74s WALL (      13 calls)
     sum_band     :     33.83s CPU     34.75s WALL (      13 calls)
     v_of_rho     :      7.27s CPU      7.36s WALL (      13 calls)
     v_h          :      0.76s CPU      0.81s WALL (      13 calls)
     v_xc         :      6.50s CPU      6.55s WALL (      13 calls)
     mix_rho      :      4.66s CPU      5.16s WALL (      13 calls)
     energy_xdm   :      2.58s CPU      2.65s WALL (       1 calls)
     exdm:environ :      0.00s CPU      0.00s WALL (       2 calls)
     exdm:rho     :      0.52s CPU      0.53s WALL (       1 calls)

     Called by c_bands:
     init_us_2    :      0.99s CPU      1.08s WALL (      27 calls)
     cegterg      :     36.93s CPU     38.07s WALL (      13 calls)

     Called by sum_band:
     sum_band:wei :      0.00s CPU      0.00s WALL (      13 calls)
     sum_band:loo :     31.02s CPU     31.56s WALL (      13 calls)
     sum_band:buf :      0.00s CPU      0.00s WALL (      13 calls)
     sum_band:ini :      0.50s CPU      0.52s WALL (      13 calls)

     Called by *egterg:
     cdiaghg      :      0.02s CPU      0.05s WALL (      49 calls)
     cegterg:over :      1.06s CPU      1.08s WALL (      37 calls)
     cegterg:upda :      0.71s CPU      0.76s WALL (      37 calls)
     cegterg:last :      0.93s CPU      0.95s WALL (      26 calls)
     h_psi        :     34.59s CPU     35.67s WALL (      51 calls)
     g_psi        :      0.12s CPU      0.12s WALL (      37 calls)

     Called by h_psi:
     h_psi:calbec :      0.82s CPU      0.85s WALL (      51 calls)
     vloc_psi     :     32.78s CPU     33.76s WALL (      51 calls)
                                        0.00s GPU  (      51 calls)
     add_vuspsi   :      0.75s CPU      0.77s WALL (      51 calls)

     General routines
     calbec       :      0.82s CPU      0.85s WALL (      51 calls)
     fft          :      6.02s CPU      6.14s WALL (     165 calls)
     ffts         :      0.91s CPU      0.98s WALL (      26 calls)
     fftw         :     48.33s CPU     49.46s WALL (    2982 calls)

     Parallel routines

     PWSCF        :   1m29.90s CPU   1m33.19s WALL


   This run was terminated on:  20:11: 5  11May2025            

=------------------------------------------------------------------------------=
   JOB DONE.
=------------------------------------------------------------------------------=
