
     Program PROJWFC v.7.5 starts on 24Oct2025 at 15:38:16 
        Git branch: develop
        Last git commit: 41de32dbdb0942acb75a8fa2409ce4953be06473
        Last git commit date: Tue Sep 30 17:36:47 2025 +0000
        Last git commit subject: Merge branch 'elf' into 'develop'

     This program is part of the open-source Quantum ESPRESSO suite
     for quantum simulation of materials; please cite
         "P. Giannozzi et al., J. Phys.:Condens. Matter 21 395502 (2009);
         "P. Giannozzi et al., J. Phys.:Condens. Matter 29 465901 (2017);
         "P. Giannozzi et al., J. Chem. Phys. 152 154105 (2020);
          URL http://www.quantum-espresso.org", 
     in publications or presentations arising from this work. More details at
     http://www.quantum-espresso.org/quote

     Parallel version (MPI), running on     4 processors

     MPI processes distributed on     1 nodes
     R & G space division:  proc/nbgrp/npool/nimage =       4
     13533 MiB available memory on the printing compute node when the environment starts


     Reading xml data from directory:

     ./tmp/copper.save/

     IMPORTANT: XC functional enforced from input :
     Exchange-correlation= PBE
                           (   1   4   3   4   0   0   0)
     Any further DFT definition will be discarded
     Please, verify this is what you really want


     Parallelization info
     --------------------
     sticks:   dense  smooth     PW     G-vecs:    dense   smooth      PW
     Min         370     370    109                10732    10732    1690
     Max         371     371    110                10735    10735    1691
     Sum        1481    1481    437                42931    42931    6763

     Using Slab Decomposition


     Gaussian broadening (read from input): ngauss,degauss=   0    0.010000


     Calling projwave .... 
     Subspace diagonalization in iterative solution of the eigenvalue problem:
     a serial algorithm will be used


  Problem Sizes 
  natomwfc =           40
  nbnd     =           46
  nkstot   =          165
  npwx     =         1350
  nkb      =           72


     Atomic states used for projection
     (read from pseudopotential files):

     state #   1: atom   1 (Cu ), wfc  1 (l=0 m= 1)
     state #   2: atom   1 (Cu ), wfc  2 (l=1 m= 1)
     state #   3: atom   1 (Cu ), wfc  2 (l=1 m= 2)
     state #   4: atom   1 (Cu ), wfc  2 (l=1 m= 3)
     state #   5: atom   1 (Cu ), wfc  3 (l=2 m= 1)
     state #   6: atom   1 (Cu ), wfc  3 (l=2 m= 2)
     state #   7: atom   1 (Cu ), wfc  3 (l=2 m= 3)
     state #   8: atom   1 (Cu ), wfc  3 (l=2 m= 4)
     state #   9: atom   1 (Cu ), wfc  3 (l=2 m= 5)
     state #  10: atom   1 (Cu ), wfc  4 (l=0 m= 1)
     state #  11: atom   2 (Cu ), wfc  1 (l=0 m= 1)
     state #  12: atom   2 (Cu ), wfc  2 (l=1 m= 1)
     state #  13: atom   2 (Cu ), wfc  2 (l=1 m= 2)
     state #  14: atom   2 (Cu ), wfc  2 (l=1 m= 3)
     state #  15: atom   2 (Cu ), wfc  3 (l=2 m= 1)
     state #  16: atom   2 (Cu ), wfc  3 (l=2 m= 2)
     state #  17: atom   2 (Cu ), wfc  3 (l=2 m= 3)
     state #  18: atom   2 (Cu ), wfc  3 (l=2 m= 4)
     state #  19: atom   2 (Cu ), wfc  3 (l=2 m= 5)
     state #  20: atom   2 (Cu ), wfc  4 (l=0 m= 1)
     state #  21: atom   3 (Cu ), wfc  1 (l=0 m= 1)
     state #  22: atom   3 (Cu ), wfc  2 (l=1 m= 1)
     state #  23: atom   3 (Cu ), wfc  2 (l=1 m= 2)
     state #  24: atom   3 (Cu ), wfc  2 (l=1 m= 3)
     state #  25: atom   3 (Cu ), wfc  3 (l=2 m= 1)
     state #  26: atom   3 (Cu ), wfc  3 (l=2 m= 2)
     state #  27: atom   3 (Cu ), wfc  3 (l=2 m= 3)
     state #  28: atom   3 (Cu ), wfc  3 (l=2 m= 4)
     state #  29: atom   3 (Cu ), wfc  3 (l=2 m= 5)
     state #  30: atom   3 (Cu ), wfc  4 (l=0 m= 1)
     state #  31: atom   4 (Cu ), wfc  1 (l=0 m= 1)
     state #  32: atom   4 (Cu ), wfc  2 (l=1 m= 1)
     state #  33: atom   4 (Cu ), wfc  2 (l=1 m= 2)
     state #  34: atom   4 (Cu ), wfc  2 (l=1 m= 3)
     state #  35: atom   4 (Cu ), wfc  3 (l=2 m= 1)
     state #  36: atom   4 (Cu ), wfc  3 (l=2 m= 2)
     state #  37: atom   4 (Cu ), wfc  3 (l=2 m= 3)
     state #  38: atom   4 (Cu ), wfc  3 (l=2 m= 4)
     state #  39: atom   4 (Cu ), wfc  3 (l=2 m= 5)
     state #  40: atom   4 (Cu ), wfc  4 (l=0 m= 1)

 k =   0.0000000000  0.0000000000  0.0000000000
==== e(   1) =   -95.10137 eV ==== 
     psi = 0.238*[#  11]+0.238*[#  21]+0.238*[#  31]+0.238*[#   1]+0.012*[#  10]
          +0.012*[#  20]+0.012*[#  30]+0.012*[#  40]
    |psi|^2 = 1.000
==== e(   2) =   -95.08240 eV ==== 
     psi = 0.328*[#  11]+0.328*[#  21]+0.328*[#  31]+0.005*[#  20]+0.005*[#  30]
          +0.005*[#  40]
    |psi|^2 = 1.000
==== e(   3) =   -95.08240 eV ==== 
     psi = 0.328*[#  11]+0.328*[#  21]+0.328*[#  31]+0.005*[#  20]+0.005*[#  30]
          +0.005*[#  40]
    |psi|^2 = 1.000
==== e(   4) =   -95.08240 eV ==== 
     psi = 0.737*[#   1]+0.082*[#  11]+0.082*[#  21]+0.082*[#  31]+0.011*[#  10]
          +0.001*[#  20]+0.001*[#  30]+0.001*[#  40]
    |psi|^2 = 1.000
==== e(   5) =   -52.55130 eV ==== 
     psi = 0.083*[#   2]+0.083*[#   3]+0.083*[#   4]+0.083*[#  12]+0.083*[#  13]
          +0.083*[#  14]+0.083*[#  22]+0.083*[#  23]+0.083*[#  24]+0.083*[#  32]
          +0.083*[#  33]+0.083*[#  34]
    |psi|^2 = 1.000
==== e(   6) =   -52.55130 eV ==== 
     psi = 0.083*[#   2]+0.083*[#   3]+0.083*[#   4]+0.083*[#  12]+0.083*[#  13]
          +0.083*[#  14]+0.083*[#  22]+0.083*[#  23]+0.083*[#  24]+0.083*[#  32]
          +0.083*[#  33]+0.083*[#  34]
    |psi|^2 = 1.000
==== e(   7) =   -52.55130 eV ==== 
     psi = 0.083*[#   2]+0.083*[#   3]+0.083*[#   4]+0.083*[#  12]+0.083*[#  13]
          +0.083*[#  14]+0.083*[#  22]+0.083*[#  23]+0.083*[#  24]+0.083*[#  32]
          +0.083*[#  33]+0.083*[#  34]
    |psi|^2 = 1.000
==== e(   8) =   -52.48920 eV ==== 
     psi = 0.167*[#   2]+0.167*[#   3]+0.167*[#   4]+0.167*[#  13]+0.167*[#  24]
          +0.167*[#  32]
    |psi|^2 = 1.000
==== e(   9) =   -52.48920 eV ==== 
     psi = 0.167*[#   2]+0.167*[#   3]+0.167*[#   4]+0.167*[#  13]+0.167*[#  24]
          +0.167*[#  32]
    |psi|^2 = 1.000
==== e(  10) =   -52.48920 eV ==== 
     psi = 0.167*[#   2]+0.167*[#   3]+0.167*[#   4]+0.167*[#  13]+0.167*[#  24]
          +0.167*[#  32]
    |psi|^2 = 1.000
==== e(  11) =   -52.48920 eV ==== 
     psi = 0.167*[#  12]+0.167*[#  14]+0.167*[#  22]+0.167*[#  23]+0.167*[#  33]
          +0.167*[#  34]
    |psi|^2 = 1.000
==== e(  12) =   -52.48920 eV ==== 
     psi = 0.167*[#  12]+0.167*[#  14]+0.167*[#  22]+0.167*[#  23]+0.167*[#  33]
          +0.167*[#  34]
    |psi|^2 = 1.000
==== e(  13) =   -52.48920 eV ==== 
     psi = 0.167*[#  12]+0.167*[#  14]+0.167*[#  22]+0.167*[#  23]+0.167*[#  33]
          +0.167*[#  34]
    |psi|^2 = 1.000
==== e(  14) =   -52.44718 eV ==== 
     psi = 0.083*[#   2]+0.083*[#   3]+0.083*[#   4]+0.083*[#  12]+0.083*[#  13]
          +0.083*[#  14]+0.083*[#  22]+0.083*[#  23]+0.083*[#  24]+0.083*[#  32]
          +0.083*[#  33]+0.083*[#  34]
    |psi|^2 = 1.000
==== e(  15) =   -52.44718 eV ==== 
     psi = 0.083*[#   2]+0.083*[#   3]+0.083*[#   4]+0.083*[#  12]+0.083*[#  13]
          +0.083*[#  14]+0.083*[#  22]+0.083*[#  23]+0.083*[#  24]+0.083*[#  32]
          +0.083*[#  33]+0.083*[#  34]
    |psi|^2 = 1.000
==== e(  16) =   -52.44718 eV ==== 
     psi = 0.083*[#   2]+0.083*[#   3]+0.083*[#   4]+0.083*[#  12]+0.083*[#  13]
          +0.083*[#  14]+0.083*[#  22]+0.083*[#  23]+0.083*[#  24]+0.083*[#  32]
          +0.083*[#  33]+0.083*[#  34]
    |psi|^2 = 1.000
==== e(  17) =     8.00595 eV ==== 
     psi = 0.238*[#  10]+0.238*[#  20]+0.238*[#  30]+0.238*[#  40]+0.012*[#   1]
          +0.012*[#  11]+0.012*[#  21]+0.012*[#  31]
    |psi|^2 = 0.999
==== e(  18) =    12.60012 eV ==== 
     psi = 0.318*[#  35]+0.239*[#  18]+0.239*[#  28]+0.080*[#  15]+0.080*[#  25]
          +0.034*[#  10]+0.004*[#  20]+0.004*[#  30]+0.004*[#  40]
    |psi|^2 = 1.000
==== e(  19) =    12.60012 eV ==== 
     psi = 0.179*[#   5]+0.179*[#   8]+0.179*[#  38]+0.139*[#  15]+0.139*[#  25]
          +0.060*[#  18]+0.060*[#  28]+0.020*[#  35]+0.015*[#  20]+0.015*[#  30]
          +0.015*[#  40]
    |psi|^2 = 1.000
==== e(  20) =    12.60012 eV ==== 
     psi = 0.179*[#   5]+0.179*[#   8]+0.179*[#  38]+0.139*[#  15]+0.139*[#  25]
          +0.060*[#  18]+0.060*[#  28]+0.020*[#  35]+0.015*[#  20]+0.015*[#  30]
          +0.015*[#  40]
    |psi|^2 = 1.000
==== e(  21) =    13.07661 eV ==== 
     psi = 0.083*[#   6]+0.083*[#   7]+0.083*[#   9]+0.083*[#  16]+0.083*[#  17]
          +0.083*[#  19]+0.083*[#  26]+0.083*[#  27]+0.083*[#  29]+0.083*[#  36]
          +0.083*[#  37]+0.083*[#  39]
    |psi|^2 = 1.000
==== e(  22) =    13.07661 eV ==== 
     psi = 0.083*[#   6]+0.083*[#   7]+0.083*[#   9]+0.083*[#  16]+0.083*[#  17]
          +0.083*[#  19]+0.083*[#  26]+0.083*[#  27]+0.083*[#  29]+0.083*[#  36]
          +0.083*[#  37]+0.083*[#  39]
    |psi|^2 = 1.000
==== e(  23) =    13.07661 eV ==== 
     psi = 0.083*[#   6]+0.083*[#   7]+0.083*[#   9]+0.083*[#  16]+0.083*[#  17]
          +0.083*[#  19]+0.083*[#  26]+0.083*[#  27]+0.083*[#  29]+0.083*[#  36]
          +0.083*[#  37]+0.083*[#  39]
    |psi|^2 = 1.000
==== e(  24) =    14.51110 eV ==== 
     psi = 0.083*[#   6]+0.083*[#   7]+0.083*[#   9]+0.083*[#  16]+0.083*[#  17]
          +0.083*[#  19]+0.083*[#  26]+0.083*[#  27]+0.083*[#  29]+0.083*[#  36]
          +0.083*[#  37]+0.083*[#  39]
    |psi|^2 = 1.000
==== e(  25) =    14.51110 eV ==== 
     psi = 0.083*[#   6]+0.083*[#   7]+0.083*[#   9]+0.083*[#  16]+0.083*[#  17]
          +0.083*[#  19]+0.083*[#  26]+0.083*[#  27]+0.083*[#  29]+0.083*[#  36]
          +0.083*[#  37]+0.083*[#  39]
    |psi|^2 = 1.000
==== e(  26) =    14.51110 eV ==== 
     psi = 0.083*[#   6]+0.083*[#   7]+0.083*[#   9]+0.083*[#  16]+0.083*[#  17]
          +0.083*[#  19]+0.083*[#  26]+0.083*[#  27]+0.083*[#  29]+0.083*[#  36]
          +0.083*[#  37]+0.083*[#  39]
    |psi|^2 = 1.000
==== e(  27) =    15.36546 eV ==== 
     psi = 0.125*[#   5]+0.125*[#   8]+0.125*[#  15]+0.125*[#  18]+0.125*[#  25]
          +0.125*[#  28]+0.125*[#  35]+0.125*[#  38]
    |psi|^2 = 1.000
==== e(  28) =    15.36546 eV ==== 
     psi = 0.125*[#   5]+0.125*[#   8]+0.125*[#  15]+0.125*[#  18]+0.125*[#  25]
          +0.125*[#  28]+0.125*[#  35]+0.125*[#  38]
    |psi|^2 = 1.000
==== e(  29) =    15.93092 eV ==== 
     psi = 0.187*[#   5]+0.187*[#   8]+0.187*[#  35]+0.146*[#  18]+0.146*[#  28]
          +0.062*[#  15]+0.062*[#  25]+0.021*[#  38]
    |psi|^2 = 1.000
==== e(  30) =    15.93092 eV ==== 
     psi = 0.187*[#   5]+0.187*[#   8]+0.187*[#  35]+0.146*[#  18]+0.146*[#  28]
          +0.062*[#  15]+0.062*[#  25]+0.021*[#  38]
    |psi|^2 = 1.000
==== e(  31) =    15.93093 eV ==== 
     psi = 0.333*[#  38]+0.250*[#  15]+0.250*[#  25]+0.083*[#  18]+0.083*[#  28]
          
    |psi|^2 = 1.000
==== e(  32) =    16.08763 eV ==== 
     psi = 0.167*[#  16]+0.167*[#  19]+0.167*[#  27]+0.167*[#  29]+0.167*[#  36]
          +0.167*[#  37]
    |psi|^2 = 1.000
==== e(  33) =    16.08763 eV ==== 
     psi = 0.167*[#  16]+0.167*[#  19]+0.167*[#  27]+0.167*[#  29]+0.167*[#  36]
          +0.167*[#  37]
    |psi|^2 = 1.000
==== e(  34) =    16.08763 eV ==== 
     psi = 0.167*[#  16]+0.167*[#  19]+0.167*[#  27]+0.167*[#  29]+0.167*[#  36]
          +0.167*[#  37]
    |psi|^2 = 1.000
==== e(  35) =    16.08763 eV ==== 
     psi = 0.167*[#   6]+0.167*[#   7]+0.167*[#   9]+0.167*[#  17]+0.167*[#  26]
          +0.167*[#  39]
    |psi|^2 = 1.000
==== e(  36) =    16.08763 eV ==== 
     psi = 0.167*[#   6]+0.167*[#   7]+0.167*[#   9]+0.167*[#  17]+0.167*[#  26]
          +0.167*[#  39]
    |psi|^2 = 1.000
==== e(  37) =    16.08763 eV ==== 
     psi = 0.167*[#   6]+0.167*[#   7]+0.167*[#   9]+0.167*[#  17]+0.167*[#  26]
          +0.167*[#  39]
    |psi|^2 = 1.000
==== e(  38) =    18.88953 eV ==== 

    |psi|^2 = 0.000
==== e(  39) =    18.88953 eV ==== 

    |psi|^2 = 0.000
==== e(  40) =    18.88953 eV ==== 

    |psi|^2 = 0.000
==== e(  41) =    24.61697 eV ==== 
     psi = 0.650*[#  10]+0.072*[#  20]+0.072*[#  30]+0.072*[#  40]+0.014*[#  35]
          +0.012*[#   1]+0.010*[#  18]+0.010*[#  28]+0.003*[#  15]+0.003*[#  25]
          +0.001*[#  11]+0.001*[#  21]+0.001*[#  31]
    |psi|^2 = 0.925
==== e(  42) =    24.61697 eV ==== 
     psi = 0.289*[#  20]+0.289*[#  30]+0.289*[#  40]+0.008*[#   5]+0.008*[#   8]
          +0.008*[#  38]+0.006*[#  15]+0.006*[#  25]+0.005*[#  11]+0.005*[#  21]
          +0.005*[#  31]+0.003*[#  18]+0.003*[#  28]
    |psi|^2 = 0.925
==== e(  43) =    24.61697 eV ==== 
     psi = 0.289*[#  20]+0.289*[#  30]+0.289*[#  40]+0.008*[#   5]+0.008*[#   8]
          +0.008*[#  38]+0.006*[#  15]+0.006*[#  25]+0.005*[#  11]+0.005*[#  21]
          +0.005*[#  31]+0.003*[#  18]+0.003*[#  28]
    |psi|^2 = 0.925
==== e(  44) =    30.52148 eV ==== 

    |psi|^2 = 0.000
==== e(  45) =    30.52148 eV ==== 

    |psi|^2 = 0.000
==== e(  46) =    30.52148 eV ==== 

    |psi|^2 = 0.000

 k =   0.0000000000  0.0000000000  0.0625000000
==== e(   1) =   -95.10119 eV ==== 
     psi = 0.238*[#  11]+0.238*[#  21]+0.238*[#  31]+0.238*[#   1]+0.012*[#  10]
          +0.012*[#  20]+0.012*[#  30]+0.012*[#  40]
    |psi|^2 = 1.000
==== e(   2) =   -95.08258 eV ==== 
     psi = 0.248*[#  11]+0.248*[#  21]+0.248*[#  31]+0.240*[#   1]+0.004*[#  20]
          +0.004*[#  30]+0.004*[#  40]+0.003*[#  10]
    |psi|^2 = 1.000
==== e(   3) =   -95.08240 eV ==== 
     psi = 0.328*[#  11]+0.328*[#  21]+0.328*[#  31]+0.005*[#  20]+0.005*[#  30]
          +0.005*[#  40]
    |psi|^2 = 1.000
==== e(   4) =   -95.08240 eV ==== 
     psi = 0.498*[#   1]+0.162*[#  11]+0.162*[#  21]+0.162*[#  31]+0.008*[#  10]
          +0.003*[#  20]+0.003*[#  30]+0.003*[#  40]
    |psi|^2 = 1.000
==== e(   5) =   -52.55071 eV ==== 
     psi = 0.083*[#   2]+0.083*[#   3]+0.083*[#   4]+0.083*[#  12]+0.083*[#  13]
          +0.083*[#  14]+0.083*[#  22]+0.083*[#  23]+0.083*[#  24]+0.083*[#  32]
          +0.083*[#  33]+0.083*[#  34]
    |psi|^2 = 1.000
==== e(   6) =   -52.55071 eV ==== 
     psi = 0.083*[#   2]+0.083*[#   3]+0.083*[#   4]+0.083*[#  12]+0.083*[#  13]
          +0.083*[#  14]+0.083*[#  22]+0.083*[#  23]+0.083*[#  24]+0.083*[#  32]
          +0.083*[#  33]+0.083*[#  34]
    |psi|^2 = 1.000
==== e(   7) =   -52.55033 eV ==== 
     psi = 0.083*[#   2]+0.083*[#   3]+0.083*[#   4]+0.083*[#  12]+0.083*[#  13]
          +0.083*[#  14]+0.083*[#  22]+0.083*[#  23]+0.083*[#  24]+0.083*[#  32]
          +0.083*[#  33]+0.083*[#  34]
    |psi|^2 = 1.000
==== e(   8) =   -52.48980 eV ==== 
     psi = 0.084*[#   2]+0.084*[#   3]+0.084*[#   4]+0.084*[#  13]+0.084*[#  24]
          +0.084*[#  32]+0.083*[#  12]+0.083*[#  14]+0.083*[#  22]+0.083*[#  23]
          +0.083*[#  33]+0.083*[#  34]
    |psi|^2 = 1.000
==== e(   9) =   -52.48980 eV ==== 
     psi = 0.084*[#   2]+0.084*[#   3]+0.084*[#   4]+0.084*[#  13]+0.084*[#  24]
          +0.084*[#  32]+0.083*[#  12]+0.083*[#  14]+0.083*[#  22]+0.083*[#  23]
          +0.083*[#  33]+0.083*[#  34]
    |psi|^2 = 1.000
==== e(  10) =   -52.48922 eV ==== 
     psi = 0.167*[#   2]+0.167*[#   3]+0.167*[#   4]+0.167*[#  13]+0.167*[#  24]
          +0.167*[#  32]
    |psi|^2 = 1.000
==== e(  11) =   -52.48922 eV ==== 
     psi = 0.167*[#  12]+0.167*[#  14]+0.167*[#  22]+0.167*[#  23]+0.167*[#  33]
          +0.167*[#  34]
    |psi|^2 = 1.000
==== e(  12) =   -52.48880 eV ==== 
     psi = 0.084*[#  12]+0.084*[#  14]+0.084*[#  22]+0.084*[#  23]+0.084*[#  33]
          +0.084*[#  34]+0.083*[#   2]+0.083*[#   3]+0.083*[#   4]+0.083*[#  13]
          +0.083*[#  24]+0.083*[#  32]
    |psi|^2 = 1.000
==== e(  13) =   -52.48880 eV ==== 
     psi = 0.084*[#  12]+0.084*[#  14]+0.084*[#  22]+0.084*[#  23]+0.084*[#  33]
          +0.084*[#  34]+0.083*[#   2]+0.083*[#   3]+0.083*[#   4]+0.083*[#  13]
          +0.083*[#  24]+0.083*[#  32]
    |psi|^2 = 1.000
==== e(  14) =   -52.44820 eV ==== 
     psi = 0.083*[#   2]+0.083*[#   3]+0.083*[#   4]+0.083*[#  12]+0.083*[#  13]
          +0.083*[#  14]+0.083*[#  22]+0.083*[#  23]+0.083*[#  24]+0.083*[#  32]
          +0.083*[#  33]+0.083*[#  34]
    |psi|^2 = 1.000
==== e(  15) =   -52.44758 eV ==== 
     psi = 0.083*[#   2]+0.083*[#   3]+0.083*[#   4]+0.083*[#  12]+0.083*[#  13]
          +0.083*[#  14]+0.083*[#  22]+0.083*[#  23]+0.083*[#  24]+0.083*[#  32]
          +0.083*[#  33]+0.083*[#  34]
    |psi|^2 = 1.000
==== e(  16) =   -52.44758 eV ==== 
     psi = 0.083*[#   2]+0.083*[#   3]+0.083*[#   4]+0.083*[#  12]+0.083*[#  13]
          +0.083*[#  14]+0.083*[#  22]+0.083*[#  23]+0.083*[#  24]+0.083*[#  32]
          +0.083*[#  33]+0.083*[#  34]
    |psi|^2 = 1.000
==== e(  17) =     8.05369 eV ==== 
     psi = 0.238*[#  10]+0.238*[#  20]+0.238*[#  30]+0.238*[#  40]+0.012*[#   1]
          +0.012*[#  11]+0.012*[#  21]+0.012*[#  31]
    |psi|^2 = 0.999
==== e(  18) =    12.59871 eV ==== 
     psi = 0.118*[#   5]+0.118*[#   8]+0.118*[#  15]+0.118*[#  18]+0.118*[#  25]
          +0.118*[#  28]+0.118*[#  35]+0.118*[#  38]+0.013*[#  10]+0.013*[#  20]
          +0.013*[#  30]+0.013*[#  40]
    |psi|^2 = 0.999
==== e(  19) =    12.62298 eV ==== 
     psi = 0.219*[#  35]+0.179*[#  18]+0.179*[#  28]+0.100*[#  15]+0.100*[#  25]
          +0.060*[#  38]+0.059*[#   5]+0.059*[#   8]+0.022*[#  10]+0.007*[#  20]
          +0.007*[#  30]+0.007*[#  40]
    |psi|^2 = 1.000
==== e(  20) =    12.62298 eV ==== 
     psi = 0.180*[#   5]+0.180*[#   8]+0.179*[#  38]+0.139*[#  15]+0.139*[#  25]
          +0.059*[#  18]+0.059*[#  28]+0.020*[#  35]+0.015*[#  20]+0.015*[#  30]
          +0.015*[#  40]
    |psi|^2 = 1.000
==== e(  21) =    13.08960 eV ==== 
     psi = 0.083*[#   6]+0.083*[#   7]+0.083*[#   9]+0.083*[#  16]+0.083*[#  17]
          +0.083*[#  19]+0.083*[#  26]+0.083*[#  27]+0.083*[#  29]+0.083*[#  36]
          +0.083*[#  37]+0.083*[#  39]
    |psi|^2 = 1.000
==== e(  22) =    13.09008 eV ==== 
     psi = 0.083*[#   6]+0.083*[#   7]+0.083*[#   9]+0.083*[#  16]+0.083*[#  17]
          +0.083*[#  19]+0.083*[#  26]+0.083*[#  27]+0.083*[#  29]+0.083*[#  36]
          +0.083*[#  37]+0.083*[#  39]
    |psi|^2 = 1.000
==== e(  23) =    13.09008 eV ==== 
     psi = 0.083*[#   6]+0.083*[#   7]+0.083*[#   9]+0.083*[#  16]+0.083*[#  17]
          +0.083*[#  19]+0.083*[#  26]+0.083*[#  27]+0.083*[#  29]+0.083*[#  36]
          +0.083*[#  37]+0.083*[#  39]
    |psi|^2 = 1.000
==== e(  24) =    14.49647 eV ==== 
     psi = 0.083*[#   6]+0.083*[#   7]+0.083*[#   9]+0.083*[#  16]+0.083*[#  17]
          +0.083*[#  19]+0.083*[#  26]+0.083*[#  27]+0.083*[#  29]+0.083*[#  36]
          +0.083*[#  37]+0.083*[#  39]
    |psi|^2 = 1.000
==== e(  25) =    14.52261 eV ==== 
     psi = 0.083*[#   6]+0.083*[#   7]+0.083*[#   9]+0.083*[#  16]+0.083*[#  17]
          +0.083*[#  19]+0.083*[#  26]+0.083*[#  27]+0.083*[#  29]+0.083*[#  36]
          +0.083*[#  37]+0.083*[#  39]
    |psi|^2 = 1.000
==== e(  26) =    14.52261 eV ==== 
     psi = 0.083*[#   6]+0.083*[#   7]+0.083*[#   9]+0.083*[#  16]+0.083*[#  17]
          +0.083*[#  19]+0.083*[#  26]+0.083*[#  27]+0.083*[#  29]+0.083*[#  36]
          +0.083*[#  37]+0.083*[#  39]
    |psi|^2 = 1.000
==== e(  27) =    15.35220 eV ==== 
     psi = 0.125*[#   5]+0.125*[#   8]+0.125*[#  15]+0.125*[#  18]+0.125*[#  25]
          +0.125*[#  28]+0.125*[#  35]+0.125*[#  38]
    |psi|^2 = 1.000
==== e(  28) =    15.37076 eV ==== 
     psi = 0.125*[#   5]+0.125*[#   8]+0.125*[#  15]+0.125*[#  18]+0.125*[#  25]
          +0.125*[#  28]+0.125*[#  35]+0.125*[#  38]
    |psi|^2 = 1.000
==== e(  29) =    15.91372 eV ==== 
     psi = 0.189*[#   5]+0.189*[#   8]+0.187*[#  35]+0.145*[#  18]+0.145*[#  28]
          +0.062*[#  15]+0.062*[#  25]+0.020*[#  38]
    |psi|^2 = 1.000
==== e(  30) =    15.91373 eV ==== 
     psi = 0.229*[#  38]+0.188*[#  15]+0.188*[#  25]+0.105*[#  18]+0.105*[#  28]
          +0.063*[#  35]+0.061*[#   5]+0.061*[#   8]
    |psi|^2 = 1.000
==== e(  31) =    15.92536 eV ==== 
     psi = 0.125*[#  15]+0.125*[#  25]+0.125*[#  38]+0.125*[#   5]+0.125*[#   8]
          +0.125*[#  18]+0.125*[#  28]+0.125*[#  35]
    |psi|^2 = 1.000
==== e(  32) =    15.99389 eV ==== 
     psi = 0.082*[#   6]+0.082*[#   7]+0.082*[#   9]+0.082*[#  16]+0.082*[#  17]
          +0.082*[#  19]+0.082*[#  26]+0.082*[#  27]+0.082*[#  29]+0.082*[#  36]
          +0.082*[#  37]+0.082*[#  39]
    |psi|^2 = 0.986
==== e(  33) =    15.99389 eV ==== 
     psi = 0.082*[#   6]+0.082*[#   7]+0.082*[#   9]+0.082*[#  16]+0.082*[#  17]
          +0.082*[#  19]+0.082*[#  26]+0.082*[#  27]+0.082*[#  29]+0.082*[#  36]
          +0.082*[#  37]+0.082*[#  39]
    |psi|^2 = 0.986
==== e(  34) =    16.06729 eV ==== 
     psi = 0.083*[#   6]+0.083*[#   7]+0.083*[#   9]+0.083*[#  16]+0.083*[#  17]
          +0.083*[#  19]+0.083*[#  26]+0.083*[#  27]+0.083*[#  29]+0.083*[#  36]
          +0.083*[#  37]+0.083*[#  39]
    |psi|^2 = 1.000
==== e(  35) =    16.06729 eV ==== 
     psi = 0.083*[#   6]+0.083*[#   7]+0.083*[#   9]+0.083*[#  16]+0.083*[#  17]
          +0.083*[#  19]+0.083*[#  26]+0.083*[#  27]+0.083*[#  29]+0.083*[#  36]
          +0.083*[#  37]+0.083*[#  39]
    |psi|^2 = 1.000
==== e(  36) =    16.08766 eV ==== 
     psi = 0.167*[#  16]+0.167*[#  19]+0.167*[#  27]+0.167*[#  29]+0.167*[#  36]
          +0.167*[#  37]
    |psi|^2 = 1.000
==== e(  37) =    16.08766 eV ==== 
     psi = 0.167*[#   6]+0.167*[#   7]+0.167*[#   9]+0.167*[#  17]+0.167*[#  26]
          +0.167*[#  39]
    |psi|^2 = 1.000
==== e(  38) =    18.59035 eV ==== 
     psi = 0.049*[#  10]+0.049*[#  20]+0.049*[#  30]+0.049*[#  40]+0.002*[#   5]
          +0.002*[#   8]+0.002*[#  15]+0.002*[#  18]+0.002*[#  25]+0.002*[#  28]
          +0.002*[#  35]+0.002*[#  38]
    |psi|^2 = 0.215
==== e(  39) =    19.02573 eV ==== 
     psi = 0.001*[#   6]+0.001*[#   7]+0.001*[#   9]+0.001*[#  16]+0.001*[#  17]
          +0.001*[#  19]+0.001*[#  26]+0.001*[#  27]+0.001*[#  29]+0.001*[#  36]
          +0.001*[#  37]+0.001*[#  39]
    |psi|^2 = 0.014
==== e(  40) =    19.02573 eV ==== 
     psi = 0.001*[#   6]+0.001*[#   7]+0.001*[#   9]+0.001*[#  16]+0.001*[#  17]
          +0.001*[#  19]+0.001*[#  26]+0.001*[#  27]+0.001*[#  29]+0.001*[#  36]
          +0.001*[#  37]+0.001*[#  39]
    |psi|^2 = 0.014
==== e(  41) =    24.63366 eV ==== 
     psi = 0.430*[#  10]+0.143*[#  20]+0.143*[#  30]+0.143*[#  40]+0.009*[#  35]
          +0.008*[#   1]+0.008*[#  18]+0.008*[#  28]+0.004*[#  15]+0.004*[#  25]
          +0.003*[#   5]+0.003*[#   8]+0.003*[#  11]+0.003*[#  21]+0.003*[#  31]
          +0.003*[#  38]
    |psi|^2 = 0.917
==== e(  42) =    24.63366 eV ==== 
     psi = 0.287*[#  20]+0.287*[#  30]+0.287*[#  40]+0.008*[#   5]+0.008*[#   8]
          +0.008*[#  38]+0.006*[#  15]+0.006*[#  25]+0.005*[#  11]+0.005*[#  21]
          +0.005*[#  31]+0.003*[#  18]+0.003*[#  28]
    |psi|^2 = 0.917
==== e(  43) =    25.01114 eV ==== 
     psi = 0.168*[#  10]+0.168*[#  20]+0.168*[#  30]+0.168*[#  40]+0.004*[#   5]
          +0.004*[#   8]+0.004*[#  15]+0.004*[#  18]+0.004*[#  25]+0.004*[#  28]
          +0.004*[#  35]+0.004*[#  38]+0.003*[#   1]+0.003*[#  11]+0.003*[#  21]
          +0.003*[#  31]
    |psi|^2 = 0.718
==== e(  44) =    30.19402 eV ==== 

    |psi|^2 = 0.000
==== e(  45) =    30.19402 eV ==== 

    |psi|^2 = 0.000
==== e(  46) =    30.31274 eV ==== 
     psi = 0.007*[#  10]+0.002*[#  20]+0.002*[#  30]+0.002*[#  40]
    |psi|^2 = 0.014

 k =   0.0000000000  0.0000000000  0.1250000000
==== e(   1) =   -95.10065 eV ==== 
     psi = 0.239*[#  11]+0.239*[#  21]+0.239*[#  31]+0.239*[#   1]+0.011*[#  10]
          +0.011*[#  20]+0.011*[#  30]+0.011*[#  40]
    |psi|^2 = 1.000
==== e(   2) =   -95.08312 eV ==== 
     psi = 0.247*[#  11]+0.247*[#  21]+0.247*[#  31]+0.245*[#   1]+0.003*[#  10]
          +0.003*[#  20]+0.003*[#  30]+0.003*[#  40]
    |psi|^2 = 1.000
==== e(   3) =   -95.08240 eV ==== 
     psi = 0.328*[#  11]+0.328*[#  21]+0.328*[#  31]+0.005*[#  20]+0.005*[#  30]
          +0.005*[#  40]
    |psi|^2 = 1.000
==== e(   4) =   -95.08240 eV ==== 
     psi = 0.493*[#   1]+0.163*[#  11]+0.163*[#  21]+0.163*[#  31]+0.008*[#  10]
          +0.003*[#  20]+0.003*[#  30]+0.003*[#  40]
    |psi|^2 = 1.000
==== e(   5) =   -52.54894 eV ==== 
     psi = 0.083*[#   2]+0.083*[#   3]+0.083*[#   4]+0.083*[#  12]+0.083*[#  13]
          +0.083*[#  14]+0.083*[#  22]+0.083*[#  23]+0.083*[#  24]+0.083*[#  32]
          +0.083*[#  33]+0.083*[#  34]
    |psi|^2 = 1.000
==== e(   6) =   -52.54894 eV ==== 
     psi = 0.083*[#   2]+0.083*[#   3]+0.083*[#   4]+0.083*[#  12]+0.083*[#  13]
          +0.083*[#  14]+0.083*[#  22]+0.083*[#  23]+0.083*[#  24]+0.083*[#  32]
          +0.083*[#  33]+0.083*[#  34]
    |psi|^2 = 1.000
==== e(   7) =   -52.54744 eV ==== 
     psi = 0.083*[#   2]+0.083*[#   3]+0.083*[#   4]+0.083*[#  12]+0.083*[#  13]
          +0.083*[#  14]+0.083*[#  22]+0.083*[#  23]+0.083*[#  24]+0.083*[#  32]
          +0.083*[#  33]+0.083*[#  34]
    |psi|^2 = 1.000
==== e(   8) =   -52.49156 eV ==== 
     psi = 0.083*[#   2]+0.083*[#   3]+0.083*[#   4]+0.083*[#  13]+0.083*[#  24]
          +0.083*[#  32]+0.083*[#  12]+0.083*[#  14]+0.083*[#  22]+0.083*[#  23]
          +0.083*[#  33]+0.083*[#  34]
    |psi|^2 = 1.000
==== e(   9) =   -52.49156 eV ==== 
     psi = 0.083*[#   2]+0.083*[#   3]+0.083*[#   4]+0.083*[#  13]+0.083*[#  24]
          +0.083*[#  32]+0.083*[#  12]+0.083*[#  14]+0.083*[#  22]+0.083*[#  23]
          +0.083*[#  33]+0.083*[#  34]
    |psi|^2 = 1.000
==== e(  10) =   -52.48928 eV ==== 
     psi = 0.167*[#   2]+0.167*[#   3]+0.167*[#   4]+0.167*[#  13]+0.167*[#  24]
          +0.167*[#  32]
    |psi|^2 = 1.000
==== e(  11) =   -52.48927 eV ==== 
     psi = 0.167*[#  12]+0.167*[#  14]+0.167*[#  22]+0.167*[#  23]+0.167*[#  33]
          +0.167*[#  34]
    |psi|^2 = 1.000
==== e(  12) =   -52.48760 eV ==== 
     psi = 0.083*[#  12]+0.083*[#  14]+0.083*[#  22]+0.083*[#  23]+0.083*[#  33]
          +0.083*[#  34]+0.083*[#   2]+0.083*[#   3]+0.083*[#   4]+0.083*[#  13]
          +0.083*[#  24]+0.083*[#  32]
    |psi|^2 = 1.000
==== e(  13) =   -52.48760 eV ==== 
     psi = 0.083*[#  12]+0.083*[#  14]+0.083*[#  22]+0.083*[#  23]+0.083*[#  33]
          +0.083*[#  34]+0.083*[#   2]+0.083*[#   3]+0.083*[#   4]+0.083*[#  13]
          +0.083*[#  24]+0.083*[#  32]
    |psi|^2 = 1.000
==== e(  14) =   -52.45124 eV ==== 
     psi = 0.083*[#   2]+0.083*[#   3]+0.083*[#   4]+0.083*[#  12]+0.083*[#  13]
          +0.083*[#  14]+0.083*[#  22]+0.083*[#  23]+0.083*[#  24]+0.083*[#  32]
          +0.083*[#  33]+0.083*[#  34]
    |psi|^2 = 1.000
==== e(  15) =   -52.44878 eV ==== 
     psi = 0.083*[#   2]+0.083*[#   3]+0.083*[#   4]+0.083*[#  12]+0.083*[#  13]
          +0.083*[#  14]+0.083*[#  22]+0.083*[#  23]+0.083*[#  24]+0.083*[#  32]
          +0.083*[#  33]+0.083*[#  34]
    |psi|^2 = 1.000
==== e(  16) =   -52.44878 eV ==== 
     psi = 0.083*[#   2]+0.083*[#   3]+0.083*[#   4]+0.083*[#  12]+0.083*[#  13]
          +0.083*[#  14]+0.083*[#  22]+0.083*[#  23]+0.083*[#  24]+0.083*[#  32]
          +0.083*[#  33]+0.083*[#  34]
    |psi|^2 = 1.000
==== e(  17) =     8.19636 eV ==== 
     psi = 0.239*[#  10]+0.239*[#  20]+0.239*[#  30]+0.239*[#  40]+0.011*[#   1]
          +0.011*[#  11]+0.011*[#  21]+0.011*[#  31]
    |psi|^2 = 0.999
==== e(  18) =    12.58903 eV ==== 
     psi = 0.115*[#   5]+0.115*[#   8]+0.115*[#  15]+0.115*[#  18]+0.115*[#  25]
          +0.115*[#  28]+0.115*[#  35]+0.115*[#  38]+0.020*[#  10]+0.020*[#  20]
          +0.020*[#  30]+0.020*[#  40]
    |psi|^2 = 0.997
==== e(  19) =    12.68982 eV ==== 
     psi = 0.221*[#  35]+0.181*[#  18]+0.181*[#  28]+0.101*[#  15]+0.101*[#  25]
          +0.061*[#  38]+0.055*[#   5]+0.055*[#   8]+0.020*[#  10]+0.007*[#  20]
          +0.007*[#  30]+0.007*[#  40]
    |psi|^2 = 0.999
==== e(  20) =    12.68982 eV ==== 
     psi = 0.184*[#   5]+0.184*[#   8]+0.178*[#  38]+0.138*[#  15]+0.138*[#  25]
          +0.058*[#  18]+0.058*[#  28]+0.018*[#  35]+0.014*[#  20]+0.014*[#  30]
          +0.014*[#  40]
    |psi|^2 = 0.999
==== e(  21) =    13.12815 eV ==== 
     psi = 0.083*[#   6]+0.083*[#   7]+0.083*[#   9]+0.083*[#  16]+0.083*[#  17]
          +0.083*[#  19]+0.083*[#  26]+0.083*[#  27]+0.083*[#  29]+0.083*[#  36]
          +0.083*[#  37]+0.083*[#  39]
    |psi|^2 = 1.000
==== e(  22) =    13.13063 eV ==== 
     psi = 0.083*[#   6]+0.083*[#   7]+0.083*[#   9]+0.083*[#  16]+0.083*[#  17]
          +0.083*[#  19]+0.083*[#  26]+0.083*[#  27]+0.083*[#  29]+0.083*[#  36]
          +0.083*[#  37]+0.083*[#  39]
    |psi|^2 = 0.999
==== e(  23) =    13.13063 eV ==== 
     psi = 0.083*[#   6]+0.083*[#   7]+0.083*[#   9]+0.083*[#  16]+0.083*[#  17]
          +0.083*[#  19]+0.083*[#  26]+0.083*[#  27]+0.083*[#  29]+0.083*[#  36]
          +0.083*[#  37]+0.083*[#  39]
    |psi|^2 = 0.999
==== e(  24) =    14.45327 eV ==== 
     psi = 0.083*[#   6]+0.083*[#   7]+0.083*[#   9]+0.083*[#  16]+0.083*[#  17]
          +0.083*[#  19]+0.083*[#  26]+0.083*[#  27]+0.083*[#  29]+0.083*[#  36]
          +0.083*[#  37]+0.083*[#  39]
    |psi|^2 = 1.000
==== e(  25) =    14.55701 eV ==== 
     psi = 0.083*[#   6]+0.083*[#   7]+0.083*[#   9]+0.083*[#  16]+0.083*[#  17]
          +0.083*[#  19]+0.083*[#  26]+0.083*[#  27]+0.083*[#  29]+0.083*[#  36]
          +0.083*[#  37]+0.083*[#  39]
    |psi|^2 = 1.000
==== e(  26) =    14.55701 eV ==== 
     psi = 0.083*[#   6]+0.083*[#   7]+0.083*[#   9]+0.083*[#  16]+0.083*[#  17]
          +0.083*[#  19]+0.083*[#  26]+0.083*[#  27]+0.083*[#  29]+0.083*[#  36]
          +0.083*[#  37]+0.083*[#  39]
    |psi|^2 = 1.000
==== e(  27) =    15.31323 eV ==== 
     psi = 0.125*[#   5]+0.125*[#   8]+0.125*[#  15]+0.125*[#  18]+0.125*[#  25]
          +0.125*[#  28]+0.125*[#  35]+0.125*[#  38]
    |psi|^2 = 1.000
==== e(  28) =    15.38648 eV ==== 
     psi = 0.125*[#   5]+0.125*[#   8]+0.125*[#  15]+0.125*[#  18]+0.125*[#  25]
          +0.125*[#  28]+0.125*[#  35]+0.125*[#  38]
    |psi|^2 = 1.000
==== e(  29) =    15.75571 eV ==== 
     psi = 0.080*[#   6]+0.080*[#   7]+0.080*[#   9]+0.080*[#  16]+0.080*[#  17]
          +0.080*[#  19]+0.080*[#  26]+0.080*[#  27]+0.080*[#  29]+0.080*[#  36]
          +0.080*[#  37]+0.080*[#  39]
    |psi|^2 = 0.963
==== e(  30) =    15.75571 eV ==== 
     psi = 0.080*[#   6]+0.080*[#   7]+0.080*[#   9]+0.080*[#  16]+0.080*[#  17]
          +0.080*[#  19]+0.080*[#  26]+0.080*[#  27]+0.080*[#  29]+0.080*[#  36]
          +0.080*[#  37]+0.080*[#  39]
    |psi|^2 = 0.963
==== e(  31) =    15.86297 eV ==== 
     psi = 0.192*[#   5]+0.192*[#   8]+0.186*[#  35]+0.144*[#  18]+0.144*[#  28]
          +0.061*[#  15]+0.061*[#  25]+0.019*[#  38]
    |psi|^2 = 0.999
==== e(  32) =    15.86298 eV ==== 
     psi = 0.231*[#  38]+0.189*[#  15]+0.189*[#  25]+0.106*[#  18]+0.106*[#  28]
          +0.064*[#  35]+0.058*[#   5]+0.058*[#   8]
    |psi|^2 = 0.999
==== e(  33) =    15.90888 eV ==== 
     psi = 0.125*[#   5]+0.125*[#   8]+0.125*[#  15]+0.125*[#  18]+0.125*[#  25]
          +0.125*[#  28]+0.125*[#  35]+0.125*[#  38]
    |psi|^2 = 1.000
==== e(  34) =    16.00793 eV ==== 
     psi = 0.083*[#   6]+0.083*[#   7]+0.083*[#   9]+0.083*[#  16]+0.083*[#  17]
          +0.083*[#  19]+0.083*[#  26]+0.083*[#  27]+0.083*[#  29]+0.083*[#  36]
          +0.083*[#  37]+0.083*[#  39]
    |psi|^2 = 0.999
==== e(  35) =    16.00793 eV ==== 
     psi = 0.083*[#   6]+0.083*[#   7]+0.083*[#   9]+0.083*[#  16]+0.083*[#  17]
          +0.083*[#  19]+0.083*[#  26]+0.083*[#  27]+0.083*[#  29]+0.083*[#  36]
          +0.083*[#  37]+0.083*[#  39]
    |psi|^2 = 0.999
==== e(  36) =    16.08774 eV ==== 
     psi = 0.167*[#  16]+0.167*[#  19]+0.167*[#  27]+0.167*[#  29]+0.167*[#  36]
          +0.167*[#  37]
    |psi|^2 = 1.000
==== e(  37) =    16.08774 eV ==== 
     psi = 0.167*[#   6]+0.167*[#   7]+0.167*[#   9]+0.167*[#  17]+0.167*[#  26]
          +0.167*[#  39]
    |psi|^2 = 1.000
==== e(  38) =    17.87716 eV ==== 
     psi = 0.124*[#  10]+0.124*[#  20]+0.124*[#  30]+0.124*[#  40]+0.007*[#   5]
          +0.007*[#   8]+0.007*[#  15]+0.007*[#  18]+0.007*[#  25]+0.007*[#  28]
          +0.007*[#  35]+0.007*[#  38]+0.002*[#   1]+0.002*[#  11]+0.002*[#  21]
          +0.002*[#  31]
    |psi|^2 = 0.565
==== e(  39) =    19.39113 eV ==== 
     psi = 0.003*[#   6]+0.003*[#   7]+0.003*[#   9]+0.003*[#  16]+0.003*[#  17]
          +0.003*[#  19]+0.003*[#  26]+0.003*[#  27]+0.003*[#  29]+0.003*[#  36]
          +0.003*[#  37]+0.003*[#  39]
    |psi|^2 = 0.036
==== e(  40) =    19.39113 eV ==== 
     psi = 0.003*[#   6]+0.003*[#   7]+0.003*[#   9]+0.003*[#  16]+0.003*[#  17]
          +0.003*[#  19]+0.003*[#  26]+0.003*[#  27]+0.003*[#  29]+0.003*[#  36]
          +0.003*[#  37]+0.003*[#  39]
    |psi|^2 = 0.036
==== e(  41) =    24.68469 eV ==== 
     psi = 0.420*[#  10]+0.140*[#  20]+0.140*[#  30]+0.140*[#  40]+0.009*[#  35]
          +0.008*[#   1]+0.007*[#  18]+0.007*[#  28]+0.004*[#  15]+0.004*[#  25]
          +0.002*[#   5]+0.002*[#   8]+0.003*[#  11]+0.003*[#  21]+0.003*[#  31]
          +0.002*[#  38]
    |psi|^2 = 0.894
==== e(  42) =    24.68470 eV ==== 
     psi = 0.280*[#  20]+0.280*[#  30]+0.280*[#  40]+0.007*[#   5]+0.007*[#   8]
          +0.007*[#  38]+0.006*[#  15]+0.006*[#  25]+0.005*[#  11]+0.005*[#  21]
          +0.005*[#  31]+0.002*[#  18]+0.002*[#  28]
    |psi|^2 = 0.894
==== e(  43) =    26.01356 eV ==== 
     psi = 0.090*[#  10]+0.090*[#  20]+0.090*[#  30]+0.090*[#  40]+0.003*[#   5]
          +0.003*[#   8]+0.003*[#  15]+0.003*[#  18]+0.003*[#  25]+0.003*[#  28]
          +0.003*[#  35]+0.003*[#  38]+0.001*[#   1]+0.001*[#  11]+0.001*[#  21]
          +0.001*[#  31]
    |psi|^2 = 0.387
==== e(  44) =    29.42122 eV ==== 

    |psi|^2 = 0.001
==== e(  45) =    29.42122 eV ==== 

    |psi|^2 = 0.001
==== e(  46) =    29.77930 eV ==== 
     psi = 0.025*[#  10]+0.008*[#  20]+0.008*[#  30]+0.008*[#  40]
    |psi|^2 = 0.050

 k =   0.0000000000  0.0000000000  0.1875000000
==== e(   1) =   -95.09977 eV ==== 
     psi = 0.240*[#  11]+0.240*[#  21]+0.240*[#  31]+0.240*[#   1]+0.010*[#  10]
          +0.010*[#  20]+0.010*[#  30]+0.010*[#  40]
    |psi|^2 = 1.000
==== e(   2) =   -95.08400 eV ==== 
     psi = 0.248*[#  11]+0.248*[#  21]+0.248*[#  31]+0.247*[#   1]+0.002*[#  10]
          +0.002*[#  20]+0.002*[#  30]+0.002*[#  40]
    |psi|^2 = 1.000
==== e(   3) =   -95.08240 eV ==== 
     psi = 0.328*[#  11]+0.328*[#  21]+0.328*[#  31]+0.005*[#  20]+0.005*[#  30]
          +0.005*[#  40]
    |psi|^2 = 1.000
==== e(   4) =   -95.08239 eV ==== 
     psi = 0.492*[#   1]+0.164*[#  11]+0.164*[#  21]+0.164*[#  31]+0.008*[#  10]
          +0.003*[#  20]+0.003*[#  30]+0.003*[#  40]
    |psi|^2 = 1.000
==== e(   5) =   -52.54607 eV ==== 
     psi = 0.083*[#   2]+0.083*[#   3]+0.083*[#   4]+0.083*[#  12]+0.083*[#  13]
          +0.083*[#  14]+0.083*[#  22]+0.083*[#  23]+0.083*[#  24]+0.083*[#  32]
          +0.083*[#  33]+0.083*[#  34]
    |psi|^2 = 1.000
==== e(   6) =   -52.54607 eV ==== 
     psi = 0.083*[#   2]+0.083*[#   3]+0.083*[#   4]+0.083*[#  12]+0.083*[#  13]
          +0.083*[#  14]+0.083*[#  22]+0.083*[#  23]+0.083*[#  24]+0.083*[#  32]
          +0.083*[#  33]+0.083*[#  34]
    |psi|^2 = 1.000
==== e(   7) =   -52.54273 eV ==== 
     psi = 0.083*[#   2]+0.083*[#   3]+0.083*[#   4]+0.083*[#  12]+0.083*[#  13]
          +0.083*[#  14]+0.083*[#  22]+0.083*[#  23]+0.083*[#  24]+0.083*[#  32]
          +0.083*[#  33]+0.083*[#  34]
    |psi|^2 = 1.000
==== e(   8) =   -52.49444 eV ==== 
     psi = 0.083*[#   2]+0.083*[#   3]+0.083*[#   4]+0.083*[#  13]+0.083*[#  24]
          +0.083*[#  32]+0.083*[#  12]+0.083*[#  14]+0.083*[#  22]+0.083*[#  23]
          +0.083*[#  33]+0.083*[#  34]
    |psi|^2 = 1.000
==== e(   9) =   -52.49444 eV ==== 
     psi = 0.083*[#   2]+0.083*[#   3]+0.083*[#   4]+0.083*[#  13]+0.083*[#  24]
          +0.083*[#  32]+0.083*[#  12]+0.083*[#  14]+0.083*[#  22]+0.083*[#  23]
          +0.083*[#  33]+0.083*[#  34]
    |psi|^2 = 1.000
==== e(  10) =   -52.48936 eV ==== 
     psi = 0.167*[#   2]+0.167*[#   3]+0.167*[#   4]+0.167*[#  13]+0.167*[#  24]
          +0.167*[#  32]
    |psi|^2 = 1.000
==== e(  11) =   -52.48936 eV ==== 
     psi = 0.167*[#  12]+0.167*[#  14]+0.167*[#  22]+0.167*[#  23]+0.167*[#  33]
          +0.167*[#  34]
    |psi|^2 = 1.000
==== e(  12) =   -52.48566 eV ==== 
     psi = 0.083*[#  12]+0.083*[#  14]+0.083*[#  22]+0.083*[#  23]+0.083*[#  33]
          +0.083*[#  34]+0.083*[#   2]+0.083*[#   3]+0.083*[#   4]+0.083*[#  13]
          +0.083*[#  24]+0.083*[#  32]
    |psi|^2 = 1.000
==== e(  13) =   -52.48566 eV ==== 
     psi = 0.083*[#  12]+0.083*[#  14]+0.083*[#  22]+0.083*[#  23]+0.083*[#  33]
          +0.083*[#  34]+0.083*[#   2]+0.083*[#   3]+0.083*[#   4]+0.083*[#  13]
          +0.083*[#  24]+0.083*[#  32]
    |psi|^2 = 1.000
==== e(  14) =   -52.45615 eV ==== 
     psi = 0.083*[#   2]+0.083*[#   3]+0.083*[#   4]+0.083*[#  12]+0.083*[#  13]
          +0.083*[#  14]+0.083*[#  22]+0.083*[#  23]+0.083*[#  24]+0.083*[#  32]
          +0.083*[#  33]+0.083*[#  34]
    |psi|^2 = 1.000
==== e(  15) =   -52.45072 eV ==== 
     psi = 0.083*[#   2]+0.083*[#   3]+0.083*[#   4]+0.083*[#  12]+0.083*[#  13]
          +0.083*[#  14]+0.083*[#  22]+0.083*[#  23]+0.083*[#  24]+0.083*[#  32]
          +0.083*[#  33]+0.083*[#  34]
    |psi|^2 = 1.000
==== e(  16) =   -52.45072 eV ==== 
     psi = 0.083*[#   2]+0.083*[#   3]+0.083*[#   4]+0.083*[#  12]+0.083*[#  13]
          +0.083*[#  14]+0.083*[#  22]+0.083*[#  23]+0.083*[#  24]+0.083*[#  32]
          +0.083*[#  33]+0.083*[#  34]
    |psi|^2 = 1.000
==== e(  17) =     8.43219 eV ==== 
     psi = 0.239*[#  10]+0.239*[#  20]+0.239*[#  30]+0.239*[#  40]+0.010*[#   1]
          +0.010*[#  11]+0.010*[#  21]+0.010*[#  31]
    |psi|^2 = 0.999
==== e(  18) =    12.55288 eV ==== 
     psi = 0.107*[#   5]+0.107*[#   8]+0.107*[#  15]+0.107*[#  18]+0.107*[#  25]
          +0.107*[#  28]+0.107*[#  35]+0.107*[#  38]+0.034*[#  10]+0.034*[#  20]
          +0.034*[#  30]+0.034*[#  40]
    |psi|^2 = 0.995
==== e(  19) =    12.79517 eV ==== 
     psi = 0.224*[#  35]+0.184*[#  18]+0.184*[#  28]+0.104*[#  15]+0.104*[#  25]
          +0.064*[#  38]+0.049*[#   5]+0.049*[#   8]+0.018*[#  10]+0.006*[#  20]
          +0.006*[#  30]+0.006*[#  40]
    |psi|^2 = 0.998
==== e(  20) =    12.79517 eV ==== 
     psi = 0.191*[#   5]+0.191*[#   8]+0.177*[#  38]+0.137*[#  15]+0.137*[#  25]
          +0.057*[#  18]+0.057*[#  28]+0.016*[#  35]+0.012*[#  20]+0.012*[#  30]
          +0.012*[#  40]
    |psi|^2 = 0.998
==== e(  21) =    13.19103 eV ==== 
     psi = 0.083*[#   6]+0.083*[#   7]+0.083*[#   9]+0.083*[#  16]+0.083*[#  17]
          +0.083*[#  19]+0.083*[#  26]+0.083*[#  27]+0.083*[#  29]+0.083*[#  36]
          +0.083*[#  37]+0.083*[#  39]
    |psi|^2 = 1.000
==== e(  22) =    13.19866 eV ==== 
     psi = 0.083*[#   6]+0.083*[#   7]+0.083*[#   9]+0.083*[#  16]+0.083*[#  17]
          +0.083*[#  19]+0.083*[#  26]+0.083*[#  27]+0.083*[#  29]+0.083*[#  36]
          +0.083*[#  37]+0.083*[#  39]
    |psi|^2 = 0.998
==== e(  23) =    13.19866 eV ==== 
     psi = 0.083*[#   6]+0.083*[#   7]+0.083*[#   9]+0.083*[#  16]+0.083*[#  17]
          +0.083*[#  19]+0.083*[#  26]+0.083*[#  27]+0.083*[#  29]+0.083*[#  36]
          +0.083*[#  37]+0.083*[#  39]
    |psi|^2 = 0.998
==== e(  24) =    14.38343 eV ==== 
     psi = 0.083*[#   6]+0.083*[#   7]+0.083*[#   9]+0.083*[#  16]+0.083*[#  17]
          +0.083*[#  19]+0.083*[#  26]+0.083*[#  27]+0.083*[#  29]+0.083*[#  36]
          +0.083*[#  37]+0.083*[#  39]
    |psi|^2 = 1.000
==== e(  25) =    14.61385 eV ==== 
     psi = 0.083*[#   6]+0.083*[#   7]+0.083*[#   9]+0.083*[#  16]+0.083*[#  17]
          +0.083*[#  19]+0.083*[#  26]+0.083*[#  27]+0.083*[#  29]+0.083*[#  36]
          +0.083*[#  37]+0.083*[#  39]
    |psi|^2 = 1.000
==== e(  26) =    14.61385 eV ==== 
     psi = 0.083*[#   6]+0.083*[#   7]+0.083*[#   9]+0.083*[#  16]+0.083*[#  17]
          +0.083*[#  19]+0.083*[#  26]+0.083*[#  27]+0.083*[#  29]+0.083*[#  36]
          +0.083*[#  37]+0.083*[#  39]
    |psi|^2 = 1.000
==== e(  27) =    15.25109 eV ==== 
     psi = 0.125*[#   5]+0.125*[#   8]+0.125*[#  15]+0.125*[#  18]+0.125*[#  25]
          +0.125*[#  28]+0.125*[#  35]+0.125*[#  38]
    |psi|^2 = 1.000
==== e(  28) =    15.41205 eV ==== 
     psi = 0.125*[#   5]+0.125*[#   8]+0.125*[#  15]+0.125*[#  18]+0.125*[#  25]
          +0.125*[#  28]+0.125*[#  35]+0.125*[#  38]
    |psi|^2 = 1.000
==== e(  29) =    15.44732 eV ==== 
     psi = 0.079*[#   6]+0.079*[#   7]+0.079*[#   9]+0.079*[#  16]+0.079*[#  17]
          +0.079*[#  19]+0.079*[#  26]+0.079*[#  27]+0.079*[#  29]+0.079*[#  36]
          +0.079*[#  37]+0.079*[#  39]
    |psi|^2 = 0.952
==== e(  30) =    15.44732 eV ==== 
     psi = 0.079*[#   6]+0.079*[#   7]+0.079*[#   9]+0.079*[#  16]+0.079*[#  17]
          +0.079*[#  19]+0.079*[#  26]+0.079*[#  27]+0.079*[#  29]+0.079*[#  36]
          +0.079*[#  37]+0.079*[#  39]
    |psi|^2 = 0.952
==== e(  31) =    15.78157 eV ==== 
     psi = 0.198*[#   5]+0.198*[#   8]+0.184*[#  35]+0.142*[#  18]+0.142*[#  28]
          +0.059*[#  15]+0.059*[#  25]+0.017*[#  38]
    |psi|^2 = 0.999
==== e(  32) =    15.78157 eV ==== 
     psi = 0.232*[#  38]+0.191*[#  15]+0.191*[#  25]+0.108*[#  18]+0.108*[#  28]
          +0.066*[#  35]+0.052*[#   5]+0.052*[#   8]
    |psi|^2 = 0.999
==== e(  33) =    15.88219 eV ==== 
     psi = 0.125*[#   5]+0.125*[#   8]+0.125*[#  15]+0.125*[#  18]+0.125*[#  25]
          +0.125*[#  28]+0.125*[#  35]+0.125*[#  38]
    |psi|^2 = 1.000
==== e(  34) =    15.91415 eV ==== 
     psi = 0.083*[#   6]+0.083*[#   7]+0.083*[#   9]+0.083*[#  16]+0.083*[#  17]
          +0.083*[#  19]+0.083*[#  26]+0.083*[#  27]+0.083*[#  29]+0.083*[#  36]
          +0.083*[#  37]+0.083*[#  39]
    |psi|^2 = 0.999
==== e(  35) =    15.91415 eV ==== 
     psi = 0.083*[#   6]+0.083*[#   7]+0.083*[#   9]+0.083*[#  16]+0.083*[#  17]
          +0.083*[#  19]+0.083*[#  26]+0.083*[#  27]+0.083*[#  29]+0.083*[#  36]
          +0.083*[#  37]+0.083*[#  39]
    |psi|^2 = 0.999
==== e(  36) =    16.08787 eV ==== 
     psi = 0.167*[#  16]+0.167*[#  19]+0.167*[#  27]+0.167*[#  29]+0.167*[#  36]
          +0.167*[#  37]
    |psi|^2 = 1.000
==== e(  37) =    16.08787 eV ==== 
     psi = 0.167*[#   6]+0.167*[#   7]+0.167*[#   9]+0.167*[#  17]+0.167*[#  26]
          +0.167*[#  39]
    |psi|^2 = 1.000
==== e(  38) =    17.02876 eV ==== 
     psi = 0.164*[#  10]+0.164*[#  20]+0.164*[#  30]+0.164*[#  40]+0.016*[#   5]
          +0.016*[#   8]+0.016*[#  15]+0.016*[#  18]+0.016*[#  25]+0.016*[#  28]
          +0.016*[#  35]+0.016*[#  38]+0.002*[#   1]+0.002*[#  11]+0.002*[#  21]
          +0.002*[#  31]
    |psi|^2 = 0.795
==== e(  39) =    19.91100 eV ==== 
     psi = 0.004*[#   6]+0.004*[#   7]+0.004*[#   9]+0.004*[#  16]+0.004*[#  17]
          +0.004*[#  19]+0.004*[#  26]+0.004*[#  27]+0.004*[#  29]+0.004*[#  36]
          +0.004*[#  37]+0.004*[#  39]
    |psi|^2 = 0.048
==== e(  40) =    19.91100 eV ==== 
     psi = 0.004*[#   6]+0.004*[#   7]+0.004*[#   9]+0.004*[#  16]+0.004*[#  17]
          +0.004*[#  19]+0.004*[#  26]+0.004*[#  27]+0.004*[#  29]+0.004*[#  36]
          +0.004*[#  37]+0.004*[#  39]
    |psi|^2 = 0.048
==== e(  41) =    24.77292 eV ==== 
     psi = 0.402*[#  10]+0.134*[#  20]+0.134*[#  30]+0.134*[#  40]+0.008*[#  35]
          +0.007*[#   1]+0.006*[#  18]+0.006*[#  28]+0.004*[#  15]+0.004*[#  25]
          +0.002*[#   5]+0.002*[#   8]+0.002*[#  11]+0.002*[#  21]+0.002*[#  31]
          +0.002*[#  38]
    |psi|^2 = 0.852
==== e(  42) =    24.77292 eV ==== 
     psi = 0.268*[#  20]+0.268*[#  30]+0.268*[#  40]+0.007*[#  38]+0.006*[#   5]
          +0.006*[#   8]+0.005*[#  15]+0.005*[#  25]+0.005*[#  11]+0.005*[#  21]
          +0.005*[#  31]+0.002*[#  18]+0.002*[#  28]
    |psi|^2 = 0.852
==== e(  43) =    27.35990 eV ==== 
     psi = 0.041*[#  10]+0.041*[#  20]+0.041*[#  30]+0.041*[#  40]+0.001*[#   5]
          +0.001*[#   8]+0.001*[#  15]+0.001*[#  18]+0.001*[#  25]+0.001*[#  28]
          +0.001*[#  35]+0.001*[#  38]
    |psi|^2 = 0.176
==== e(  44) =    28.47381 eV ==== 

    |psi|^2 = 0.002
==== e(  45) =    28.47381 eV ==== 

    |psi|^2 = 0.002
==== e(  46) =    29.08922 eV ==== 
     psi = 0.051*[#  10]+0.017*[#  20]+0.017*[#  30]+0.017*[#  40]
    |psi|^2 = 0.105

 k =   0.0000000000  0.0000000000  0.2500000000
==== e(   1) =   -95.09858 eV ==== 
     psi = 0.241*[#  11]+0.241*[#  21]+0.241*[#  31]+0.241*[#   1]+0.009*[#  10]
          +0.009*[#  20]+0.009*[#  30]+0.009*[#  40]
    |psi|^2 = 1.000
==== e(   2) =   -95.08517 eV ==== 
     psi = 0.249*[#  11]+0.249*[#  21]+0.249*[#  31]+0.248*[#   1]
    |psi|^2 = 1.000
==== e(   3) =   -95.08239 eV ==== 
     psi = 0.328*[#  11]+0.328*[#  21]+0.328*[#  31]+0.005*[#  20]+0.005*[#  30]
          +0.005*[#  40]
    |psi|^2 = 1.000
==== e(   4) =   -95.08239 eV ==== 
     psi = 0.492*[#   1]+0.164*[#  11]+0.164*[#  21]+0.164*[#  31]+0.008*[#  10]
          +0.003*[#  20]+0.003*[#  30]+0.003*[#  40]
    |psi|^2 = 1.000
==== e(   5) =   -52.54221 eV ==== 
     psi = 0.083*[#   2]+0.083*[#   3]+0.083*[#   4]+0.083*[#  12]+0.083*[#  13]
          +0.083*[#  14]+0.083*[#  22]+0.083*[#  23]+0.083*[#  24]+0.083*[#  32]
          +0.083*[#  33]+0.083*[#  34]
    |psi|^2 = 1.000
==== e(   6) =   -52.54221 eV ==== 
     psi = 0.083*[#   2]+0.083*[#   3]+0.083*[#   4]+0.083*[#  12]+0.083*[#  13]
          +0.083*[#  14]+0.083*[#  22]+0.083*[#  23]+0.083*[#  24]+0.083*[#  32]
          +0.083*[#  33]+0.083*[#  34]
    |psi|^2 = 1.000
==== e(   7) =   -52.53638 eV ==== 
     psi = 0.083*[#   2]+0.083*[#   3]+0.083*[#   4]+0.083*[#  12]+0.083*[#  13]
          +0.083*[#  14]+0.083*[#  22]+0.083*[#  23]+0.083*[#  24]+0.083*[#  32]
          +0.083*[#  33]+0.083*[#  34]
    |psi|^2 = 1.000
==== e(   8) =   -52.49830 eV ==== 
     psi = 0.083*[#   2]+0.083*[#   3]+0.083*[#   4]+0.083*[#  12]+0.083*[#  13]
          +0.083*[#  14]+0.083*[#  22]+0.083*[#  23]+0.083*[#  24]+0.083*[#  32]
          +0.083*[#  33]+0.083*[#  34]
    |psi|^2 = 1.000
==== e(   9) =   -52.49830 eV ==== 
     psi = 0.083*[#   2]+0.083*[#   3]+0.083*[#   4]+0.083*[#  12]+0.083*[#  13]
          +0.083*[#  14]+0.083*[#  22]+0.083*[#  23]+0.083*[#  24]+0.083*[#  32]
          +0.083*[#  33]+0.083*[#  34]
    |psi|^2 = 1.000
==== e(  10) =   -52.48946 eV ==== 
     psi = 0.167*[#   2]+0.167*[#   3]+0.167*[#   4]+0.167*[#  13]+0.167*[#  24]
          +0.167*[#  32]
    |psi|^2 = 1.000
==== e(  11) =   -52.48946 eV ==== 
     psi = 0.167*[#  12]+0.167*[#  14]+0.167*[#  22]+0.167*[#  23]+0.167*[#  33]
          +0.167*[#  34]
    |psi|^2 = 1.000
==== e(  12) =   -52.48304 eV ==== 
     psi = 0.083*[#   2]+0.083*[#   3]+0.083*[#   4]+0.083*[#  12]+0.083*[#  13]
          +0.083*[#  14]+0.083*[#  22]+0.083*[#  23]+0.083*[#  24]+0.083*[#  32]
          +0.083*[#  33]+0.083*[#  34]
    |psi|^2 = 1.000
==== e(  13) =   -52.48304 eV ==== 
     psi = 0.083*[#   2]+0.083*[#   3]+0.083*[#   4]+0.083*[#  12]+0.083*[#  13]
          +0.083*[#  14]+0.083*[#  22]+0.083*[#  23]+0.083*[#  24]+0.083*[#  32]
          +0.083*[#  33]+0.083*[#  34]
    |psi|^2 = 1.000
==== e(  14) =   -52.46275 eV ==== 
     psi = 0.083*[#   2]+0.083*[#   3]+0.083*[#   4]+0.083*[#  12]+0.083*[#  13]
          +0.083*[#  14]+0.083*[#  22]+0.083*[#  23]+0.083*[#  24]+0.083*[#  32]
          +0.083*[#  33]+0.083*[#  34]
    |psi|^2 = 1.000
==== e(  15) =   -52.45333 eV ==== 
     psi = 0.083*[#   2]+0.083*[#   3]+0.083*[#   4]+0.083*[#  12]+0.083*[#  13]
          +0.083*[#  14]+0.083*[#  22]+0.083*[#  23]+0.083*[#  24]+0.083*[#  32]
          +0.083*[#  33]+0.083*[#  34]
    |psi|^2 = 1.000
==== e(  16) =   -52.45333 eV ==== 
     psi = 0.083*[#   2]+0.083*[#   3]+0.083*[#   4]+0.083*[#  12]+0.083*[#  13]
          +0.083*[#  14]+0.083*[#  22]+0.083*[#  23]+0.083*[#  24]+0.083*[#  32]
          +0.083*[#  33]+0.083*[#  34]
    |psi|^2 = 1.000
==== e(  17) =     8.75791 eV ==== 
     psi = 0.239*[#  10]+0.239*[#  20]+0.239*[#  30]+0.239*[#  40]+0.009*[#   1]
          +0.009*[#  11]+0.009*[#  21]+0.009*[#  31]
    |psi|^2 = 0.999
==== e(  18) =    12.45476 eV ==== 
     psi = 0.094*[#   5]+0.094*[#   8]+0.094*[#  15]+0.094*[#  18]+0.094*[#  25]
          +0.094*[#  28]+0.094*[#  35]+0.094*[#  38]+0.061*[#  10]+0.061*[#  20]
          +0.061*[#  30]+0.061*[#  40]
    |psi|^2 = 0.993
==== e(  19) =    12.92930 eV ==== 
     psi = 0.228*[#  35]+0.188*[#  18]+0.188*[#  28]+0.107*[#  15]+0.107*[#  25]
          +0.067*[#  38]+0.041*[#   5]+0.041*[#   8]+0.014*[#  10]+0.005*[#  20]
          +0.005*[#  30]+0.005*[#  40]
    |psi|^2 = 0.997
==== e(  20) =    12.92931 eV ==== 
     psi = 0.201*[#   5]+0.201*[#   8]+0.175*[#  38]+0.135*[#  15]+0.135*[#  25]
          +0.054*[#  18]+0.054*[#  28]+0.014*[#  35]+0.009*[#  20]+0.009*[#  30]
          +0.009*[#  40]
    |psi|^2 = 0.997
==== e(  21) =    13.27618 eV ==== 
     psi = 0.083*[#   6]+0.083*[#   7]+0.083*[#   9]+0.083*[#  16]+0.083*[#  17]
          +0.083*[#  19]+0.083*[#  26]+0.083*[#  27]+0.083*[#  29]+0.083*[#  36]
          +0.083*[#  37]+0.083*[#  39]
    |psi|^2 = 1.000
==== e(  22) =    13.29479 eV ==== 
     psi = 0.083*[#   6]+0.083*[#   7]+0.083*[#   9]+0.083*[#  16]+0.083*[#  17]
          +0.083*[#  19]+0.083*[#  26]+0.083*[#  27]+0.083*[#  29]+0.083*[#  36]
          +0.083*[#  37]+0.083*[#  39]
    |psi|^2 = 0.997
==== e(  23) =    13.29479 eV ==== 
     psi = 0.083*[#   6]+0.083*[#   7]+0.083*[#   9]+0.083*[#  16]+0.083*[#  17]
          +0.083*[#  19]+0.083*[#  26]+0.083*[#  27]+0.083*[#  29]+0.083*[#  36]
          +0.083*[#  37]+0.083*[#  39]
    |psi|^2 = 0.997
==== e(  24) =    14.29006 eV ==== 
     psi = 0.083*[#   6]+0.083*[#   7]+0.083*[#   9]+0.083*[#  16]+0.083*[#  17]
          +0.083*[#  19]+0.083*[#  26]+0.083*[#  27]+0.083*[#  29]+0.083*[#  36]
          +0.083*[#  37]+0.083*[#  39]
    |psi|^2 = 1.000
==== e(  25) =    14.69233 eV ==== 
     psi = 0.083*[#   6]+0.083*[#   7]+0.083*[#   9]+0.083*[#  16]+0.083*[#  17]
          +0.083*[#  19]+0.083*[#  26]+0.083*[#  27]+0.083*[#  29]+0.083*[#  36]
          +0.083*[#  37]+0.083*[#  39]
    |psi|^2 = 1.000
==== e(  26) =    14.69233 eV ==== 
     psi = 0.083*[#   6]+0.083*[#   7]+0.083*[#   9]+0.083*[#  16]+0.083*[#  17]
          +0.083*[#  19]+0.083*[#  26]+0.083*[#  27]+0.083*[#  29]+0.083*[#  36]
          +0.083*[#  37]+0.083*[#  39]
    |psi|^2 = 1.000
==== e(  27) =    15.11929 eV ==== 
     psi = 0.079*[#   6]+0.079*[#   7]+0.079*[#   9]+0.079*[#  16]+0.079*[#  17]
          +0.079*[#  19]+0.079*[#  26]+0.079*[#  27]+0.079*[#  29]+0.079*[#  36]
          +0.079*[#  37]+0.079*[#  39]
    |psi|^2 = 0.952
==== e(  28) =    15.11929 eV ==== 
     psi = 0.079*[#   6]+0.079*[#   7]+0.079*[#   9]+0.079*[#  16]+0.079*[#  17]
          +0.079*[#  19]+0.079*[#  26]+0.079*[#  27]+0.079*[#  29]+0.079*[#  36]
          +0.079*[#  37]+0.079*[#  39]
    |psi|^2 = 0.952
==== e(  29) =    15.17036 eV ==== 
     psi = 0.124*[#   5]+0.124*[#   8]+0.124*[#  15]+0.124*[#  18]+0.124*[#  25]
          +0.124*[#  28]+0.124*[#  35]+0.124*[#  38]
    |psi|^2 = 1.000
==== e(  30) =    15.44656 eV ==== 
     psi = 0.125*[#   5]+0.125*[#   8]+0.125*[#  15]+0.125*[#  18]+0.125*[#  25]
          +0.125*[#  28]+0.125*[#  35]+0.125*[#  38]
    |psi|^2 = 1.000
==== e(  31) =    15.67548 eV ==== 
     psi = 0.206*[#   5]+0.206*[#   8]+0.181*[#  35]+0.139*[#  18]+0.139*[#  28]
          +0.056*[#  15]+0.056*[#  25]+0.014*[#  38]
    |psi|^2 = 0.999
==== e(  32) =    15.67548 eV ==== 
     psi = 0.235*[#  38]+0.194*[#  15]+0.194*[#  25]+0.110*[#  18]+0.110*[#  28]
          +0.069*[#  35]+0.043*[#   5]+0.043*[#   8]
    |psi|^2 = 0.999
==== e(  33) =    15.79274 eV ==== 
     psi = 0.083*[#   6]+0.083*[#   7]+0.083*[#   9]+0.083*[#  16]+0.083*[#  17]
          +0.083*[#  19]+0.083*[#  26]+0.083*[#  27]+0.083*[#  29]+0.083*[#  36]
          +0.083*[#  37]+0.083*[#  39]
    |psi|^2 = 0.999
==== e(  34) =    15.79274 eV ==== 
     psi = 0.083*[#   6]+0.083*[#   7]+0.083*[#   9]+0.083*[#  16]+0.083*[#  17]
          +0.083*[#  19]+0.083*[#  26]+0.083*[#  27]+0.083*[#  29]+0.083*[#  36]
          +0.083*[#  37]+0.083*[#  39]
    |psi|^2 = 0.999
==== e(  35) =    15.84635 eV ==== 
     psi = 0.125*[#   5]+0.125*[#   8]+0.125*[#  15]+0.125*[#  18]+0.125*[#  25]
          +0.125*[#  28]+0.125*[#  35]+0.125*[#  38]
    |psi|^2 = 1.000
==== e(  36) =    16.08803 eV ==== 
     psi = 0.167*[#  16]+0.167*[#  19]+0.167*[#  27]+0.167*[#  29]+0.167*[#  36]
          +0.167*[#  37]
    |psi|^2 = 1.000
==== e(  37) =    16.08803 eV ==== 
     psi = 0.167*[#   6]+0.167*[#   7]+0.167*[#   9]+0.167*[#  17]+0.167*[#  26]
          +0.167*[#  39]
    |psi|^2 = 1.000
==== e(  38) =    16.22192 eV ==== 
     psi = 0.165*[#  10]+0.165*[#  20]+0.165*[#  30]+0.165*[#  40]+0.030*[#   5]
          +0.030*[#   8]+0.030*[#  15]+0.030*[#  18]+0.030*[#  25]+0.030*[#  28]
          +0.030*[#  35]+0.030*[#  38]+0.001*[#   1]+0.001*[#  11]+0.001*[#  21]
          +0.001*[#  31]
    |psi|^2 = 0.911
==== e(  39) =    20.53395 eV ==== 
     psi = 0.004*[#   6]+0.004*[#   7]+0.004*[#   9]+0.004*[#  16]+0.004*[#  17]
          +0.004*[#  19]+0.004*[#  26]+0.004*[#  27]+0.004*[#  29]+0.004*[#  36]
          +0.004*[#  37]+0.004*[#  39]
    |psi|^2 = 0.048
==== e(  40) =    20.53395 eV ==== 
     psi = 0.004*[#   6]+0.004*[#   7]+0.004*[#   9]+0.004*[#  16]+0.004*[#  17]
          +0.004*[#  19]+0.004*[#  26]+0.004*[#  27]+0.004*[#  29]+0.004*[#  36]
          +0.004*[#  37]+0.004*[#  39]
    |psi|^2 = 0.048
==== e(  41) =    24.90289 eV ==== 
     psi = 0.374*[#  10]+0.125*[#  20]+0.125*[#  30]+0.125*[#  40]+0.007*[#  35]
          +0.007*[#   1]+0.005*[#  18]+0.005*[#  28]+0.003*[#  15]+0.003*[#  25]
          +0.002*[#  11]+0.002*[#  21]+0.002*[#  31]+0.002*[#   5]+0.002*[#   8]
          +0.002*[#  38]
    |psi|^2 = 0.790
==== e(  42) =    24.90289 eV ==== 
     psi = 0.249*[#  20]+0.249*[#  30]+0.249*[#  40]+0.006*[#  38]+0.005*[#   5]
          +0.005*[#   8]+0.004*[#  11]+0.004*[#  15]+0.004*[#  21]+0.004*[#  25]
          +0.004*[#  31]+0.002*[#  18]+0.002*[#  28]
    |psi|^2 = 0.790
==== e(  43) =    27.47737 eV ==== 

    |psi|^2 = 0.003
==== e(  44) =    27.47737 eV ==== 

    |psi|^2 = 0.003
==== e(  45) =    28.36536 eV ==== 
     psi = 0.087*[#  10]+0.029*[#  20]+0.029*[#  30]+0.029*[#  40]+0.001*[#   1]
          
    |psi|^2 = 0.178
==== e(  46) =    28.36536 eV ==== 
     psi = 0.058*[#  20]+0.058*[#  30]+0.058*[#  40]
    |psi|^2 = 0.178

 k =   0.0000000000  0.0000000000  0.3125000000
==== e(   1) =   -95.09714 eV ==== 
     psi = 0.243*[#  11]+0.243*[#  21]+0.243*[#  31]+0.243*[#   1]+0.007*[#  10]
          +0.007*[#  20]+0.007*[#  30]+0.007*[#  40]
    |psi|^2 = 1.000
==== e(   2) =   -95.08661 eV ==== 
     psi = 0.249*[#  11]+0.249*[#  21]+0.249*[#  31]+0.249*[#   1]
    |psi|^2 = 1.000
==== e(   3) =   -95.08239 eV ==== 
     psi = 0.328*[#  11]+0.328*[#  21]+0.328*[#  31]+0.005*[#  20]+0.005*[#  30]
          +0.005*[#  40]
    |psi|^2 = 1.000
==== e(   4) =   -95.08239 eV ==== 
     psi = 0.492*[#   1]+0.164*[#  11]+0.164*[#  21]+0.164*[#  31]+0.008*[#  10]
          +0.003*[#  20]+0.003*[#  30]+0.003*[#  40]
    |psi|^2 = 1.000
==== e(   5) =   -52.53751 eV ==== 
     psi = 0.083*[#   2]+0.083*[#   3]+0.083*[#   4]+0.083*[#  12]+0.083*[#  13]
          +0.083*[#  14]+0.083*[#  22]+0.083*[#  23]+0.083*[#  24]+0.083*[#  32]
          +0.083*[#  33]+0.083*[#  34]
    |psi|^2 = 1.000
==== e(   6) =   -52.53751 eV ==== 
     psi = 0.083*[#   2]+0.083*[#   3]+0.083*[#   4]+0.083*[#  12]+0.083*[#  13]
          +0.083*[#  14]+0.083*[#  22]+0.083*[#  23]+0.083*[#  24]+0.083*[#  32]
          +0.083*[#  33]+0.083*[#  34]
    |psi|^2 = 1.000
==== e(   7) =   -52.52862 eV ==== 
     psi = 0.083*[#   2]+0.083*[#   3]+0.083*[#   4]+0.083*[#  12]+0.083*[#  13]
          +0.083*[#  14]+0.083*[#  22]+0.083*[#  23]+0.083*[#  24]+0.083*[#  32]
          +0.083*[#  33]+0.083*[#  34]+0.001*[#  10]+0.001*[#  20]+0.001*[#  30]
          +0.001*[#  40]
    |psi|^2 = 1.000
==== e(   8) =   -52.50301 eV ==== 
     psi = 0.083*[#   2]+0.083*[#   3]+0.083*[#   4]+0.083*[#  12]+0.083*[#  13]
          +0.083*[#  14]+0.083*[#  22]+0.083*[#  23]+0.083*[#  24]+0.083*[#  32]
          +0.083*[#  33]+0.083*[#  34]
    |psi|^2 = 1.000
==== e(   9) =   -52.50301 eV ==== 
     psi = 0.083*[#   2]+0.083*[#   3]+0.083*[#   4]+0.083*[#  12]+0.083*[#  13]
          +0.083*[#  14]+0.083*[#  22]+0.083*[#  23]+0.083*[#  24]+0.083*[#  32]
          +0.083*[#  33]+0.083*[#  34]
    |psi|^2 = 1.000
==== e(  10) =   -52.48956 eV ==== 
     psi = 0.167*[#   2]+0.167*[#   3]+0.167*[#   4]+0.167*[#  13]+0.167*[#  24]
          +0.167*[#  32]
    |psi|^2 = 1.000
==== e(  11) =   -52.48956 eV ==== 
     psi = 0.167*[#  12]+0.167*[#  14]+0.167*[#  22]+0.167*[#  23]+0.167*[#  33]
          +0.167*[#  34]
    |psi|^2 = 1.000
==== e(  12) =   -52.47986 eV ==== 
     psi = 0.083*[#   2]+0.083*[#   3]+0.083*[#   4]+0.083*[#  12]+0.083*[#  13]
          +0.083*[#  14]+0.083*[#  22]+0.083*[#  23]+0.083*[#  24]+0.083*[#  32]
          +0.083*[#  33]+0.083*[#  34]
    |psi|^2 = 1.000
==== e(  13) =   -52.47986 eV ==== 
     psi = 0.083*[#   2]+0.083*[#   3]+0.083*[#   4]+0.083*[#  12]+0.083*[#  13]
          +0.083*[#  14]+0.083*[#  22]+0.083*[#  23]+0.083*[#  24]+0.083*[#  32]
          +0.083*[#  33]+0.083*[#  34]
    |psi|^2 = 1.000
==== e(  14) =   -52.47077 eV ==== 
     psi = 0.083*[#   2]+0.083*[#   3]+0.083*[#   4]+0.083*[#  12]+0.083*[#  13]
          +0.083*[#  14]+0.083*[#  22]+0.083*[#  23]+0.083*[#  24]+0.083*[#  32]
          +0.083*[#  33]+0.083*[#  34]
    |psi|^2 = 1.000
==== e(  15) =   -52.45651 eV ==== 
     psi = 0.083*[#   2]+0.083*[#   3]+0.083*[#   4]+0.083*[#  12]+0.083*[#  13]
          +0.083*[#  14]+0.083*[#  22]+0.083*[#  23]+0.083*[#  24]+0.083*[#  32]
          +0.083*[#  33]+0.083*[#  34]
    |psi|^2 = 1.000
==== e(  16) =   -52.45651 eV ==== 
     psi = 0.083*[#   2]+0.083*[#   3]+0.083*[#   4]+0.083*[#  12]+0.083*[#  13]
          +0.083*[#  14]+0.083*[#  22]+0.083*[#  23]+0.083*[#  24]+0.083*[#  32]
          +0.083*[#  33]+0.083*[#  34]
    |psi|^2 = 1.000
==== e(  17) =     9.16817 eV ==== 
     psi = 0.239*[#  10]+0.239*[#  20]+0.239*[#  30]+0.239*[#  40]+0.007*[#   1]
          +0.007*[#  11]+0.007*[#  21]+0.007*[#  31]+0.001*[#   5]+0.001*[#   8]
          +0.001*[#  15]+0.001*[#  18]+0.001*[#  25]+0.001*[#  28]+0.001*[#  35]
          +0.001*[#  38]
    |psi|^2 = 0.999
==== e(  18) =    12.24219 eV ==== 
     psi = 0.103*[#  10]+0.103*[#  20]+0.103*[#  30]+0.103*[#  40]+0.072*[#   5]
          +0.072*[#   8]+0.072*[#  15]+0.072*[#  18]+0.072*[#  25]+0.072*[#  28]
          +0.072*[#  35]+0.072*[#  38]
    |psi|^2 = 0.992
==== e(  19) =    13.07714 eV ==== 
     psi = 0.234*[#  35]+0.193*[#  18]+0.193*[#  28]+0.112*[#  15]+0.112*[#  25]
          +0.071*[#  38]+0.030*[#   5]+0.030*[#   8]+0.009*[#  10]+0.003*[#  20]
          +0.003*[#  30]+0.003*[#  40]
    |psi|^2 = 0.995
==== e(  20) =    13.07714 eV ==== 
     psi = 0.214*[#   5]+0.214*[#   8]+0.172*[#  38]+0.132*[#  15]+0.132*[#  25]
          +0.051*[#  18]+0.051*[#  28]+0.010*[#  35]+0.006*[#  20]+0.006*[#  30]
          +0.006*[#  40]
    |psi|^2 = 0.995
==== e(  21) =    13.38079 eV ==== 
     psi = 0.083*[#   6]+0.083*[#   7]+0.083*[#   9]+0.083*[#  16]+0.083*[#  17]
          +0.083*[#  19]+0.083*[#  26]+0.083*[#  27]+0.083*[#  29]+0.083*[#  36]
          +0.083*[#  37]+0.083*[#  39]
    |psi|^2 = 1.000
==== e(  22) =    13.41976 eV ==== 
     psi = 0.083*[#   6]+0.083*[#   7]+0.083*[#   9]+0.083*[#  16]+0.083*[#  17]
          +0.083*[#  19]+0.083*[#  26]+0.083*[#  27]+0.083*[#  29]+0.083*[#  36]
          +0.083*[#  37]+0.083*[#  39]
    |psi|^2 = 0.995
==== e(  23) =    13.41976 eV ==== 
     psi = 0.083*[#   6]+0.083*[#   7]+0.083*[#   9]+0.083*[#  16]+0.083*[#  17]
          +0.083*[#  19]+0.083*[#  26]+0.083*[#  27]+0.083*[#  29]+0.083*[#  36]
          +0.083*[#  37]+0.083*[#  39]
    |psi|^2 = 0.995
==== e(  24) =    14.17725 eV ==== 
     psi = 0.083*[#   6]+0.083*[#   7]+0.083*[#   9]+0.083*[#  16]+0.083*[#  17]
          +0.083*[#  19]+0.083*[#  26]+0.083*[#  27]+0.083*[#  29]+0.083*[#  36]
          +0.083*[#  37]+0.083*[#  39]
    |psi|^2 = 1.000
==== e(  25) =    14.79118 eV ==== 
     psi = 0.083*[#   6]+0.083*[#   7]+0.083*[#   9]+0.083*[#  16]+0.083*[#  17]
          +0.083*[#  19]+0.083*[#  26]+0.083*[#  27]+0.083*[#  29]+0.083*[#  36]
          +0.083*[#  37]+0.083*[#  39]
    |psi|^2 = 1.000
==== e(  26) =    14.79118 eV ==== 
     psi = 0.083*[#   6]+0.083*[#   7]+0.083*[#   9]+0.083*[#  16]+0.083*[#  17]
          +0.083*[#  19]+0.083*[#  26]+0.083*[#  27]+0.083*[#  29]+0.083*[#  36]
          +0.083*[#  37]+0.083*[#  39]
    |psi|^2 = 1.000
==== e(  27) =    14.79797 eV ==== 
     psi = 0.080*[#   6]+0.080*[#   7]+0.080*[#   9]+0.080*[#  16]+0.080*[#  17]
          +0.080*[#  19]+0.080*[#  26]+0.080*[#  27]+0.080*[#  29]+0.080*[#  36]
          +0.080*[#  37]+0.080*[#  39]
    |psi|^2 = 0.958
==== e(  28) =    14.79797 eV ==== 
     psi = 0.080*[#   6]+0.080*[#   7]+0.080*[#   9]+0.080*[#  16]+0.080*[#  17]
          +0.080*[#  19]+0.080*[#  26]+0.080*[#  27]+0.080*[#  29]+0.080*[#  36]
          +0.080*[#  37]+0.080*[#  39]
    |psi|^2 = 0.958
==== e(  29) =    15.07825 eV ==== 
     psi = 0.124*[#   5]+0.124*[#   8]+0.124*[#  15]+0.124*[#  18]+0.124*[#  25]
          +0.124*[#  28]+0.124*[#  35]+0.124*[#  38]+0.003*[#  10]+0.003*[#  20]
          +0.003*[#  30]+0.003*[#  40]
    |psi|^2 = 1.000
==== e(  30) =    15.48874 eV ==== 
     psi = 0.125*[#   5]+0.125*[#   8]+0.125*[#  15]+0.125*[#  18]+0.125*[#  25]
          +0.125*[#  28]+0.125*[#  35]+0.125*[#  38]
    |psi|^2 = 1.000
==== e(  31) =    15.55543 eV ==== 
     psi = 0.218*[#   5]+0.218*[#   8]+0.176*[#  35]+0.135*[#  18]+0.135*[#  28]
          +0.052*[#  15]+0.052*[#  25]+0.010*[#  38]+0.001*[#  10]
    |psi|^2 = 0.999
==== e(  32) =    15.55544 eV ==== 
     psi = 0.239*[#  38]+0.197*[#  15]+0.197*[#  25]+0.114*[#  18]+0.114*[#  28]
          +0.073*[#  35]+0.031*[#   5]+0.031*[#   8]
    |psi|^2 = 0.999
==== e(  33) =    15.57068 eV ==== 
     psi = 0.136*[#  10]+0.136*[#  20]+0.136*[#  30]+0.136*[#  40]+0.052*[#   5]
          +0.052*[#   8]+0.052*[#  15]+0.052*[#  18]+0.052*[#  25]+0.052*[#  28]
          +0.052*[#  35]+0.052*[#  38]
    |psi|^2 = 0.964
==== e(  34) =    15.65161 eV ==== 
     psi = 0.083*[#   6]+0.083*[#   7]+0.083*[#   9]+0.083*[#  16]+0.083*[#  17]
          +0.083*[#  19]+0.083*[#  26]+0.083*[#  27]+0.083*[#  29]+0.083*[#  36]
          +0.083*[#  37]+0.083*[#  39]
    |psi|^2 = 0.999
==== e(  35) =    15.65161 eV ==== 
     psi = 0.083*[#   6]+0.083*[#   7]+0.083*[#   9]+0.083*[#  16]+0.083*[#  17]
          +0.083*[#  19]+0.083*[#  26]+0.083*[#  27]+0.083*[#  29]+0.083*[#  36]
          +0.083*[#  37]+0.083*[#  39]
    |psi|^2 = 0.999
==== e(  36) =    15.80284 eV ==== 
     psi = 0.125*[#   5]+0.125*[#   8]+0.125*[#  15]+0.125*[#  18]+0.125*[#  25]
          +0.125*[#  28]+0.125*[#  35]+0.125*[#  38]
    |psi|^2 = 1.000
==== e(  37) =    16.08818 eV ==== 
     psi = 0.167*[#  16]+0.167*[#  19]+0.167*[#  27]+0.167*[#  29]+0.167*[#  36]
          +0.167*[#  37]
    |psi|^2 = 1.000
==== e(  38) =    16.08818 eV ==== 
     psi = 0.167*[#   6]+0.167*[#   7]+0.167*[#   9]+0.167*[#  17]+0.167*[#  26]
          +0.167*[#  39]
    |psi|^2 = 1.000
==== e(  39) =    21.23249 eV ==== 
     psi = 0.003*[#   6]+0.003*[#   7]+0.003*[#   9]+0.003*[#  16]+0.003*[#  17]
          +0.003*[#  19]+0.003*[#  26]+0.003*[#  27]+0.003*[#  29]+0.003*[#  36]
          +0.003*[#  37]+0.003*[#  39]
    |psi|^2 = 0.042
==== e(  40) =    21.23249 eV ==== 
     psi = 0.003*[#   6]+0.003*[#   7]+0.003*[#   9]+0.003*[#  16]+0.003*[#  17]
          +0.003*[#  19]+0.003*[#  26]+0.003*[#  27]+0.003*[#  29]+0.003*[#  36]
          +0.003*[#  37]+0.003*[#  39]
    |psi|^2 = 0.042
==== e(  41) =    25.08040 eV ==== 
     psi = 0.333*[#  10]+0.111*[#  20]+0.111*[#  30]+0.111*[#  40]+0.006*[#   1]
          +0.005*[#  35]+0.004*[#  18]+0.004*[#  28]+0.002*[#  15]+0.002*[#  25]
          +0.002*[#  11]+0.002*[#  21]+0.002*[#  31]+0.002*[#   5]+0.002*[#   8]
          +0.001*[#  38]
    |psi|^2 = 0.701
==== e(  42) =    25.08040 eV ==== 
     psi = 0.222*[#  20]+0.222*[#  30]+0.222*[#  40]+0.005*[#  38]+0.004*[#   5]
          +0.004*[#   8]+0.004*[#  11]+0.004*[#  21]+0.004*[#  31]+0.004*[#  15]
          +0.004*[#  25]+0.002*[#  18]+0.002*[#  28]
    |psi|^2 = 0.701
==== e(  43) =    26.48159 eV ==== 

    |psi|^2 = 0.005
==== e(  44) =    26.48159 eV ==== 

    |psi|^2 = 0.005
==== e(  45) =    27.67609 eV ==== 
     psi = 0.134*[#  10]+0.045*[#  20]+0.045*[#  30]+0.045*[#  40]+0.002*[#   1]
          
    |psi|^2 = 0.276
==== e(  46) =    27.67609 eV ==== 
     psi = 0.090*[#  20]+0.090*[#  30]+0.090*[#  40]+0.001*[#  11]+0.001*[#  21]
          +0.001*[#  31]
    |psi|^2 = 0.276

 k =   0.0000000000  0.0000000000  0.3750000000
==== e(   1) =   -95.09550 eV ==== 
     psi = 0.245*[#  11]+0.245*[#  21]+0.245*[#  31]+0.245*[#   1]+0.005*[#  10]
          +0.005*[#  20]+0.005*[#  30]+0.005*[#  40]
    |psi|^2 = 1.000
==== e(   2) =   -95.08825 eV ==== 
     psi = 0.250*[#  11]+0.250*[#  21]+0.250*[#  31]+0.249*[#   1]
    |psi|^2 = 1.000
==== e(   3) =   -95.08239 eV ==== 
     psi = 0.328*[#  11]+0.328*[#  21]+0.328*[#  31]+0.005*[#  20]+0.005*[#  30]
          +0.005*[#  40]
    |psi|^2 = 1.000
==== e(   4) =   -95.08239 eV ==== 
     psi = 0.492*[#   1]+0.164*[#  11]+0.164*[#  21]+0.164*[#  31]+0.008*[#  10]
          +0.003*[#  20]+0.003*[#  30]+0.003*[#  40]
    |psi|^2 = 1.000
==== e(   5) =   -52.53214 eV ==== 
     psi = 0.083*[#   2]+0.083*[#   3]+0.083*[#   4]+0.083*[#  12]+0.083*[#  13]
          +0.083*[#  14]+0.083*[#  22]+0.083*[#  23]+0.083*[#  24]+0.083*[#  32]
          +0.083*[#  33]+0.083*[#  34]
    |psi|^2 = 1.000
==== e(   6) =   -52.53214 eV ==== 
     psi = 0.083*[#   2]+0.083*[#   3]+0.083*[#   4]+0.083*[#  12]+0.083*[#  13]
          +0.083*[#  14]+0.083*[#  22]+0.083*[#  23]+0.083*[#  24]+0.083*[#  32]
          +0.083*[#  33]+0.083*[#  34]
    |psi|^2 = 1.000
==== e(   7) =   -52.51972 eV ==== 
     psi = 0.083*[#   2]+0.083*[#   3]+0.083*[#   4]+0.083*[#  12]+0.083*[#  13]
          +0.083*[#  14]+0.083*[#  22]+0.083*[#  23]+0.083*[#  24]+0.083*[#  32]
          +0.083*[#  33]+0.083*[#  34]+0.001*[#  10]+0.001*[#  20]+0.001*[#  30]
          +0.001*[#  40]
    |psi|^2 = 1.000
==== e(   8) =   -52.50838 eV ==== 
     psi = 0.083*[#   2]+0.083*[#   3]+0.083*[#   4]+0.083*[#  12]+0.083*[#  13]
          +0.083*[#  14]+0.083*[#  22]+0.083*[#  23]+0.083*[#  24]+0.083*[#  32]
          +0.083*[#  33]+0.083*[#  34]
    |psi|^2 = 1.000
==== e(   9) =   -52.50838 eV ==== 
     psi = 0.083*[#   2]+0.083*[#   3]+0.083*[#   4]+0.083*[#  12]+0.083*[#  13]
          +0.083*[#  14]+0.083*[#  22]+0.083*[#  23]+0.083*[#  24]+0.083*[#  32]
          +0.083*[#  33]+0.083*[#  34]
    |psi|^2 = 1.000
==== e(  10) =   -52.48965 eV ==== 
     psi = 0.167*[#   2]+0.167*[#   3]+0.167*[#   4]+0.167*[#  13]+0.167*[#  24]
          +0.167*[#  32]
    |psi|^2 = 1.000
==== e(  11) =   -52.48964 eV ==== 
     psi = 0.167*[#  12]+0.167*[#  14]+0.167*[#  22]+0.167*[#  23]+0.167*[#  33]
          +0.167*[#  34]
    |psi|^2 = 1.000
==== e(  12) =   -52.47987 eV ==== 
     psi = 0.083*[#   2]+0.083*[#   3]+0.083*[#   4]+0.083*[#  12]+0.083*[#  13]
          +0.083*[#  14]+0.083*[#  22]+0.083*[#  23]+0.083*[#  24]+0.083*[#  32]
          +0.083*[#  33]+0.083*[#  34]+0.001*[#  10]+0.001*[#  20]+0.001*[#  30]
          +0.001*[#  40]
    |psi|^2 = 1.000
==== e(  13) =   -52.47622 eV ==== 
     psi = 0.083*[#   2]+0.083*[#   3]+0.083*[#   4]+0.083*[#  12]+0.083*[#  13]
          +0.083*[#  14]+0.083*[#  22]+0.083*[#  23]+0.083*[#  24]+0.083*[#  32]
          +0.083*[#  33]+0.083*[#  34]
    |psi|^2 = 1.000
==== e(  14) =   -52.47622 eV ==== 
     psi = 0.083*[#   2]+0.083*[#   3]+0.083*[#   4]+0.083*[#  12]+0.083*[#  13]
          +0.083*[#  14]+0.083*[#  22]+0.083*[#  23]+0.083*[#  24]+0.083*[#  32]
          +0.083*[#  33]+0.083*[#  34]
    |psi|^2 = 1.000
==== e(  15) =   -52.46014 eV ==== 
     psi = 0.083*[#   2]+0.083*[#   3]+0.083*[#   4]+0.083*[#  12]+0.083*[#  13]
          +0.083*[#  14]+0.083*[#  22]+0.083*[#  23]+0.083*[#  24]+0.083*[#  32]
          +0.083*[#  33]+0.083*[#  34]
    |psi|^2 = 1.000
==== e(  16) =   -52.46014 eV ==== 
     psi = 0.083*[#   2]+0.083*[#   3]+0.083*[#   4]+0.083*[#  12]+0.083*[#  13]
          +0.083*[#  14]+0.083*[#  22]+0.083*[#  23]+0.083*[#  24]+0.083*[#  32]
          +0.083*[#  33]+0.083*[#  34]
    |psi|^2 = 1.000
==== e(  17) =     9.65431 eV ==== 
     psi = 0.237*[#  10]+0.237*[#  20]+0.237*[#  30]+0.237*[#  40]+0.005*[#   1]
          +0.005*[#  11]+0.005*[#  21]+0.005*[#  31]+0.003*[#   5]+0.003*[#   8]
          +0.003*[#  15]+0.003*[#  18]+0.003*[#  25]+0.003*[#  28]+0.003*[#  35]
          +0.003*[#  38]
    |psi|^2 = 0.998
==== e(  18) =    11.87332 eV ==== 
     psi = 0.153*[#  10]+0.153*[#  20]+0.153*[#  30]+0.153*[#  40]+0.047*[#   5]
          +0.047*[#   8]+0.047*[#  15]+0.047*[#  18]+0.047*[#  25]+0.047*[#  28]
          +0.047*[#  35]+0.047*[#  38]
    |psi|^2 = 0.993
==== e(  19) =    13.21694 eV ==== 
     psi = 0.240*[#  35]+0.199*[#  18]+0.199*[#  28]+0.117*[#  15]+0.117*[#  25]
          +0.076*[#  38]+0.017*[#   5]+0.017*[#   8]+0.005*[#  10]+0.002*[#  20]
          +0.002*[#  30]+0.002*[#  40]
    |psi|^2 = 0.993
==== e(  20) =    13.21694 eV ==== 
     psi = 0.229*[#   5]+0.229*[#   8]+0.169*[#  38]+0.128*[#  15]+0.128*[#  25]
          +0.046*[#  18]+0.046*[#  28]+0.006*[#  35]+0.003*[#  20]+0.003*[#  30]
          +0.003*[#  40]
    |psi|^2 = 0.993
==== e(  21) =    13.50127 eV ==== 
     psi = 0.083*[#   6]+0.083*[#   7]+0.083*[#   9]+0.083*[#  16]+0.083*[#  17]
          +0.083*[#  19]+0.083*[#  26]+0.083*[#  27]+0.083*[#  29]+0.083*[#  36]
          +0.083*[#  37]+0.083*[#  39]
    |psi|^2 = 1.000
==== e(  22) =    13.57437 eV ==== 
     psi = 0.083*[#   6]+0.083*[#   7]+0.083*[#   9]+0.083*[#  16]+0.083*[#  17]
          +0.083*[#  19]+0.083*[#  26]+0.083*[#  27]+0.083*[#  29]+0.083*[#  36]
          +0.083*[#  37]+0.083*[#  39]
    |psi|^2 = 0.991
==== e(  23) =    13.57437 eV ==== 
     psi = 0.083*[#   6]+0.083*[#   7]+0.083*[#   9]+0.083*[#  16]+0.083*[#  17]
          +0.083*[#  19]+0.083*[#  26]+0.083*[#  27]+0.083*[#  29]+0.083*[#  36]
          +0.083*[#  37]+0.083*[#  39]
    |psi|^2 = 0.991
==== e(  24) =    14.04980 eV ==== 
     psi = 0.083*[#   6]+0.083*[#   7]+0.083*[#   9]+0.083*[#  16]+0.083*[#  17]
          +0.083*[#  19]+0.083*[#  26]+0.083*[#  27]+0.083*[#  29]+0.083*[#  36]
          +0.083*[#  37]+0.083*[#  39]
    |psi|^2 = 1.000
==== e(  25) =    14.49640 eV ==== 
     psi = 0.080*[#   6]+0.080*[#   7]+0.080*[#   9]+0.080*[#  16]+0.080*[#  17]
          +0.080*[#  19]+0.080*[#  26]+0.080*[#  27]+0.080*[#  29]+0.080*[#  36]
          +0.080*[#  37]+0.080*[#  39]
    |psi|^2 = 0.966
==== e(  26) =    14.49640 eV ==== 
     psi = 0.080*[#   6]+0.080*[#   7]+0.080*[#   9]+0.080*[#  16]+0.080*[#  17]
          +0.080*[#  19]+0.080*[#  26]+0.080*[#  27]+0.080*[#  29]+0.080*[#  36]
          +0.080*[#  37]+0.080*[#  39]
    |psi|^2 = 0.966
==== e(  27) =    14.90858 eV ==== 
     psi = 0.083*[#   6]+0.083*[#   7]+0.083*[#   9]+0.083*[#  16]+0.083*[#  17]
          +0.083*[#  19]+0.083*[#  26]+0.083*[#  27]+0.083*[#  29]+0.083*[#  36]
          +0.083*[#  37]+0.083*[#  39]
    |psi|^2 = 0.999
==== e(  28) =    14.90858 eV ==== 
     psi = 0.083*[#   6]+0.083*[#   7]+0.083*[#   9]+0.083*[#  16]+0.083*[#  17]
          +0.083*[#  19]+0.083*[#  26]+0.083*[#  27]+0.083*[#  29]+0.083*[#  36]
          +0.083*[#  37]+0.083*[#  39]
    |psi|^2 = 0.999
==== e(  29) =    14.98577 eV ==== 
     psi = 0.122*[#   5]+0.122*[#   8]+0.122*[#  15]+0.122*[#  18]+0.122*[#  25]
          +0.122*[#  28]+0.122*[#  35]+0.122*[#  38]+0.006*[#  10]+0.006*[#  20]
          +0.006*[#  30]+0.006*[#  40]
    |psi|^2 = 1.000
==== e(  30) =    15.14339 eV ==== 
     psi = 0.091*[#  10]+0.091*[#  20]+0.091*[#  30]+0.091*[#  40]+0.077*[#   5]
          +0.077*[#   8]+0.077*[#  15]+0.077*[#  18]+0.077*[#  25]+0.077*[#  28]
          +0.077*[#  35]+0.077*[#  38]
    |psi|^2 = 0.986
==== e(  31) =    15.43898 eV ==== 
     psi = 0.231*[#   5]+0.231*[#   8]+0.171*[#  35]+0.130*[#  18]+0.130*[#  28]
          +0.047*[#  15]+0.047*[#  25]+0.006*[#  38]+0.003*[#  10]
    |psi|^2 = 0.999
==== e(  32) =    15.43899 eV ==== 
     psi = 0.243*[#  38]+0.201*[#  15]+0.201*[#  25]+0.118*[#  18]+0.118*[#  28]
          +0.077*[#  35]+0.018*[#   5]+0.018*[#   8]+0.002*[#  20]+0.002*[#  30]
          +0.002*[#  40]
    |psi|^2 = 0.999
==== e(  33) =    15.49888 eV ==== 
     psi = 0.083*[#   6]+0.083*[#   7]+0.083*[#   9]+0.083*[#  16]+0.083*[#  17]
          +0.083*[#  19]+0.083*[#  26]+0.083*[#  27]+0.083*[#  29]+0.083*[#  36]
          +0.083*[#  37]+0.083*[#  39]
    |psi|^2 = 0.999
==== e(  34) =    15.49888 eV ==== 
     psi = 0.083*[#   6]+0.083*[#   7]+0.083*[#   9]+0.083*[#  16]+0.083*[#  17]
          +0.083*[#  19]+0.083*[#  26]+0.083*[#  27]+0.083*[#  29]+0.083*[#  36]
          +0.083*[#  37]+0.083*[#  39]
    |psi|^2 = 0.999
==== e(  35) =    15.53705 eV ==== 
     psi = 0.125*[#   5]+0.125*[#   8]+0.125*[#  15]+0.125*[#  18]+0.125*[#  25]
          +0.125*[#  28]+0.125*[#  35]+0.125*[#  38]
    |psi|^2 = 1.000
==== e(  36) =    15.75340 eV ==== 
     psi = 0.125*[#   5]+0.125*[#   8]+0.125*[#  15]+0.125*[#  18]+0.125*[#  25]
          +0.125*[#  28]+0.125*[#  35]+0.125*[#  38]
    |psi|^2 = 1.000
==== e(  37) =    16.08831 eV ==== 
     psi = 0.167*[#  16]+0.167*[#  19]+0.167*[#  27]+0.167*[#  29]+0.167*[#  36]
          +0.167*[#  37]
    |psi|^2 = 1.000
==== e(  38) =    16.08831 eV ==== 
     psi = 0.167*[#   6]+0.167*[#   7]+0.167*[#   9]+0.167*[#  17]+0.167*[#  26]
          +0.167*[#  39]
    |psi|^2 = 1.000
==== e(  39) =    21.99207 eV ==== 
     psi = 0.003*[#   6]+0.003*[#   7]+0.003*[#   9]+0.003*[#  16]+0.003*[#  17]
          +0.003*[#  19]+0.003*[#  26]+0.003*[#  27]+0.003*[#  29]+0.003*[#  36]
          +0.003*[#  37]+0.003*[#  39]
    |psi|^2 = 0.033
==== e(  40) =    21.99207 eV ==== 
     psi = 0.003*[#   6]+0.003*[#   7]+0.003*[#   9]+0.003*[#  16]+0.003*[#  17]
          +0.003*[#  19]+0.003*[#  26]+0.003*[#  27]+0.003*[#  29]+0.003*[#  36]
          +0.003*[#  37]+0.003*[#  39]
    |psi|^2 = 0.033
==== e(  41) =    25.31094 eV ==== 
     psi = 0.274*[#  10]+0.091*[#  20]+0.091*[#  30]+0.091*[#  40]+0.005*[#   1]
          +0.004*[#  35]+0.003*[#  18]+0.003*[#  28]+0.002*[#  15]+0.002*[#  25]
          +0.002*[#  11]+0.002*[#  21]+0.002*[#  31]+0.001*[#   5]+0.001*[#   8]
          +0.001*[#  38]
    |psi|^2 = 0.576
==== e(  42) =    25.31094 eV ==== 
     psi = 0.183*[#  20]+0.183*[#  30]+0.183*[#  40]+0.003*[#  38]+0.003*[#   5]
          +0.003*[#   8]+0.003*[#  11]+0.003*[#  21]+0.003*[#  31]+0.003*[#  15]
          +0.003*[#  25]+0.001*[#  18]+0.001*[#  28]
    |psi|^2 = 0.576
==== e(  43) =    25.50784 eV ==== 

    |psi|^2 = 0.008
==== e(  44) =    25.50784 eV ==== 

    |psi|^2 = 0.008
==== e(  45) =    27.05756 eV ==== 
     psi = 0.199*[#  10]+0.066*[#  20]+0.066*[#  30]+0.066*[#  40]+0.003*[#   1]
          +0.001*[#  11]+0.001*[#  21]+0.001*[#  31]
    |psi|^2 = 0.408
==== e(  46) =    27.05757 eV ==== 
     psi = 0.133*[#  20]+0.133*[#  30]+0.133*[#  40]+0.002*[#  11]+0.002*[#  21]
          +0.002*[#  31]
    |psi|^2 = 0.408

 k =   0.0000000000  0.0000000000  0.4375000000
==== e(   1) =   -95.09373 eV ==== 
     psi = 0.247*[#  11]+0.247*[#  21]+0.247*[#  31]+0.246*[#   1]+0.003*[#  10]
          +0.003*[#  20]+0.003*[#  30]+0.003*[#  40]
    |psi|^2 = 1.000
==== e(   2) =   -95.09002 eV ==== 
     psi = 0.249*[#   1]+0.249*[#  11]+0.249*[#  21]+0.249*[#  31]
    |psi|^2 = 1.000
==== e(   3) =   -95.08239 eV ==== 
     psi = 0.328*[#  11]+0.328*[#  21]+0.328*[#  31]+0.005*[#  20]+0.005*[#  30]
          +0.005*[#  40]
    |psi|^2 = 1.000
==== e(   4) =   -95.08239 eV ==== 
     psi = 0.492*[#   1]+0.164*[#  11]+0.164*[#  21]+0.164*[#  31]+0.008*[#  10]
          +0.003*[#  20]+0.003*[#  30]+0.003*[#  40]
    |psi|^2 = 1.000
==== e(   5) =   -52.52632 eV ==== 
     psi = 0.083*[#   2]+0.083*[#   3]+0.083*[#   4]+0.083*[#  12]+0.083*[#  13]
          +0.083*[#  14]+0.083*[#  22]+0.083*[#  23]+0.083*[#  24]+0.083*[#  32]
          +0.083*[#  33]+0.083*[#  34]
    |psi|^2 = 1.000
==== e(   6) =   -52.52632 eV ==== 
     psi = 0.083*[#   2]+0.083*[#   3]+0.083*[#   4]+0.083*[#  12]+0.083*[#  13]
          +0.083*[#  14]+0.083*[#  22]+0.083*[#  23]+0.083*[#  24]+0.083*[#  32]
          +0.083*[#  33]+0.083*[#  34]
    |psi|^2 = 1.000
==== e(   7) =   -52.51420 eV ==== 
     psi = 0.083*[#   2]+0.083*[#   3]+0.083*[#   4]+0.083*[#  12]+0.083*[#  13]
          +0.083*[#  14]+0.083*[#  22]+0.083*[#  23]+0.083*[#  24]+0.083*[#  32]
          +0.083*[#  33]+0.083*[#  34]
    |psi|^2 = 1.000
==== e(   8) =   -52.51420 eV ==== 
     psi = 0.083*[#   2]+0.083*[#   3]+0.083*[#   4]+0.083*[#  12]+0.083*[#  13]
          +0.083*[#  14]+0.083*[#  22]+0.083*[#  23]+0.083*[#  24]+0.083*[#  32]
          +0.083*[#  33]+0.083*[#  34]
    |psi|^2 = 1.000
==== e(   9) =   -52.51003 eV ==== 
     psi = 0.083*[#   2]+0.083*[#   3]+0.083*[#   4]+0.083*[#  12]+0.083*[#  13]
          +0.083*[#  14]+0.083*[#  22]+0.083*[#  23]+0.083*[#  24]+0.083*[#  32]
          +0.083*[#  33]+0.083*[#  34]+0.001*[#  10]+0.001*[#  20]+0.001*[#  30]
          +0.001*[#  40]
    |psi|^2 = 1.000
==== e(  10) =   -52.48971 eV ==== 
     psi = 0.122*[#  13]+0.122*[#  24]+0.122*[#  32]+0.081*[#  12]+0.081*[#  14]
          +0.081*[#  22]+0.081*[#  23]+0.081*[#  33]+0.081*[#  34]+0.048*[#   2]
          +0.048*[#   3]+0.048*[#   4]+0.001*[#  10]+0.001*[#  20]+0.001*[#  30]
          +0.001*[#  40]
    |psi|^2 = 1.000
==== e(  11) =   -52.48970 eV ==== 
     psi = 0.201*[#   2]+0.201*[#   3]+0.201*[#   4]+0.128*[#  13]+0.128*[#  24]
          +0.128*[#  32]+0.002*[#  12]+0.002*[#  14]+0.002*[#  22]+0.002*[#  23]
          +0.002*[#  33]+0.002*[#  34]
    |psi|^2 = 1.000
==== e(  12) =   -52.48970 eV ==== 
     psi = 0.167*[#  12]+0.167*[#  14]+0.167*[#  22]+0.167*[#  23]+0.167*[#  33]
          +0.167*[#  34]
    |psi|^2 = 1.000
==== e(  13) =   -52.47228 eV ==== 
     psi = 0.083*[#   2]+0.083*[#   3]+0.083*[#   4]+0.083*[#  12]+0.083*[#  13]
          +0.083*[#  14]+0.083*[#  22]+0.083*[#  23]+0.083*[#  24]+0.083*[#  32]
          +0.083*[#  33]+0.083*[#  34]
    |psi|^2 = 1.000
==== e(  14) =   -52.47228 eV ==== 
     psi = 0.083*[#   2]+0.083*[#   3]+0.083*[#   4]+0.083*[#  12]+0.083*[#  13]
          +0.083*[#  14]+0.083*[#  22]+0.083*[#  23]+0.083*[#  24]+0.083*[#  32]
          +0.083*[#  33]+0.083*[#  34]
    |psi|^2 = 1.000
==== e(  15) =   -52.46408 eV ==== 
     psi = 0.083*[#   2]+0.083*[#   3]+0.083*[#   4]+0.083*[#  12]+0.083*[#  13]
          +0.083*[#  14]+0.083*[#  22]+0.083*[#  23]+0.083*[#  24]+0.083*[#  32]
          +0.083*[#  33]+0.083*[#  34]
    |psi|^2 = 1.000
==== e(  16) =   -52.46408 eV ==== 
     psi = 0.083*[#   2]+0.083*[#   3]+0.083*[#   4]+0.083*[#  12]+0.083*[#  13]
          +0.083*[#  14]+0.083*[#  22]+0.083*[#  23]+0.083*[#  24]+0.083*[#  32]
          +0.083*[#  33]+0.083*[#  34]
    |psi|^2 = 1.000
==== e(  17) =    10.20197 eV ==== 
     psi = 0.231*[#  10]+0.231*[#  20]+0.231*[#  30]+0.231*[#  40]+0.007*[#   5]
          +0.007*[#   8]+0.007*[#  15]+0.007*[#  18]+0.007*[#  25]+0.007*[#  28]
          +0.007*[#  35]+0.007*[#  38]+0.003*[#   1]+0.003*[#  11]+0.003*[#  21]
          +0.003*[#  31]
    |psi|^2 = 0.998
==== e(  18) =    11.36548 eV ==== 
     psi = 0.194*[#  10]+0.194*[#  20]+0.194*[#  30]+0.194*[#  40]+0.027*[#   5]
          +0.027*[#   8]+0.027*[#  15]+0.027*[#  18]+0.027*[#  25]+0.027*[#  28]
          +0.027*[#  35]+0.027*[#  38]
    |psi|^2 = 0.995
==== e(  19) =    13.32042 eV ==== 
[...]
     psi = 0.333*[#  13]+0.333*[#  24]+0.333*[#  32]
    |psi|^2 = 1.000
==== e(   6) =   -52.55584 eV ==== 
     psi = 0.112*[#   2]+0.112*[#   3]+0.112*[#   4]+0.111*[#  12]+0.111*[#  14]
          +0.111*[#  22]+0.111*[#  23]+0.111*[#  33]+0.111*[#  34]
    |psi|^2 = 1.000
==== e(   7) =   -52.55584 eV ==== 
     psi = 0.112*[#   2]+0.112*[#   3]+0.112*[#   4]+0.111*[#  12]+0.111*[#  14]
          +0.111*[#  22]+0.111*[#  23]+0.111*[#  33]+0.111*[#  34]
    |psi|^2 = 1.000
==== e(   8) =   -52.55584 eV ==== 
     psi = 0.112*[#  12]+0.112*[#  14]+0.112*[#  22]+0.112*[#  23]+0.112*[#  33]
          +0.112*[#  34]+0.110*[#   2]+0.110*[#   3]+0.110*[#   4]
    |psi|^2 = 1.000
==== e(   9) =   -52.46448 eV ==== 
     psi = 0.333*[#  13]+0.333*[#  24]+0.333*[#  32]
    |psi|^2 = 1.000
==== e(  10) =   -52.46447 eV ==== 
     psi = 0.223*[#   2]+0.223*[#   3]+0.223*[#   4]+0.055*[#  12]+0.055*[#  14]
          +0.055*[#  22]+0.055*[#  23]+0.055*[#  33]+0.055*[#  34]
    |psi|^2 = 1.000
==== e(  11) =   -52.46447 eV ==== 
     psi = 0.139*[#  12]+0.139*[#  14]+0.139*[#  22]+0.139*[#  23]+0.139*[#  33]
          +0.139*[#  34]+0.055*[#   2]+0.055*[#   3]+0.055*[#   4]
    |psi|^2 = 1.000
==== e(  12) =   -52.46447 eV ==== 
     psi = 0.139*[#  12]+0.139*[#  14]+0.139*[#  22]+0.139*[#  23]+0.139*[#  33]
          +0.139*[#  34]+0.055*[#   2]+0.055*[#   3]+0.055*[#   4]
    |psi|^2 = 1.000
==== e(  13) =   -52.46370 eV ==== 
     psi = 0.333*[#  13]+0.333*[#  24]+0.333*[#  32]
    |psi|^2 = 1.000
==== e(  14) =   -52.46369 eV ==== 
     psi = 0.166*[#   2]+0.166*[#   3]+0.166*[#   4]+0.083*[#  12]+0.083*[#  14]
          +0.083*[#  22]+0.083*[#  23]+0.083*[#  33]+0.083*[#  34]
    |psi|^2 = 1.000
==== e(  15) =   -52.46369 eV ==== 
     psi = 0.166*[#   2]+0.166*[#   3]+0.166*[#   4]+0.083*[#  12]+0.083*[#  14]
          +0.083*[#  22]+0.083*[#  23]+0.083*[#  33]+0.083*[#  34]
    |psi|^2 = 1.000
==== e(  16) =   -52.46369 eV ==== 
     psi = 0.167*[#  12]+0.167*[#  14]+0.167*[#  22]+0.167*[#  23]+0.167*[#  33]
          +0.167*[#  34]
    |psi|^2 = 1.000
==== e(  17) =    12.38717 eV ==== 
     psi = 0.281*[#  17]+0.281*[#  26]+0.281*[#  39]+0.155*[#  10]+0.002*[#   1]
          
    |psi|^2 = 0.999
==== e(  18) =    12.38717 eV ==== 
     psi = 0.094*[#  16]+0.094*[#  19]+0.094*[#  27]+0.094*[#  29]+0.094*[#  36]
          +0.094*[#  37]+0.093*[#   6]+0.093*[#   7]+0.093*[#   9]+0.052*[#  20]
          +0.052*[#  30]+0.052*[#  40]
    |psi|^2 = 0.999
==== e(  19) =    12.38717 eV ==== 
     psi = 0.094*[#  16]+0.094*[#  19]+0.094*[#  27]+0.094*[#  29]+0.094*[#  36]
          +0.094*[#  37]+0.093*[#   6]+0.093*[#   7]+0.093*[#   9]+0.052*[#  20]
          +0.052*[#  30]+0.052*[#  40]
    |psi|^2 = 0.999
==== e(  20) =    12.38717 eV ==== 
     psi = 0.095*[#   6]+0.095*[#   7]+0.095*[#   9]+0.093*[#  16]+0.093*[#  19]
          +0.093*[#  27]+0.093*[#  29]+0.093*[#  36]+0.093*[#  37]+0.052*[#  20]
          +0.052*[#  30]+0.052*[#  40]
    |psi|^2 = 0.999
==== e(  21) =    14.47110 eV ==== 
     psi = 0.300*[#   5]+0.300*[#   8]+0.133*[#  17]+0.133*[#  26]+0.133*[#  39]
          
    |psi|^2 = 0.999
==== e(  22) =    14.47111 eV ==== 
     psi = 0.200*[#  35]+0.150*[#  18]+0.150*[#  28]+0.090*[#   6]+0.090*[#   7]
          +0.090*[#   9]+0.050*[#  15]+0.050*[#  25]+0.022*[#  16]+0.022*[#  19]
          +0.022*[#  27]+0.022*[#  29]+0.022*[#  36]+0.022*[#  37]
    |psi|^2 = 0.999
==== e(  23) =    14.47111 eV ==== 
     psi = 0.150*[#  38]+0.125*[#  15]+0.125*[#  25]+0.075*[#  18]+0.075*[#  28]
          +0.056*[#  16]+0.056*[#  19]+0.056*[#  27]+0.056*[#  29]+0.056*[#  36]
          +0.056*[#  37]+0.050*[#  35]+0.022*[#   6]+0.022*[#   7]+0.022*[#   9]
          
    |psi|^2 = 0.999
==== e(  24) =    14.47111 eV ==== 
     psi = 0.150*[#  38]+0.125*[#  15]+0.125*[#  25]+0.075*[#  18]+0.075*[#  28]
          +0.056*[#  16]+0.056*[#  19]+0.056*[#  27]+0.056*[#  29]+0.056*[#  36]
          +0.056*[#  37]+0.050*[#  35]+0.022*[#   6]+0.022*[#   7]+0.022*[#   9]
          
    |psi|^2 = 0.999
==== e(  25) =    14.49339 eV ==== 
     psi = 0.298*[#   5]+0.298*[#   8]+0.135*[#  17]+0.135*[#  26]+0.135*[#  39]
          
    |psi|^2 = 1.000
==== e(  26) =    14.49340 eV ==== 
     psi = 0.149*[#  35]+0.124*[#  18]+0.124*[#  28]+0.074*[#  15]+0.074*[#  25]
          +0.067*[#   6]+0.067*[#   7]+0.067*[#   9]+0.050*[#  38]+0.034*[#  16]
          +0.034*[#  19]+0.034*[#  27]+0.034*[#  29]+0.034*[#  36]+0.034*[#  37]
          
    |psi|^2 = 1.000
==== e(  27) =    14.49340 eV ==== 
     psi = 0.149*[#  35]+0.124*[#  18]+0.124*[#  28]+0.074*[#  15]+0.074*[#  25]
          +0.067*[#   6]+0.067*[#   7]+0.067*[#   9]+0.050*[#  38]+0.034*[#  16]
          +0.034*[#  19]+0.034*[#  27]+0.034*[#  29]+0.034*[#  36]+0.034*[#  37]
          
    |psi|^2 = 1.000
==== e(  28) =    14.49340 eV ==== 
     psi = 0.198*[#  38]+0.149*[#  15]+0.149*[#  25]+0.067*[#  16]+0.067*[#  19]
          +0.067*[#  27]+0.067*[#  29]+0.067*[#  36]+0.067*[#  37]+0.050*[#  18]
          +0.050*[#  28]
    |psi|^2 = 1.000
==== e(  29) =    15.72782 eV ==== 
     psi = 0.162*[#  17]+0.162*[#  26]+0.162*[#  39]+0.149*[#   5]+0.149*[#   8]
          +0.013*[#  10]
    |psi|^2 = 0.797
==== e(  30) =    15.72782 eV ==== 
     psi = 0.100*[#  35]+0.091*[#   6]+0.091*[#   7]+0.091*[#   9]+0.075*[#  18]
          +0.075*[#  28]+0.035*[#  16]+0.035*[#  19]+0.035*[#  27]+0.035*[#  29]
          +0.035*[#  36]+0.035*[#  37]+0.025*[#  15]+0.025*[#  25]+0.004*[#  20]
          +0.004*[#  30]+0.004*[#  40]
    |psi|^2 = 0.797
==== e(  31) =    15.72782 eV ==== 
     psi = 0.075*[#  38]+0.063*[#  16]+0.063*[#  19]+0.063*[#  27]+0.063*[#  29]
          +0.063*[#  36]+0.063*[#  37]+0.062*[#  15]+0.062*[#  25]+0.037*[#  18]
          +0.037*[#  28]+0.035*[#   6]+0.035*[#   7]+0.035*[#   9]+0.025*[#  35]
          +0.004*[#  20]+0.004*[#  30]+0.004*[#  40]
    |psi|^2 = 0.797
==== e(  32) =    15.72782 eV ==== 
     psi = 0.075*[#  38]+0.063*[#  16]+0.063*[#  19]+0.063*[#  27]+0.063*[#  29]
          +0.063*[#  36]+0.063*[#  37]+0.062*[#  15]+0.062*[#  25]+0.037*[#  18]
          +0.037*[#  28]+0.035*[#   6]+0.035*[#   7]+0.035*[#   9]+0.025*[#  35]
          +0.004*[#  20]+0.004*[#  30]+0.004*[#  40]
    |psi|^2 = 0.797
==== e(  33) =    15.93018 eV ==== 
     psi = 0.202*[#   5]+0.202*[#   8]+0.198*[#  17]+0.198*[#  26]+0.198*[#  39]
          
    |psi|^2 = 1.000
==== e(  34) =    15.93018 eV ==== 
     psi = 0.101*[#  35]+0.099*[#   6]+0.099*[#   7]+0.099*[#   9]+0.084*[#  18]
          +0.084*[#  28]+0.051*[#  15]+0.051*[#  25]+0.050*[#  16]+0.050*[#  19]
          +0.050*[#  27]+0.050*[#  29]+0.050*[#  36]+0.050*[#  37]+0.034*[#  38]
          
    |psi|^2 = 1.000
==== e(  35) =    15.93018 eV ==== 
     psi = 0.101*[#  35]+0.099*[#   6]+0.099*[#   7]+0.099*[#   9]+0.084*[#  18]
          +0.084*[#  28]+0.051*[#  15]+0.051*[#  25]+0.050*[#  16]+0.050*[#  19]
          +0.050*[#  27]+0.050*[#  29]+0.050*[#  36]+0.050*[#  37]+0.034*[#  38]
          
    |psi|^2 = 1.000
==== e(  36) =    15.93018 eV ==== 
     psi = 0.135*[#  38]+0.101*[#  15]+0.101*[#  25]+0.099*[#  16]+0.099*[#  19]
          +0.099*[#  27]+0.099*[#  29]+0.099*[#  36]+0.099*[#  37]+0.034*[#  18]
          +0.034*[#  28]
    |psi|^2 = 1.000
==== e(  37) =    16.55588 eV ==== 
     psi = 0.042*[#   6]+0.042*[#   7]+0.042*[#   9]+0.034*[#  35]+0.025*[#  18]
          +0.025*[#  28]+0.017*[#  20]+0.017*[#  30]+0.017*[#  40]+0.008*[#  15]
          +0.008*[#  25]+0.002*[#  16]+0.002*[#  19]+0.002*[#  27]+0.002*[#  29]
          +0.002*[#  36]+0.002*[#  37]
    |psi|^2 = 0.289
==== e(  38) =    16.55588 eV ==== 
     psi = 0.052*[#  10]+0.050*[#   5]+0.050*[#   8]+0.045*[#  17]+0.045*[#  26]
          +0.045*[#  39]
    |psi|^2 = 0.289
==== e(  39) =    16.55588 eV ==== 
     psi = 0.025*[#  38]+0.022*[#  16]+0.022*[#  19]+0.022*[#  27]+0.022*[#  29]
          +0.022*[#  36]+0.022*[#  37]+0.021*[#  15]+0.021*[#  25]+0.017*[#  20]
          +0.017*[#  30]+0.017*[#  40]+0.013*[#  18]+0.013*[#  28]+0.008*[#  35]
          +0.002*[#   6]+0.002*[#   7]+0.002*[#   9]
    |psi|^2 = 0.289
==== e(  40) =    16.55588 eV ==== 
     psi = 0.025*[#  38]+0.022*[#  16]+0.022*[#  19]+0.022*[#  27]+0.022*[#  29]
          +0.022*[#  36]+0.022*[#  37]+0.021*[#  15]+0.021*[#  25]+0.017*[#  20]
          +0.017*[#  30]+0.017*[#  40]+0.013*[#  18]+0.013*[#  28]+0.008*[#  35]
          +0.002*[#   6]+0.002*[#   7]+0.002*[#   9]
    |psi|^2 = 0.289
==== e(  41) =    21.39030 eV ==== 
     psi = 0.767*[#  10]+0.044*[#  17]+0.044*[#  26]+0.044*[#  39]+0.005*[#   1]
          
    |psi|^2 = 0.905
==== e(  42) =    21.39030 eV ==== 
     psi = 0.256*[#  20]+0.256*[#  30]+0.256*[#  40]+0.015*[#  16]+0.015*[#  19]
          +0.015*[#  27]+0.015*[#  29]+0.015*[#  36]+0.015*[#  37]+0.015*[#   6]
          +0.015*[#   7]+0.015*[#   9]+0.002*[#  11]+0.002*[#  21]+0.002*[#  31]
          
    |psi|^2 = 0.905
==== e(  43) =    21.39030 eV ==== 
     psi = 0.256*[#  20]+0.256*[#  30]+0.256*[#  40]+0.015*[#   6]+0.015*[#   7]
          +0.015*[#   9]+0.015*[#  16]+0.015*[#  19]+0.015*[#  27]+0.015*[#  29]
          +0.015*[#  36]+0.015*[#  37]+0.002*[#  11]+0.002*[#  21]+0.002*[#  31]
          
    |psi|^2 = 0.905
==== e(  44) =    21.39030 eV ==== 
     psi = 0.256*[#  20]+0.256*[#  30]+0.256*[#  40]+0.015*[#   6]+0.015*[#   7]
          +0.015*[#   9]+0.015*[#  16]+0.015*[#  19]+0.015*[#  27]+0.015*[#  29]
          +0.015*[#  36]+0.015*[#  37]+0.002*[#  11]+0.002*[#  21]+0.002*[#  31]
          
    |psi|^2 = 0.905
==== e(  45) =    38.24918 eV ==== 

    |psi|^2 = 0.000
==== e(  46) =    38.24918 eV ==== 

    |psi|^2 = 0.000

 k =  -0.5000000000 -0.5000000000 -0.5000000000
==== e(   1) =   -95.08711 eV ==== 
     psi = 0.331*[#  11]+0.331*[#  21]+0.331*[#  31]+0.001*[#  20]+0.001*[#  30]
          +0.001*[#  40]
    |psi|^2 = 1.000
==== e(   2) =   -95.08711 eV ==== 
     psi = 0.331*[#  11]+0.331*[#  21]+0.331*[#  31]+0.001*[#  20]+0.001*[#  30]
          +0.001*[#  40]
    |psi|^2 = 1.000
==== e(   3) =   -95.08711 eV ==== 
     psi = 0.331*[#  11]+0.331*[#  21]+0.331*[#  31]+0.001*[#  20]+0.001*[#  30]
          +0.001*[#  40]
    |psi|^2 = 1.000
==== e(   4) =   -95.08710 eV ==== 
     psi = 0.992*[#   1]+0.003*[#  10]+0.002*[#  17]+0.002*[#  26]+0.002*[#  39]
          
    |psi|^2 = 1.000
==== e(   5) =   -52.55664 eV ==== 
     psi = 0.333*[#  13]+0.333*[#  24]+0.333*[#  32]
    |psi|^2 = 1.000
==== e(   6) =   -52.55663 eV ==== 
     psi = 0.111*[#   2]+0.111*[#   3]+0.111*[#   4]+0.111*[#  12]+0.111*[#  14]
          +0.111*[#  22]+0.111*[#  23]+0.111*[#  33]+0.111*[#  34]
    |psi|^2 = 1.000
==== e(   7) =   -52.55663 eV ==== 
     psi = 0.111*[#   2]+0.111*[#   3]+0.111*[#   4]+0.111*[#  12]+0.111*[#  14]
          +0.111*[#  22]+0.111*[#  23]+0.111*[#  33]+0.111*[#  34]
    |psi|^2 = 1.000
==== e(   8) =   -52.55663 eV ==== 
     psi = 0.111*[#   2]+0.111*[#   3]+0.111*[#   4]+0.111*[#  12]+0.111*[#  14]
          +0.111*[#  22]+0.111*[#  23]+0.111*[#  33]+0.111*[#  34]
    |psi|^2 = 1.000
==== e(   9) =   -52.46369 eV ==== 
     psi = 0.333*[#  13]+0.333*[#  24]+0.333*[#  32]
    |psi|^2 = 1.000
==== e(  10) =   -52.46369 eV ==== 
     psi = 0.333*[#  13]+0.333*[#  24]+0.333*[#  32]
    |psi|^2 = 1.000
==== e(  11) =   -52.46369 eV ==== 
     psi = 0.222*[#   2]+0.222*[#   3]+0.222*[#   4]+0.056*[#  12]+0.056*[#  14]
          +0.056*[#  22]+0.056*[#  23]+0.056*[#  33]+0.056*[#  34]
    |psi|^2 = 1.000
==== e(  12) =   -52.46369 eV ==== 
     psi = 0.222*[#   2]+0.222*[#   3]+0.222*[#   4]+0.056*[#  12]+0.056*[#  14]
          +0.056*[#  22]+0.056*[#  23]+0.056*[#  33]+0.056*[#  34]
    |psi|^2 = 1.000
==== e(  13) =   -52.46369 eV ==== 
     psi = 0.222*[#   2]+0.222*[#   3]+0.222*[#   4]+0.056*[#  12]+0.056*[#  14]
          +0.056*[#  22]+0.056*[#  23]+0.056*[#  33]+0.056*[#  34]
    |psi|^2 = 1.000
==== e(  14) =   -52.46369 eV ==== 
     psi = 0.167*[#  12]+0.167*[#  14]+0.167*[#  22]+0.167*[#  23]+0.167*[#  33]
          +0.167*[#  34]
    |psi|^2 = 1.000
==== e(  15) =   -52.46369 eV ==== 
     psi = 0.167*[#  12]+0.167*[#  14]+0.167*[#  22]+0.167*[#  23]+0.167*[#  33]
          +0.167*[#  34]
    |psi|^2 = 1.000
==== e(  16) =   -52.46369 eV ==== 
     psi = 0.167*[#  12]+0.167*[#  14]+0.167*[#  22]+0.167*[#  23]+0.167*[#  33]
          +0.167*[#  34]
    |psi|^2 = 1.000
==== e(  17) =    12.37699 eV ==== 
     psi = 0.284*[#  17]+0.284*[#  26]+0.284*[#  39]+0.148*[#  10]+0.002*[#   1]
          
    |psi|^2 = 1.000
==== e(  18) =    12.37699 eV ==== 
     psi = 0.095*[#   6]+0.095*[#   7]+0.095*[#   9]+0.095*[#  16]+0.095*[#  19]
          +0.095*[#  27]+0.095*[#  29]+0.095*[#  36]+0.095*[#  37]+0.049*[#  20]
          +0.049*[#  30]+0.049*[#  40]
    |psi|^2 = 1.000
==== e(  19) =    12.37699 eV ==== 
     psi = 0.095*[#   6]+0.095*[#   7]+0.095*[#   9]+0.095*[#  16]+0.095*[#  19]
          +0.095*[#  27]+0.095*[#  29]+0.095*[#  36]+0.095*[#  37]+0.049*[#  20]
          +0.049*[#  30]+0.049*[#  40]
    |psi|^2 = 1.000
==== e(  20) =    12.37699 eV ==== 
     psi = 0.095*[#   6]+0.095*[#   7]+0.095*[#   9]+0.095*[#  16]+0.095*[#  19]
          +0.095*[#  27]+0.095*[#  29]+0.095*[#  36]+0.095*[#  37]+0.049*[#  20]
          +0.049*[#  30]+0.049*[#  40]
    |psi|^2 = 1.000
==== e(  21) =    14.48080 eV ==== 
     psi = 0.296*[#   5]+0.296*[#   8]+0.136*[#  17]+0.136*[#  26]+0.136*[#  39]
          
    |psi|^2 = 1.000
==== e(  22) =    14.48080 eV ==== 
     psi = 0.296*[#   5]+0.296*[#   8]+0.136*[#  17]+0.136*[#  26]+0.136*[#  39]
          
    |psi|^2 = 1.000
==== e(  23) =    14.48080 eV ==== 
     psi = 0.198*[#  35]+0.148*[#  18]+0.148*[#  28]+0.090*[#   6]+0.090*[#   7]
          +0.090*[#   9]+0.049*[#  15]+0.049*[#  25]+0.023*[#  16]+0.023*[#  19]
          +0.023*[#  27]+0.023*[#  29]+0.023*[#  36]+0.023*[#  37]
    |psi|^2 = 1.000
==== e(  24) =    14.48080 eV ==== 
     psi = 0.198*[#  35]+0.148*[#  18]+0.148*[#  28]+0.090*[#   6]+0.090*[#   7]
          +0.090*[#   9]+0.049*[#  15]+0.049*[#  25]+0.023*[#  16]+0.023*[#  19]
          +0.023*[#  27]+0.023*[#  29]+0.023*[#  36]+0.023*[#  37]
    |psi|^2 = 1.000
==== e(  25) =    14.48080 eV ==== 
     psi = 0.198*[#  35]+0.148*[#  18]+0.148*[#  28]+0.090*[#   6]+0.090*[#   7]
          +0.090*[#   9]+0.049*[#  15]+0.049*[#  25]+0.023*[#  16]+0.023*[#  19]
          +0.023*[#  27]+0.023*[#  29]+0.023*[#  36]+0.023*[#  37]
    |psi|^2 = 1.000
==== e(  26) =    14.48081 eV ==== 
     psi = 0.198*[#  38]+0.148*[#  15]+0.148*[#  25]+0.068*[#  16]+0.068*[#  19]
          +0.068*[#  27]+0.068*[#  29]+0.068*[#  36]+0.068*[#  37]+0.049*[#  18]
          +0.049*[#  28]
    |psi|^2 = 1.000
==== e(  27) =    14.48081 eV ==== 
     psi = 0.198*[#  38]+0.148*[#  15]+0.148*[#  25]+0.068*[#  16]+0.068*[#  19]
          +0.068*[#  27]+0.068*[#  29]+0.068*[#  36]+0.068*[#  37]+0.049*[#  18]
          +0.049*[#  28]
    |psi|^2 = 1.000
==== e(  28) =    14.48081 eV ==== 
     psi = 0.198*[#  38]+0.148*[#  15]+0.148*[#  25]+0.068*[#  16]+0.068*[#  19]
          +0.068*[#  27]+0.068*[#  29]+0.068*[#  36]+0.068*[#  37]+0.049*[#  18]
          +0.049*[#  28]
    |psi|^2 = 1.000
==== e(  29) =    15.94436 eV ==== 
     psi = 0.204*[#   5]+0.204*[#   8]+0.198*[#  17]+0.198*[#  26]+0.198*[#  39]
          
    |psi|^2 = 1.000
==== e(  30) =    15.94436 eV ==== 
     psi = 0.204*[#   5]+0.204*[#   8]+0.198*[#  17]+0.198*[#  26]+0.198*[#  39]
          
    |psi|^2 = 1.000
==== e(  31) =    15.94436 eV ==== 
     psi = 0.136*[#  35]+0.132*[#   6]+0.132*[#   7]+0.132*[#   9]+0.102*[#  18]
          +0.102*[#  28]+0.034*[#  15]+0.034*[#  25]+0.033*[#  16]+0.033*[#  19]
          +0.033*[#  27]+0.033*[#  29]+0.033*[#  36]+0.033*[#  37]
    |psi|^2 = 1.000
==== e(  32) =    15.94436 eV ==== 
     psi = 0.136*[#  35]+0.132*[#   6]+0.132*[#   7]+0.132*[#   9]+0.102*[#  18]
          +0.102*[#  28]+0.034*[#  15]+0.034*[#  25]+0.033*[#  16]+0.033*[#  19]
          +0.033*[#  27]+0.033*[#  29]+0.033*[#  36]+0.033*[#  37]
    |psi|^2 = 1.000
==== e(  33) =    15.94436 eV ==== 
     psi = 0.136*[#  35]+0.132*[#   6]+0.132*[#   7]+0.132*[#   9]+0.102*[#  18]
          +0.102*[#  28]+0.034*[#  15]+0.034*[#  25]+0.033*[#  16]+0.033*[#  19]
          +0.033*[#  27]+0.033*[#  29]+0.033*[#  36]+0.033*[#  37]
    |psi|^2 = 1.000
==== e(  34) =    15.94436 eV ==== 
     psi = 0.136*[#  38]+0.102*[#  15]+0.102*[#  25]+0.099*[#  16]+0.099*[#  19]
          +0.099*[#  27]+0.099*[#  29]+0.099*[#  36]+0.099*[#  37]+0.034*[#  18]
          +0.034*[#  28]
    |psi|^2 = 1.000
==== e(  35) =    15.94436 eV ==== 
     psi = 0.136*[#  38]+0.102*[#  15]+0.102*[#  25]+0.099*[#  16]+0.099*[#  19]
          +0.099*[#  27]+0.099*[#  29]+0.099*[#  36]+0.099*[#  37]+0.034*[#  18]
          +0.034*[#  28]
    |psi|^2 = 1.000
==== e(  36) =    15.94436 eV ==== 
     psi = 0.136*[#  38]+0.102*[#  15]+0.102*[#  25]+0.099*[#  16]+0.099*[#  19]
          +0.099*[#  27]+0.099*[#  29]+0.099*[#  36]+0.099*[#  37]+0.034*[#  18]
          +0.034*[#  28]
    |psi|^2 = 1.000
==== e(  37) =    16.38632 eV ==== 

    |psi|^2 = 0.000
==== e(  38) =    16.38633 eV ==== 

    |psi|^2 = 0.000
==== e(  39) =    16.38633 eV ==== 

    |psi|^2 = 0.000
==== e(  40) =    16.38633 eV ==== 

    |psi|^2 = 0.000
==== e(  41) =    21.25943 eV ==== 
     psi = 0.840*[#  10]+0.048*[#  17]+0.048*[#  26]+0.048*[#  39]+0.006*[#   1]
          
    |psi|^2 = 0.989
==== e(  42) =    21.25943 eV ==== 
     psi = 0.280*[#  20]+0.280*[#  30]+0.280*[#  40]+0.016*[#   6]+0.016*[#   7]
          +0.016*[#   9]+0.016*[#  16]+0.016*[#  19]+0.016*[#  27]+0.016*[#  29]
          +0.016*[#  36]+0.016*[#  37]+0.002*[#  11]+0.002*[#  21]+0.002*[#  31]
          
    |psi|^2 = 0.989
==== e(  43) =    21.25943 eV ==== 
     psi = 0.280*[#  20]+0.280*[#  30]+0.280*[#  40]+0.016*[#   6]+0.016*[#   7]
          +0.016*[#   9]+0.016*[#  16]+0.016*[#  19]+0.016*[#  27]+0.016*[#  29]
          +0.016*[#  36]+0.016*[#  37]+0.002*[#  11]+0.002*[#  21]+0.002*[#  31]
          
    |psi|^2 = 0.989
==== e(  44) =    21.25943 eV ==== 
     psi = 0.280*[#  20]+0.280*[#  30]+0.280*[#  40]+0.016*[#   6]+0.016*[#   7]
          +0.016*[#   9]+0.016*[#  16]+0.016*[#  19]+0.016*[#  27]+0.016*[#  29]
          +0.016*[#  36]+0.016*[#  37]+0.002*[#  11]+0.002*[#  21]+0.002*[#  31]
          
    |psi|^2 = 0.989
==== e(  45) =    38.60878 eV ==== 

    |psi|^2 = 0.000
==== e(  46) =    38.60878 eV ==== 

    |psi|^2 = 0.000

Lowdin Charges: 

     Atom #   1: total charge =  18.8343, s =  3.0485, 
     Atom #   1: total charge =  18.8343, p =  5.9993, pz=  1.9998, px=  1.9998, py=  1.9998, 
     Atom #   1: total charge =  18.8343, d =  9.7865, dz2=  1.9709, dxz=  1.9483, dyz=  1.9483, dx2-y2=  1.9709, dxy=  1.9483, 
     Atom #   2: total charge =  18.8343, s =  3.0485, 
     Atom #   2: total charge =  18.8343, p =  5.9993, pz=  1.9998, px=  1.9998, py=  1.9998, 
     Atom #   2: total charge =  18.8343, d =  9.7865, dz2=  1.9709, dxz=  1.9483, dyz=  1.9483, dx2-y2=  1.9709, dxy=  1.9483, 
     Atom #   3: total charge =  18.8343, s =  3.0485, 
     Atom #   3: total charge =  18.8343, p =  5.9993, pz=  1.9998, px=  1.9998, py=  1.9998, 
     Atom #   3: total charge =  18.8343, d =  9.7865, dz2=  1.9709, dxz=  1.9483, dyz=  1.9483, dx2-y2=  1.9709, dxy=  1.9483, 
     Atom #   4: total charge =  18.8343, s =  3.0485, 
     Atom #   4: total charge =  18.8343, p =  5.9993, pz=  1.9998, px=  1.9998, py=  1.9998, 
     Atom #   4: total charge =  18.8343, d =  9.7865, dz2=  1.9709, dxz=  1.9483, dyz=  1.9483, dx2-y2=  1.9709, dxy=  1.9483, 
     Spilling Parameter:   0.0087

     PROJWFC      :      1.46s CPU      1.88s WALL


   This run was terminated on:  15:38:18  24Oct2025            

=------------------------------------------------------------------------------=
   JOB DONE.
=------------------------------------------------------------------------------=
