Quantum Capacitance Results - Per Unit Cell
==========================================
Fermi level: 17.532200 eV
DOS at E_F: 1.147000 states/eV/cell
Quantum Capacitance: 1.837697e-19 F/cell
