

 Parallel Execution: Process Information
 ==============================================================================
 Rank   Node Name                              NodeID   MyNodeRank  NodeMaster
    0   ubuntu-kch                                0          0          0
    1   ubuntu-kch                                0          1         -1
    2   ubuntu-kch                                0          2         -1
    3   ubuntu-kch                                0          3         -1
 ==============================================================================


May use up to 7570MB of RAM as shared memory on node 0

 *******************************************************************************
 *                                                                             *
 *  --------------------------------                                           *
 *   Amsterdam Modeling Suite (AMS)              2021.105                      *
 *  --------------------------------                                           *
 *                                               r97261 2021-09-16             *
 *                                                                             *
 *                                                                             *
 *                              =================                              *
 *                              |               |                              *
 *                              |     A M S     |                              *
 *                              |               |                              *
 *                              =================                              *
 *                                                                             *
 *                                                                             *
 *   Online information and documentation:  https://www.scm.com/support/       *
 *   E-mail:  support@scm.com   info@scm.com                                   *
 *                                                                             *
 *   Scientific publications using AMS results must be properly referenced     *
 *   See the User Manuals (or the web site) for recommended citations          *
 *   The terms and conditions of the End User License Agreement apply to       *
 *   the use of AMS, https://www.scm.com/license-terms/                        *
 *                                                                             *
 **********************  x86_64_linux_intel / intelmpi  ************************
 
 Licensed to: Dr. Miroslav Ilias / Matej Bel University, Department Chemistry, Fac. Natural Sciences / Banska Bystrica / SLOVAKIA
 SCM User ID: u17848
  
 AMS 2021.105  RunTime: Nov25-2021 20:24:54  ShM Nodes: 1  Procs: 4

 AMS jobname: ams
 AMS jobid  : 372639435

 Start   directory: /home/milias/work/projects/open-collection/theoretical_chemistry/projects/nmr_diplomovky/reference_compounds/phosphoric_acid/ams/pbe0_tz2p_good/cosmo-chcl3/sozora/nmr_opbe_tz2p-j_good-cosmo-chcl3/tmp.milias.190811.0.noindex/
 Results directory: /home/milias/work/projects/open-collection/theoretical_chemistry/projects/nmr_diplomovky/reference_compounds/phosphoric_acid/ams/pbe0_tz2p_good/cosmo-chcl3/sozora/nmr_opbe_tz2p-j_good-cosmo-chcl3/phosphoric_acid.sozora_nmrshield_opbe_tz2p-j_good_cosmo-chcl3.results/
 Scratch directory: /tmp/amstmp_ams_kid0.372639435/


 Communication costs MPI_COMM_WORLD:      0.256 usec per message,   0.0034 usec per 8-byte item
 Communication costs for intra-node:      0.263 usec per message,   0.0034 usec per 8-byte item

 RNG seed: 1549663761 -319776597 1835567462 -527256625 -1549995097 -1857740302 -227222942 -504542948



                      ************************************************************************
                      *  ADF 2021.105  RunTime: Nov25-2021 20:24:54  ShM Nodes: 1  Procs: 4  *
                      ************************************************************************
  
       ****************************
       * SINGLE POINT CALCULATION *
       ****************************
 
--------
Geometry
--------
Formula: H3O4P
Atoms
  Index Symbol   x (angstrom)   y (angstrom)   z (angstrom)
      1      P    -0.00000000     0.00000000    -0.15568231       adf.R=1.850
      2      O    -1.38033917    -0.35051973     0.54001942       adf.R=1.517
      3      O     0.99372858    -1.02014892     0.54001942       adf.R=1.517
      4      O     0.38661059     1.37066866     0.54001942       adf.R=1.517
      5      O    -0.00000000     0.00000000    -1.62454013       adf.R=1.517
      6      H    -2.13170796     0.01671246     0.05338806       adf.R=1.350
      7      H     1.05138056    -1.85446947     0.05338806       adf.R=1.350
      8      H     1.08032739     1.83775701     0.05338806       adf.R=1.350
 
Total System Charge             0.00000
Bonding info available!
 
 
----------------
ADF Engine Input
----------------
 
 Basis
 Type TZ2P-J
 Core None
 End
 Save TAPE10
 XC
 GGA OPBE
 End
 Relativity
 Level Spin-Orbit
 End
 Symmetry NOSYM
 Solvation
 Surf Delley
 Solv name=Chloroform cav0=0.0 cav1=0.0067639
 Charged method=CONJ
 C-Mat POT
 SCF VAR ALL
 CSMRSP
 End
 NumericalQuality Good
 

 Title: *** (NO TITLE) ***

 *** adf ***



 ===========================
 A T T A C H E D   F I L E S
 ===========================
  



 ===============================
 M O D E L   P A R A M E T E R S
 ===============================
  
 DENSITY FUNCTIONAL POTENTIAL (scf)
    LDA:                               VWN                                      
    Gradient Corrections:              OPTX PBEc                               == Not Default ==

 SPIN  (restricted / unrestr.)
    Molecule:                          Restricted                               
    Fragments:                         Restricted                               

 OTHER ASPECTS
    Relativistic Corrections:          Spin-Orbit (ZORA,MAPA)                  == Not Default ==

    Nuclear Charge Density Model:      Point Charge Nuclei                      
    Core Treatment:                    Frozen Orbital(s)                        

    Hyperfine or Zeeman Interaction:   ---                                      

 SOLVATION
-------------------------------------------

  The Delley construction of COSMO surface surface is calculated

       Division Level for Surface Triangles (NDIV)                  3
       Final Division Level for Triangles (NFDIV)                   1
       Radius of the Solvent (RSOL)                           3.17000 angstr
  Dielectric Constant (EPSL)                                  4.80000

       COSMO equation is solved iteratively-               conjugate-gradient

       Maximun of Iterations for Charges (NCIX)                  1000
       Criterion for Charge convergence (CCNV)                1.0E-08

  COSMO charges included variationally in SCF

       COSMO included at every SCF cycle

  Geometry-dependent empirical factor                         0.00000

  C-Matrix calculated in cspmtx

  In cspmtx, C-Matrix calculated using fitted potential

-------------------------------------------



 Fragment File(s)
 ----------------
 P:
         file : /home/milias/work/projects/open-collection/theoretical_chemistry/projects/nmr_diplomovky/reference_compounds/phosphoric_acid/ams/pbe0_tz2p_good/cosmo-chcl3/sozora/nmr_opbe_tz2p-j_good-cosmo-chcl3/phosphoric_acid.sozora_nmrshield_opbe_tz2p-j_good_cosmo-chcl3.results/t21.1CA69C0.P
         jobid: 0
         title: Phosphorus (TZ2P-J)
 O:
         file : /home/milias/work/projects/open-collection/theoretical_chemistry/projects/nmr_diplomovky/reference_compounds/phosphoric_acid/ams/pbe0_tz2p_good/cosmo-chcl3/sozora/nmr_opbe_tz2p-j_good-cosmo-chcl3/phosphoric_acid.sozora_nmrshield_opbe_tz2p-j_good_cosmo-chcl3.results/t21.5656D15C.O
         jobid: 0
         title: Oxygen (TZ2P-J)
 H:
         file : /home/milias/work/projects/open-collection/theoretical_chemistry/projects/nmr_diplomovky/reference_compounds/phosphoric_acid/ams/pbe0_tz2p_good/cosmo-chcl3/sozora/nmr_opbe_tz2p-j_good-cosmo-chcl3/phosphoric_acid.sozora_nmrshield_opbe_tz2p-j_good_cosmo-chcl3.results/t21.7C6B5FF5.H
         jobid: 0
         title: Hydrogen (TZ2P-J)



 ===============
 G E O M E T R Y  ***  3D  Molecule  ***
 ===============
  

 ATOMS
 =====                            X Y Z                    CHARGE                     RADIUS
                                (Angstrom)             Nucl     +Core       At.Mass (Angstrom)
                       --------------------------    ----------------       ------- ----------
    1  P              -0.0000    0.0000   -0.1557     15.00     15.00       30.9738    1.8500
    2  O              -1.3803   -0.3505    0.5400      8.00      8.00       15.9949    1.5170
    3  O               0.9937   -1.0201    0.5400      8.00      8.00       15.9949    1.5170
    4  O               0.3866    1.3707    0.5400      8.00      8.00       15.9949    1.5170
    5  O              -0.0000    0.0000   -1.6245      8.00      8.00       15.9949    1.5170
    6  H              -2.1317    0.0167    0.0534      1.00      1.00        1.0078    1.3500
    7  H               1.0514   -1.8545    0.0534      1.00      1.00        1.0078    1.3500
    8  H               1.0803    1.8378    0.0534      1.00      1.00        1.0078    1.3500


 FRAGMENTS
 =========                                     Atoms in this Fragment     Cart. coord.s (Angstrom)
                                               -------------------------------------------------------
    1  P                                                 1  P           -0.0000    0.0000   -0.1557
    2  O                                                 2  O           -1.3803   -0.3505    0.5400
    3  O                                                 3  O            0.9937   -1.0201    0.5400
    4  O                                                 4  O            0.3866    1.3707    0.5400
    5  O                                                 5  O           -0.0000    0.0000   -1.6245
    6  H                                                 6  H           -2.1317    0.0167    0.0534
    7  H                                                 7  H            1.0514   -1.8545    0.0534
    8  H                                                 8  H            1.0803    1.8378    0.0534


 Interatomic Distance Matrix (Angstrom)
 --------------------------------------

   1)     0.000
   2)     1.585   0.000
   3)     1.585   2.467   0.000
   4)     1.585   2.467   2.467   0.000
   5)     1.469   2.591   2.591   2.591   0.000
   6)     2.142   0.968   3.329   2.900   2.713   0.000
   7)     2.142   2.900   0.968   3.329   2.713   3.692   0.000
   8)     2.142   3.329   2.900   0.968   2.713   3.692   3.692   0.000

 Min. Distance =    0.9676
 Max. Distance =    3.6923



 =====================================
 S Y M M E T R Y ,   E L E C T R O N S
 =====================================
  
 Symmetry: NOSYM

 Double Group Irreducible Representations (spinor symmetry)
 -----------------------------------------------------------
 A1/2


 Configuration of Valence Electrons
 ==================================
 ( determined in the SCF procedure )

 Total:   50

 Net Charge: 0 (Nuclei minus Electrons)

 Aufbau principle for MO occupations will be applied through SCF cycle no.     150
 Thereafter, the program will assign electrons to MOs that are spatially
 similar to the occupied MOs in a "reference" cycle ("KeepOrbitals").
 The reference cycle is always the PREVIOUS cycle: it will evolve with
 the SCF procedure.
1
 ***************************************************************************************************



                                      ****************************************
                                      *  B U I L D : (Fragments, Functions)  *
                                      ****************************************
  



 =======
 S F O s  ***  (Symmetrized Fragment Orbitals)  ***
 =======
  
 SFOs are linear combinations of (valence) Fragment Orbitals (FOs), such that the SFOs transform as the
 irreducible representations of the (molecular) symmetry group. Each SFO is therefore characterized by
 an irrep of the molecule and by a few (or only one) generating FOs.
 The SFOs constitute a symmetry-adapted basis for the Fock matrix. The MO eigenvector coefficients in
 this basis provide a direct interpretation of the MOs in terms of Frontier Orbital Theory.

 The SFOs are combined with auxiliary Core Functions (CFs) to ensure orthogonalization on the (frozen)
 Core Orbitals (COs). The Core-orthogonalized SFOs (CSFOs) constitute the true Fock basis.

 The FOs, and hence also the (C)SFOs are combinations of the elementary basis functions (BAS). The basis
 functions that participate in the description of the SFOs depend on the irrep. The indices of the
 involved functions are printed below for each irrep.
 (The complete list of primitive basis functions is printed in another section)

 Total nr. of (C)SFOs (summation over all irreps) :   218

 NOTE: a (C)SFO that is defined as a combination of more than one FO is usually NOT normalized.

 NOTE: the (C)SFOs are single group symmetry adapted orbitals.



                                       === A ===
 Nr. of SFOs :  218
 Cartesian basis functions that participate in this irrep (total number =   241) :
      1     2     3     4     5     6     7     8    18    19
     20     9    12    15    21    24    27    10    13    16
     22    25    28    11    14    17    23    26    29    30
     31    32    33    34    35    36    37    38    39    40
     41    42    43    44    45    46    47    48    49    50
     51    52    53    54    55    58    61    64    56    59
     62    65    57    60    63    66    67    68    69    70
     71    72    73    74    75    76    77    78    79    80
     81    82    83    84    85    86    87    88    89    90
     91    92    95    98   101    93    96    99   102    94
     97   100   103   104   105   106   107   108   109   110
    111   112   113   114   115   116   117   118   119   120
    121   122   123   124   125   126   127   128   129   132
    135   138   130   133   136   139   131   134   137   140
    141   142   143   144   145   146   147   148   149   150
    151   152   153   154   155   156   157   158   159   160
    161   162   163   164   165   166   169   172   175   167
    170   173   176   168   171   174   177   178   179   180
    181   182   183   184   185   186   187   188   189   190
    191   192   193   194   195   196   197   198   199   200
    201   202   203   204   205   206   207   208   209   210
    211   212   213   214   215   216   217   218   219   220
    221   222   223   224   225   226   227   228   229   230
    231   232   233   234   235   236   237   238   239   240
    241

    SFO  (index         Fragment          Generating    Expansion in Fragment Orbitals
  indx  incl.CFs)   Occup   Orb.Energy   FragmentType  Coeff.   Orbital     on Fragment
 --------------------------------------------------------------------------------------
     1       1      2.000     -76.554 au  P             1.00      1 S               1
                        (   -2083.127 eV)
     2       2      2.000      -6.438 au  P             1.00      2 S               1
                        (    -175.198 eV)
     3       3      2.000      -0.514 au  P             1.00      3 S               1
                        (     -13.994 eV)
     4       4       --         0.126 au  P             1.00      4 S               1
                        (       3.416 eV)
     5       5       --         1.307 au  P             1.00      5 S               1
                        (      35.563 eV)
     6       6       --         8.213 au  P             1.00      6 S               1
                        (     223.486 eV)
     7       7       --        71.365 au  P             1.00      7 S               1
                        (    1941.942 eV)
     8       8       --       472.706 au  P             1.00      8 S               1
                        (   12862.974 eV)
     9       9       --      3228.211 au  P             1.00      9 S               1
                        (   87844.085 eV)
    10      10       --     20622.541 au  P             1.00     10 S               1
                        (  561167.896 eV)
    11      11       --     50049.121 au  P             1.00     11 S               1
                        ( 1361905.869 eV)
    12      12      2.000      -4.606 au  P             1.00      1 P:x             1
                        (    -125.334 eV)
    13      13      1.000      -0.203 au  P             1.00      2 P:x             1
                        (      -5.528 eV)
    14      14       --         0.085 au  P             1.00      3 P:x             1
                        (       2.325 eV)
    15      15       --         0.871 au  P             1.00      4 P:x             1
                        (      23.690 eV)
    16      16       --         9.150 au  P             1.00      5 P:x             1
                        (     248.993 eV)
    17      17       --       118.238 au  P             1.00      6 P:x             1
                        (    3217.426 eV)
    18      18      2.000      -4.606 au  P             1.00      1 P:y             1
                        (    -125.334 eV)
    19      19      1.000      -0.203 au  P             1.00      2 P:y             1
                        (      -5.528 eV)
    20      20       --         0.085 au  P             1.00      3 P:y             1
                        (       2.325 eV)
    21      21       --         0.871 au  P             1.00      4 P:y             1
                        (      23.690 eV)
    22      22       --         9.150 au  P             1.00      5 P:y             1
                        (     248.993 eV)
    23      23       --       118.238 au  P             1.00      6 P:y             1
                        (    3217.426 eV)
    24      24      2.000      -4.606 au  P             1.00      1 P:z             1
                        (    -125.334 eV)
    25      25      1.000      -0.203 au  P             1.00      2 P:z             1
                        (      -5.528 eV)
    26      26       --         0.085 au  P             1.00      3 P:z             1
                        (       2.325 eV)
    27      27       --         0.871 au  P             1.00      4 P:z             1
                        (      23.690 eV)
    28      28       --         9.150 au  P             1.00      5 P:z             1
                        (     248.993 eV)
    29      29       --       118.238 au  P             1.00      6 P:z             1
                        (    3217.426 eV)
    30      30       --         0.388 au  P             1.00      1 D:z2            1
                        (      10.545 eV)
    31      31       --         0.388 au  P             1.00      1 D:x2-y2         1
                        (      10.545 eV)
    32      32       --         0.388 au  P             1.00      1 D:xy            1
                        (      10.545 eV)
    33      33       --         0.388 au  P             1.00      1 D:xz            1
                        (      10.545 eV)
    34      34       --         0.388 au  P             1.00      1 D:yz            1
                        (      10.545 eV)
    35      35       --         1.146 au  P             1.00      1 F:z3            1
                        (      31.188 eV)
    36      36       --         1.146 au  P             1.00      1 F:z             1
                        (      31.188 eV)
    37      37       --         1.146 au  P             1.00      1 F:xyz           1
                        (      31.188 eV)
    38      38       --         1.146 au  P             1.00      1 F:z2x           1
                        (      31.188 eV)
    39      39       --         1.146 au  P             1.00      1 F:z2y           1
                        (      31.188 eV)
    40      40       --         1.146 au  P             1.00      1 F:x             1
                        (      31.188 eV)
    41      41       --         1.146 au  P             1.00      1 F:y             1
                        (      31.188 eV)
    42      42      2.000     -18.907 au  O             1.00      1 S               2
                        (    -514.492 eV)
    43      43      2.000      -0.890 au  O             1.00      2 S               2
                        (     -24.229 eV)
    44      44       --         0.741 au  O             1.00      3 S               2
                        (      20.151 eV)
    45      45       --         9.202 au  O             1.00      4 S               2
                        (     250.392 eV)
    46      46       --        47.321 au  O             1.00      5 S               2
                        (    1287.671 eV)
    47      47       --       209.891 au  O             1.00      6 S               2
                        (    5711.413 eV)
    48      48       --      1209.839 au  O             1.00      7 S               2
                        (   32921.392 eV)
    49      49       --     10323.755 au  O             1.00      8 S               2
                        (  280923.658 eV)
    50      50       --     37360.473 au  O             1.00      9 S               2
                        ( 1016630.191 eV)
    51      51      1.333      -0.328 au  O             1.00      1 P:x             2
                        (      -8.927 eV)
    52      52       --         0.352 au  O             1.00      2 P:x             2
                        (       9.565 eV)
    53      53       --         3.468 au  O             1.00      3 P:x             2
                        (      94.358 eV)
    54      54       --        37.192 au  O             1.00      4 P:x             2
                        (    1012.054 eV)
    55      55      1.333      -0.328 au  O             1.00      1 P:y             2
                        (      -8.927 eV)
    56      56       --         0.352 au  O             1.00      2 P:y             2
                        (       9.565 eV)
    57      57       --         3.468 au  O             1.00      3 P:y             2
                        (      94.358 eV)
    58      58       --        37.192 au  O             1.00      4 P:y             2
                        (    1012.054 eV)
    59      59      1.333      -0.328 au  O             1.00      1 P:z             2
                        (      -8.927 eV)
    60      60       --         0.352 au  O             1.00      2 P:z             2
                        (       9.565 eV)
    61      61       --         3.468 au  O             1.00      3 P:z             2
                        (      94.358 eV)
    62      62       --        37.192 au  O             1.00      4 P:z             2
                        (    1012.054 eV)
    63      63       --         1.071 au  O             1.00      1 D:z2            2
                        (      29.131 eV)
    64      64       --         1.071 au  O             1.00      1 D:x2-y2         2
                        (      29.131 eV)
    65      65       --         1.071 au  O             1.00      1 D:xy            2
                        (      29.131 eV)
    66      66       --         1.071 au  O             1.00      1 D:xz            2
                        (      29.131 eV)
    67      67       --         1.071 au  O             1.00      1 D:yz            2
                        (      29.131 eV)
    68      68       --         3.346 au  O             1.00      1 F:z3            2
                        (      91.057 eV)
    69      69       --         3.346 au  O             1.00      1 F:z             2
                        (      91.057 eV)
    70      70       --         3.346 au  O             1.00      1 F:xyz           2
                        (      91.057 eV)
    71      71       --         3.346 au  O             1.00      1 F:z2x           2
                        (      91.057 eV)
    72      72       --         3.346 au  O             1.00      1 F:z2y           2
                        (      91.057 eV)
    73      73       --         3.346 au  O             1.00      1 F:x             2
                        (      91.057 eV)
    74      74       --         3.346 au  O             1.00      1 F:y             2
                        (      91.057 eV)
    75      75      2.000     -18.907 au  O             1.00      1 S               3
                        (    -514.492 eV)
    76      76      2.000      -0.890 au  O             1.00      2 S               3
                        (     -24.229 eV)
    77      77       --         0.741 au  O             1.00      3 S               3
                        (      20.151 eV)
    78      78       --         9.202 au  O             1.00      4 S               3
                        (     250.392 eV)
    79      79       --        47.321 au  O             1.00      5 S               3
                        (    1287.671 eV)
    80      80       --       209.891 au  O             1.00      6 S               3
                        (    5711.413 eV)
    81      81       --      1209.839 au  O             1.00      7 S               3
                        (   32921.392 eV)
    82      82       --     10323.755 au  O             1.00      8 S               3
                        (  280923.658 eV)
    83      83       --     37360.473 au  O             1.00      9 S               3
                        ( 1016630.191 eV)
    84      84      1.333      -0.328 au  O             1.00      1 P:x             3
                        (      -8.927 eV)
    85      85       --         0.352 au  O             1.00      2 P:x             3
                        (       9.565 eV)
    86      86       --         3.468 au  O             1.00      3 P:x             3
                        (      94.358 eV)
    87      87       --        37.192 au  O             1.00      4 P:x             3
                        (    1012.054 eV)
    88      88      1.333      -0.328 au  O             1.00      1 P:y             3
                        (      -8.927 eV)
    89      89       --         0.352 au  O             1.00      2 P:y             3
                        (       9.565 eV)
    90      90       --         3.468 au  O             1.00      3 P:y             3
                        (      94.358 eV)
    91      91       --        37.192 au  O             1.00      4 P:y             3
                        (    1012.054 eV)
    92      92      1.333      -0.328 au  O             1.00      1 P:z             3
                        (      -8.927 eV)
    93      93       --         0.352 au  O             1.00      2 P:z             3
                        (       9.565 eV)
    94      94       --         3.468 au  O             1.00      3 P:z             3
                        (      94.358 eV)
    95      95       --        37.192 au  O             1.00      4 P:z             3
                        (    1012.054 eV)
    96      96       --         1.071 au  O             1.00      1 D:z2            3
                        (      29.131 eV)
    97      97       --         1.071 au  O             1.00      1 D:x2-y2         3
                        (      29.131 eV)
    98      98       --         1.071 au  O             1.00      1 D:xy            3
                        (      29.131 eV)
    99      99       --         1.071 au  O             1.00      1 D:xz            3
                        (      29.131 eV)
   100     100       --         1.071 au  O             1.00      1 D:yz            3
                        (      29.131 eV)
   101     101       --         3.346 au  O             1.00      1 F:z3            3
                        (      91.057 eV)
   102     102       --         3.346 au  O             1.00      1 F:z             3
                        (      91.057 eV)
   103     103       --         3.346 au  O             1.00      1 F:xyz           3
                        (      91.057 eV)
   104     104       --         3.346 au  O             1.00      1 F:z2x           3
                        (      91.057 eV)
   105     105       --         3.346 au  O             1.00      1 F:z2y           3
                        (      91.057 eV)
   106     106       --         3.346 au  O             1.00      1 F:x             3
                        (      91.057 eV)
   107     107       --         3.346 au  O             1.00      1 F:y             3
                        (      91.057 eV)
   108     108      2.000     -18.907 au  O             1.00      1 S               4
                        (    -514.492 eV)
   109     109      2.000      -0.890 au  O             1.00      2 S               4
                        (     -24.229 eV)
   110     110       --         0.741 au  O             1.00      3 S               4
                        (      20.151 eV)
   111     111       --         9.202 au  O             1.00      4 S               4
                        (     250.392 eV)
   112     112       --        47.321 au  O             1.00      5 S               4
                        (    1287.671 eV)
   113     113       --       209.891 au  O             1.00      6 S               4
                        (    5711.413 eV)
   114     114       --      1209.839 au  O             1.00      7 S               4
                        (   32921.392 eV)
   115     115       --     10323.755 au  O             1.00      8 S               4
                        (  280923.658 eV)
   116     116       --     37360.473 au  O             1.00      9 S               4
                        ( 1016630.191 eV)
   117     117      1.333      -0.328 au  O             1.00      1 P:x             4
                        (      -8.927 eV)
   118     118       --         0.352 au  O             1.00      2 P:x             4
                        (       9.565 eV)
   119     119       --         3.468 au  O             1.00      3 P:x             4
                        (      94.358 eV)
   120     120       --        37.192 au  O             1.00      4 P:x             4
                        (    1012.054 eV)
   121     121      1.333      -0.328 au  O             1.00      1 P:y             4
                        (      -8.927 eV)
   122     122       --         0.352 au  O             1.00      2 P:y             4
                        (       9.565 eV)
   123     123       --         3.468 au  O             1.00      3 P:y             4
                        (      94.358 eV)
   124     124       --        37.192 au  O             1.00      4 P:y             4
                        (    1012.054 eV)
   125     125      1.333      -0.328 au  O             1.00      1 P:z             4
                        (      -8.927 eV)
   126     126       --         0.352 au  O             1.00      2 P:z             4
                        (       9.565 eV)
   127     127       --         3.468 au  O             1.00      3 P:z             4
                        (      94.358 eV)
   128     128       --        37.192 au  O             1.00      4 P:z             4
                        (    1012.054 eV)
   129     129       --         1.071 au  O             1.00      1 D:z2            4
                        (      29.131 eV)
   130     130       --         1.071 au  O             1.00      1 D:x2-y2         4
                        (      29.131 eV)
   131     131       --         1.071 au  O             1.00      1 D:xy            4
                        (      29.131 eV)
   132     132       --         1.071 au  O             1.00      1 D:xz            4
                        (      29.131 eV)
   133     133       --         1.071 au  O             1.00      1 D:yz            4
                        (      29.131 eV)
   134     134       --         3.346 au  O             1.00      1 F:z3            4
                        (      91.057 eV)
   135     135       --         3.346 au  O             1.00      1 F:z             4
                        (      91.057 eV)
   136     136       --         3.346 au  O             1.00      1 F:xyz           4
                        (      91.057 eV)
   137     137       --         3.346 au  O             1.00      1 F:z2x           4
                        (      91.057 eV)
   138     138       --         3.346 au  O             1.00      1 F:z2y           4
                        (      91.057 eV)
   139     139       --         3.346 au  O             1.00      1 F:x             4
                        (      91.057 eV)
   140     140       --         3.346 au  O             1.00      1 F:y             4
                        (      91.057 eV)
   141     141      2.000     -18.907 au  O             1.00      1 S               5
                        (    -514.492 eV)
   142     142      2.000      -0.890 au  O             1.00      2 S               5
                        (     -24.229 eV)
   143     143       --         0.741 au  O             1.00      3 S               5
                        (      20.151 eV)
   144     144       --         9.202 au  O             1.00      4 S               5
                        (     250.392 eV)
   145     145       --        47.321 au  O             1.00      5 S               5
                        (    1287.671 eV)
   146     146       --       209.891 au  O             1.00      6 S               5
                        (    5711.413 eV)
   147     147       --      1209.839 au  O             1.00      7 S               5
                        (   32921.392 eV)
   148     148       --     10323.755 au  O             1.00      8 S               5
                        (  280923.658 eV)
   149     149       --     37360.473 au  O             1.00      9 S               5
                        ( 1016630.191 eV)
   150     150      1.333      -0.328 au  O             1.00      1 P:x             5
                        (      -8.927 eV)
   151     151       --         0.352 au  O             1.00      2 P:x             5
                        (       9.565 eV)
   152     152       --         3.468 au  O             1.00      3 P:x             5
                        (      94.358 eV)
   153     153       --        37.192 au  O             1.00      4 P:x             5
                        (    1012.054 eV)
   154     154      1.333      -0.328 au  O             1.00      1 P:y             5
                        (      -8.927 eV)
   155     155       --         0.352 au  O             1.00      2 P:y             5
                        (       9.565 eV)
   156     156       --         3.468 au  O             1.00      3 P:y             5
                        (      94.358 eV)
   157     157       --        37.192 au  O             1.00      4 P:y             5
                        (    1012.054 eV)
   158     158      1.333      -0.328 au  O             1.00      1 P:z             5
                        (      -8.927 eV)
   159     159       --         0.352 au  O             1.00      2 P:z             5
                        (       9.565 eV)
   160     160       --         3.468 au  O             1.00      3 P:z             5
                        (      94.358 eV)
   161     161       --        37.192 au  O             1.00      4 P:z             5
                        (    1012.054 eV)
   162     162       --         1.071 au  O             1.00      1 D:z2            5
                        (      29.131 eV)
   163     163       --         1.071 au  O             1.00      1 D:x2-y2         5
                        (      29.131 eV)
   164     164       --         1.071 au  O             1.00      1 D:xy            5
                        (      29.131 eV)
   165     165       --         1.071 au  O             1.00      1 D:xz            5
                        (      29.131 eV)
   166     166       --         1.071 au  O             1.00      1 D:yz            5
                        (      29.131 eV)
   167     167       --         3.346 au  O             1.00      1 F:z3            5
                        (      91.057 eV)
   168     168       --         3.346 au  O             1.00      1 F:z             5
                        (      91.057 eV)
   169     169       --         3.346 au  O             1.00      1 F:xyz           5
                        (      91.057 eV)
   170     170       --         3.346 au  O             1.00      1 F:z2x           5
                        (      91.057 eV)
   171     171       --         3.346 au  O             1.00      1 F:z2y           5
                        (      91.057 eV)
   172     172       --         3.346 au  O             1.00      1 F:x             5
                        (      91.057 eV)
   173     173       --         3.346 au  O             1.00      1 F:y             5
                        (      91.057 eV)
   174     174      1.000      -0.238 au  H             1.00      1 S               6
                        (      -6.469 eV)
   175     175       --         0.058 au  H             1.00      2 S               6
                        (       1.586 eV)
   176     176       --         0.748 au  H             1.00      3 S               6
                        (      20.360 eV)
   177     177       --         4.738 au  H             1.00      4 S               6
                        (     128.928 eV)
   178     178       --        34.378 au  H             1.00      5 S               6
                        (     935.471 eV)
   179     179       --       358.358 au  H             1.00      6 S               6
                        (    9751.428 eV)
   180     180       --      5395.976 au  H             1.00      7 S               6
                        (  146831.976 eV)
   181     181       --         0.409 au  H             1.00      1 P:x             6
                        (      11.125 eV)
   182     182       --         0.409 au  H             1.00      1 P:y             6
                        (      11.125 eV)
   183     183       --         0.409 au  H             1.00      1 P:z             6
                        (      11.125 eV)
   184     184       --         2.559 au  H             1.00      1 D:z2            6
                        (      69.641 eV)
   185     185       --         2.559 au  H             1.00      1 D:x2-y2         6
                        (      69.641 eV)
   186     186       --         2.559 au  H             1.00      1 D:xy            6
                        (      69.641 eV)
   187     187       --         2.559 au  H             1.00      1 D:xz            6
                        (      69.641 eV)
   188     188       --         2.559 au  H             1.00      1 D:yz            6
                        (      69.641 eV)
   189     189      1.000      -0.238 au  H             1.00      1 S               7
                        (      -6.469 eV)
   190     190       --         0.058 au  H             1.00      2 S               7
                        (       1.586 eV)
   191     191       --         0.748 au  H             1.00      3 S               7
                        (      20.360 eV)
   192     192       --         4.738 au  H             1.00      4 S               7
                        (     128.928 eV)
   193     193       --        34.378 au  H             1.00      5 S               7
                        (     935.471 eV)
   194     194       --       358.358 au  H             1.00      6 S               7
                        (    9751.428 eV)
   195     195       --      5395.976 au  H             1.00      7 S               7
                        (  146831.976 eV)
   196     196       --         0.409 au  H             1.00      1 P:x             7
                        (      11.125 eV)
   197     197       --         0.409 au  H             1.00      1 P:y             7
                        (      11.125 eV)
   198     198       --         0.409 au  H             1.00      1 P:z             7
                        (      11.125 eV)
   199     199       --         2.559 au  H             1.00      1 D:z2            7
                        (      69.641 eV)
   200     200       --         2.559 au  H             1.00      1 D:x2-y2         7
                        (      69.641 eV)
   201     201       --         2.559 au  H             1.00      1 D:xy            7
                        (      69.641 eV)
   202     202       --         2.559 au  H             1.00      1 D:xz            7
                        (      69.641 eV)
   203     203       --         2.559 au  H             1.00      1 D:yz            7
                        (      69.641 eV)
   204     204      1.000      -0.238 au  H             1.00      1 S               8
                        (      -6.469 eV)
   205     205       --         0.058 au  H             1.00      2 S               8
                        (       1.586 eV)
   206     206       --         0.748 au  H             1.00      3 S               8
                        (      20.360 eV)
   207     207       --         4.738 au  H             1.00      4 S               8
                        (     128.928 eV)
   208     208       --        34.378 au  H             1.00      5 S               8
                        (     935.471 eV)
   209     209       --       358.358 au  H             1.00      6 S               8
                        (    9751.428 eV)
   210     210       --      5395.976 au  H             1.00      7 S               8
                        (  146831.976 eV)
   211     211       --         0.409 au  H             1.00      1 P:x             8
                        (      11.125 eV)
   212     212       --         0.409 au  H             1.00      1 P:y             8
                        (      11.125 eV)
   213     213       --         0.409 au  H             1.00      1 P:z             8
                        (      11.125 eV)
   214     214       --         2.559 au  H             1.00      1 D:z2            8
                        (      69.641 eV)
   215     215       --         2.559 au  H             1.00      1 D:x2-y2         8
                        (      69.641 eV)
   216     216       --         2.559 au  H             1.00      1 D:xy            8
                        (      69.641 eV)
   217     217       --         2.559 au  H             1.00      1 D:xz            8
                        (      69.641 eV)
   218     218       --         2.559 au  H             1.00      1 D:yz            8
                        (      69.641 eV)



 ================================
 (Slater-type)  F U N C T I O N S  ***  (Basis and Fit)  ***
 ================================
  

 Atom Type    1  (P)
 ==============

 Valence Basis Sets:  19
 -----------------------
   1 S 1500.000000
   1 S  300.000000
   1 S   75.000000
   1 S   30.000000
   1 S   18.000000
   1 S   13.350000
   2 S    5.600000
   2 S    4.050000
   2 P   18.000000
   2 P    7.450000
   2 P    4.100000
   3 S    2.700000
   3 S    1.850000
   3 S    1.300000
   3 P    2.300000
   3 P    1.350000
   3 P    0.850000
   3 D    1.900000
   4 F    2.000000

 Atom Type    2  (O)
 ==============

 Valence Basis Sets:  15
 -----------------------
   1 S  800.000000
   1 S  160.000000
   1 S   40.000000
   1 S   16.000000
   1 S    9.800000
   1 S    6.800000
   2 S    7.580000
   2 S    2.880000
   2 S    1.720000
   2 P    9.800000
   2 P    4.080000
   2 P    2.080000
   2 P    1.120000
   3 D    2.000000
   4 F    3.000000

 Atom Type    3  (H)
 ==============

 Valence Basis Sets:   9
 -----------------------
   1 S  100.000000
   1 S   25.000000
   1 S    7.500000
   1 S    3.000000
   1 S    0.690000
   1 S    0.920000
   1 S    1.580000
   2 P    1.250000
   3 D    2.500000


 BAS: List of all Elementary Cartesian Basis Functions
 =====================================================

 The numbering in the list below (to the right of the function characteristics) is referred
 to in print-outs of MO eigenvectors and Mulliken populations in the BAS representation
 (as contrasted to the SFO representation).

 Notes:
 1. The functions are characterized by a polynomial prefactor (powers of x,y,z and r) and
    an exponential decay factor alpha.
 2. Since the basis sets are specific for an atom TYPE, the individual functions occur on
    all atoms of that type.
 3. The word 'Core' in the left margin signals that it is a Core Function (CF) : not a
    degree of freedom in the valence set, but only used to ensure orthogonalization of
    the other valence basis functions on the frozen Core Orbitals.


 (power of) X  Y  Z  R     Alpha  on Atom
            ==========     =====     ==========

 P                                    1
                                  ---------------------------------------------------------------------------
            0  0  0  0  1500.000      1
            0  0  0  0   300.000      2
            0  0  0  0    75.000      3
            0  0  0  0    30.000      4
            0  0  0  0    18.000      5
            0  0  0  0    13.350      6
            0  0  0  1     5.600      7
            0  0  0  1     4.050      8
            1  0  0  0    18.000      9
            0  1  0  0    18.000     10
            0  0  1  0    18.000     11
            1  0  0  0     7.450     12
            0  1  0  0     7.450     13
            0  0  1  0     7.450     14
            1  0  0  0     4.100     15
            0  1  0  0     4.100     16
            0  0  1  0     4.100     17
            0  0  0  2     2.700     18
            0  0  0  2     1.850     19
            0  0  0  2     1.300     20
            1  0  0  1     2.300     21
            0  1  0  1     2.300     22
            0  0  1  1     2.300     23
            1  0  0  1     1.350     24
            0  1  0  1     1.350     25
            0  0  1  1     1.350     26
            1  0  0  1     0.850     27
            0  1  0  1     0.850     28
            0  0  1  1     0.850     29
            2  0  0  0     1.900     30
            1  1  0  0     1.900     31
            1  0  1  0     1.900     32
            0  2  0  0     1.900     33
            0  1  1  0     1.900     34
            0  0  2  0     1.900     35
            3  0  0  0     2.000     36
            2  1  0  0     2.000     37
            2  0  1  0     2.000     38
            1  2  0  0     2.000     39
            1  1  1  0     2.000     40
            1  0  2  0     2.000     41
            0  3  0  0     2.000     42
            0  2  1  0     2.000     43
            0  1  2  0     2.000     44
            0  0  3  0     2.000     45

 O                                    2    3    4    5
                                  ---------------------------------------------------------------------------
            0  0  0  0   800.000     46   83  120  157
            0  0  0  0   160.000     47   84  121  158
            0  0  0  0    40.000     48   85  122  159
            0  0  0  0    16.000     49   86  123  160
            0  0  0  0     9.800     50   87  124  161
            0  0  0  0     6.800     51   88  125  162
            0  0  0  1     7.580     52   89  126  163
            0  0  0  1     2.880     53   90  127  164
            0  0  0  1     1.720     54   91  128  165
            1  0  0  0     9.800     55   92  129  166
            0  1  0  0     9.800     56   93  130  167
            0  0  1  0     9.800     57   94  131  168
            1  0  0  0     4.080     58   95  132  169
            0  1  0  0     4.080     59   96  133  170
            0  0  1  0     4.080     60   97  134  171
            1  0  0  0     2.080     61   98  135  172
            0  1  0  0     2.080     62   99  136  173
            0  0  1  0     2.080     63  100  137  174
            1  0  0  0     1.120     64  101  138  175
            0  1  0  0     1.120     65  102  139  176
            0  0  1  0     1.120     66  103  140  177
            2  0  0  0     2.000     67  104  141  178
            1  1  0  0     2.000     68  105  142  179
            1  0  1  0     2.000     69  106  143  180
            0  2  0  0     2.000     70  107  144  181
            0  1  1  0     2.000     71  108  145  182
            0  0  2  0     2.000     72  109  146  183
            3  0  0  0     3.000     73  110  147  184
            2  1  0  0     3.000     74  111  148  185
            2  0  1  0     3.000     75  112  149  186
            1  2  0  0     3.000     76  113  150  187
            1  1  1  0     3.000     77  114  151  188
            1  0  2  0     3.000     78  115  152  189
            0  3  0  0     3.000     79  116  153  190
            0  2  1  0     3.000     80  117  154  191
            0  1  2  0     3.000     81  118  155  192
            0  0  3  0     3.000     82  119  156  193

 H                                    6    7    8
                                  ---------------------------------------------------------------------------
            0  0  0  0   100.000    194  210  226
            0  0  0  0    25.000    195  211  227
            0  0  0  0     7.500    196  212  228
            0  0  0  0     3.000    197  213  229
            0  0  0  0     0.690    198  214  230
            0  0  0  0     0.920    199  215  231
            0  0  0  0     1.580    200  216  232
            1  0  0  0     1.250    201  217  233
            0  1  0  0     1.250    202  218  234
            0  0  1  0     1.250    203  219  235
            2  0  0  0     2.500    204  220  236
            1  1  0  0     2.500    205  221  237
            1  0  1  0     2.500    206  222  238
            0  2  0  0     2.500    207  223  239
            0  1  1  0     2.500    208  224  240
            0  0  2  0     2.500    209  225  241

 Total number of charge fitting functions (nprimf)      1338
 Total number of Cartesian basis functions (naos)        241
 Total number of Cartesian core functions  (ncos)          0

1
 ***************************************************************************************************



                                              ***********************
                                              *  T E C H N I C A L  *
                                              ***********************
  



 =============================================================
 P A R A L L E L I Z A T I O N  and  V E C T O R I Z A T I O N
 =============================================================
  
 Nr of parallel processes:                                4
 Maximum vector length in NumInt loops:                 128



 =====================
 S C F   U P D A T E S
 =====================
  
 Max. nr. of cycles:                               300
 Convergence criterion:                              0.0000010000
   secondary criterion:                              0.0010000000

 Mix parameter (when DIIS does not apply):           0.2000000000
 Mixed ADIIS+SDIIS will be used                  
    Max number of expansion vectors:                10
    Pure ADIIS when Max([F,P]) is above              0.1000000000
    Pure SDIIS when Max([F,P]) is below              0.0010000000
 Automatic ElectronSmearing (in case of problematic SCF convergence) disabled



 =================
 P R E C I S I O N  ***  (General: NumInt, NeglectFunctionTails, ...)  ***
 =================
  

 NumInt:           Target precision:                 6.0000000000
 -------           Initial precision:                6.0000000000
                   Min. precision (optimization):    6.0000000000

 Neglect Functions:          Basis functions:        0.1000000000E-07
 ------------------          Fit functions:          0.1000000000E-07



 ===========================
 L I N E A R   S C A L I N G
 ===========================
  

 Cut-off radii density fit:                        0.1000000000E-09
 Overlap cut-off criterion AO matrix elements:     0.1000000000E-07
 Cut-offs for Coulomb potential and fitted density:0.1000000000E-09
 Cut-off criterion for Coulomb multipole terms:    0.1000000000E-09
 Progressive Convergence parameter:                 0.000000000    
1
 ***************************************************************************************************



                                            ***************************
                                            *  C O M P U T A T I O N  *
                                            ***************************
  



 ==============================
 Double group spinor symmetries  ***  (Spin-Orbit)  ***
 ==============================
  

 The double group Lowdins are spinors adapted to the irreducible representations
 of the double group. These double group Lowdins are linear combinations of
 products of the single group Lowdins and the spinfunctions. The single group
 Lowdins are  orthonormalized symmetrized fragment orbitals (SFOs).
 The complex coefficients that are used in the linear combinations are also
 known as Clebsch-Gordan coefficients.
 The spin functions (alpha,beta) span irrep e1/2


          A * e 1/2 :      A1/2

  A1/2:1 = A.alpha
  A1/2:1 = A.beta

 The table summarizes which one-electron orbital irreps (single group) couple
 with spin to which spinor irreps (double group).
 The Clebsch-Gordan series for each direct product: orbital irrep times e1/2.
                  A
            -------
  A1/2           X


 dimension (equal to the max. nr. of electrons per spinor) of the double group irreps
 ------------------------------------------------------------------------------------
  A1/2           1

 Number of elements of the density matrix on this node (used, total):      7540     29161



 ===========================================
 Numerical Integration : Fuzzy Cells (Becke)
 ===========================================
  
 Becke grid quality: GOOD           
  
 Lebedev angular grid order:             min:  11 max:  31
 Nr. of radial points:                   min: 112 max: 222

 Total nr. of points:     286472
 Nr. of blocks:             2239
 Block length:               128
 Nr. of dummy points:        120


 Test of Precision of the Numerical Integration Grid
 ===================================================

 Integral of the Total Core Density:                   0.00000000000000


 -------------------------------------------
  COSMO surface
  Area             =          351.767
  Volume           =          526.866
  Number of Points =          944
 -------------------------------------------



 ========================
 Density Fitting (zlmFit)
 ========================
  
 ZlmFit Fit Quality: GOOD           
  
 Max L-expansion:                        min:   8 max:   9
 Nr. of radial interpolation points:     min: 180 max: 378



 =====
 S C F  ***  ScaSCF  ***
 =====
  
 Initial density matrix is calculated as sum of fragments

 CYCLE    1
 SCF Error: norm([F,P])=      8.282729976906, max([F,P])=      1.354305288431
 orbitals (Q,E):
 ---------------
 A1/2 :41...60       ( 1.00    -0.4669)  ( 1.00    -0.4669)  ( 1.00    -0.4665)  ( 1.00    -0.4665)
                     ( 1.00    -0.4395)  ( 1.00    -0.4395)  ( 1.00    -0.4280)  ( 1.00    -0.4280)
                     ( 1.00    -0.4274)  ( 1.00    -0.4274)  ( 0.00    -0.0783)  ( 0.00    -0.0783)
                     ( 0.00    -0.0321)  ( 0.00    -0.0321)  ( 0.00    -0.0319)  ( 0.00    -0.0319)
                     ( 0.00     0.0038)  ( 0.00     0.0038)  ( 0.00     0.0259)  ( 0.00     0.0259)

 CYCLE    2
   MIX coefficients:  0.8000  0.2000
 SCF Error: norm([F,P])=      0.900827740241, max([F,P])=      0.107556976526
 orbitals (Q,E):
 ---------------
 A1/2 :41...60       ( 1.00    -0.4149)  ( 1.00    -0.4149)  ( 1.00    -0.4146)  ( 1.00    -0.4146)
                     ( 1.00    -0.3854)  ( 1.00    -0.3854)  ( 1.00    -0.3583)  ( 1.00    -0.3583)
                     ( 1.00    -0.3577)  ( 1.00    -0.3577)  ( 0.00    -0.0603)  ( 0.00    -0.0603)
                     ( 0.00    -0.0166)  ( 0.00    -0.0166)  ( 0.00    -0.0165)  ( 0.00    -0.0165)
                     ( 0.00     0.0325)  ( 0.00     0.0325)  ( 0.00     0.0520)  ( 0.00     0.0520)

 CYCLE    3
  SDIIS (wt  0.000): -0.8327  1.8327
 A-DIIS (wt  1.000):  0.0000  1.0000
  DIIS coefficients:  0.0000  1.0000
 SCF Error: norm([F,P])=      0.422476913003, max([F,P])=      0.050690668543
 orbitals (Q,E):
 ---------------
 A1/2 :41...60       ( 1.00    -0.2774)  ( 1.00    -0.2774)  ( 1.00    -0.2621)  ( 1.00    -0.2621)
                     ( 1.00    -0.2375)  ( 1.00    -0.2375)  ( 1.00    -0.1862)  ( 1.00    -0.1862)
                     ( 1.00    -0.1857)  ( 1.00    -0.1857)  ( 0.00    -0.0184)  ( 0.00    -0.0184)
                     ( 0.00     0.0231)  ( 0.00     0.0231)  ( 0.00     0.0232)  ( 0.00     0.0232)
                     ( 0.00     0.0887)  ( 0.00     0.0887)  ( 0.00     0.1234)  ( 0.00     0.1234)

 CYCLE    4
  SDIIS (wt  0.000):  0.1975  0.3681  0.4344
 A-DIIS (wt  1.000):  0.0000  0.7182  0.2818
  DIIS coefficients:  0.0000  0.7182  0.2818
 SCF Error: norm([F,P])=      0.763296176370, max([F,P])=      0.099834962440
 orbitals (Q,E):
 ---------------
 A1/2 :41...60       ( 1.00    -0.3207)  ( 1.00    -0.3207)  ( 1.00    -0.3204)  ( 1.00    -0.3204)
                     ( 1.00    -0.2866)  ( 1.00    -0.2866)  ( 1.00    -0.2535)  ( 1.00    -0.2535)
                     ( 1.00    -0.2530)  ( 1.00    -0.2530)  ( 0.00    -0.0258)  ( 0.00    -0.0258)
                     ( 0.00     0.0151)  ( 0.00     0.0151)  ( 0.00     0.0152)  ( 0.00     0.0152)
                     ( 0.00     0.0786)  ( 0.00     0.0786)  ( 0.00     0.1086)  ( 0.00     0.1086)

 CYCLE    5
  SDIIS (wt  0.810):  0.0766  0.2640  0.1296  0.5297
 A-DIIS (wt  0.190):  0.0000  0.1142  0.0000  0.8858
  DIIS coefficients:  0.0621  0.2355  0.1050  0.5974
 SCF Error: norm([F,P])=      0.163677266591, max([F,P])=      0.019812662245
 orbitals (Q,E):
 ---------------
 A1/2 :41...60       ( 1.00    -0.3451)  ( 1.00    -0.3451)  ( 1.00    -0.3417)  ( 1.00    -0.3417)
                     ( 1.00    -0.3127)  ( 1.00    -0.3127)  ( 1.00    -0.2693)  ( 1.00    -0.2693)
                     ( 1.00    -0.2688)  ( 1.00    -0.2688)  ( 0.00    -0.0306)  ( 0.00    -0.0306)
                     ( 0.00     0.0107)  ( 0.00     0.0107)  ( 0.00     0.0108)  ( 0.00     0.0108)
                     ( 0.00     0.0739)  ( 0.00     0.0739)  ( 0.00     0.0991)  ( 0.00     0.0991)

 CYCLE    6
  SDIIS (wt  0.950):  0.0186  0.0483 -0.0229  0.4264  0.5296
 A-DIIS (wt  0.050):  0.0000  0.0000  0.0000  0.0315  0.9685
  DIIS coefficients:  0.0177  0.0459 -0.0218  0.4067  0.5515
 SCF Error: norm([F,P])=      0.052215189672, max([F,P])=      0.005948044921
 orbitals (Q,E):
 ---------------
 A1/2 :41...60       ( 1.00    -0.3404)  ( 1.00    -0.3404)  ( 1.00    -0.3402)  ( 1.00    -0.3402)
                     ( 1.00    -0.3077)  ( 1.00    -0.3077)  ( 1.00    -0.2723)  ( 1.00    -0.2723)
                     ( 1.00    -0.2718)  ( 1.00    -0.2718)  ( 0.00    -0.0300)  ( 0.00    -0.0300)
                     ( 0.00     0.0113)  ( 0.00     0.0113)  ( 0.00     0.0114)  ( 0.00     0.0114)
                     ( 0.00     0.0742)  ( 0.00     0.0742)  ( 0.00     0.0985)  ( 0.00     0.0985)

 CYCLE    7
  SDIIS (wt  0.997):  0.0130 -0.0010 -0.0136  0.1693  0.2964  0.5358
 A-DIIS (wt  0.003):  0.0000  0.0000  0.0000  0.0000  0.0000  1.0000
  DIIS coefficients:  0.0129 -0.0009 -0.0136  0.1688  0.2956  0.5372
 SCF Error: norm([F,P])=      0.011240463347, max([F,P])=      0.001293263868
 orbitals (Q,E):
 ---------------
 A1/2 :41...60       ( 1.00    -0.3402)  ( 1.00    -0.3402)  ( 1.00    -0.3400)  ( 1.00    -0.3400)
                     ( 1.00    -0.3076)  ( 1.00    -0.3076)  ( 1.00    -0.2708)  ( 1.00    -0.2708)
                     ( 1.00    -0.2703)  ( 1.00    -0.2703)  ( 0.00    -0.0298)  ( 0.00    -0.0298)
                     ( 0.00     0.0114)  ( 0.00     0.0114)  ( 0.00     0.0114)  ( 0.00     0.0114)
                     ( 0.00     0.0745)  ( 0.00     0.0745)  ( 0.00     0.0996)  ( 0.00     0.0996)

 CYCLE    8
  SDIIS (wt  1.000):  0.0034 -0.0021 -0.0042  0.0402  0.0734  0.1795  0.7098
  DIIS coefficients:  0.0034 -0.0021 -0.0042  0.0402  0.0734  0.1795  0.7098
 SCF Error: norm([F,P])=      0.001226616600, max([F,P])=      0.000145919733
 orbitals (Q,E):
 ---------------
 A1/2 :41...60       ( 1.00    -0.3403)  ( 1.00    -0.3403)  ( 1.00    -0.3401)  ( 1.00    -0.3401)
                     ( 1.00    -0.3077)  ( 1.00    -0.3077)  ( 1.00    -0.2709)  ( 1.00    -0.2709)
                     ( 1.00    -0.2704)  ( 1.00    -0.2704)  ( 0.00    -0.0298)  ( 0.00    -0.0298)
                     ( 0.00     0.0114)  ( 0.00     0.0114)  ( 0.00     0.0114)  ( 0.00     0.0114)
                     ( 0.00     0.0744)  ( 0.00     0.0744)  ( 0.00     0.0995)  ( 0.00     0.0995)

 CYCLE    9
  SDIIS (wt  1.000):  0.0002 -0.0005 -0.0002  0.0007  0.0007  0.0134  0.1954  0.7903
  DIIS coefficients:  0.0002 -0.0005 -0.0002  0.0007  0.0007  0.0134  0.1954  0.7903
 SCF Error: norm([F,P])=      0.000235616315, max([F,P])=      0.000032356612
 orbitals (Q,E):
 ---------------
 A1/2 :41...60       ( 1.00    -0.3403)  ( 1.00    -0.3403)  ( 1.00    -0.3401)  ( 1.00    -0.3401)
                     ( 1.00    -0.3076)  ( 1.00    -0.3076)  ( 1.00    -0.2709)  ( 1.00    -0.2709)
                     ( 1.00    -0.2703)  ( 1.00    -0.2703)  ( 0.00    -0.0298)  ( 0.00    -0.0298)
                     ( 0.00     0.0113)  ( 0.00     0.0113)  ( 0.00     0.0114)  ( 0.00     0.0114)
                     ( 0.00     0.0744)  ( 0.00     0.0744)  ( 0.00     0.0995)  ( 0.00     0.0995)

 CYCLE   10
  SDIIS (wt  1.000):  0.0000 -0.0000  0.0000 -0.0003 -0.0004  0.0011  0.0305  0.1559  0.8132
  DIIS coefficients:  0.0000 -0.0000  0.0000 -0.0003 -0.0004  0.0011  0.0305  0.1559  0.8132
 SCF Error: norm([F,P])=      0.000023157131, max([F,P])=      0.000002881104
 orbitals (Q,E):
 ---------------
 A1/2 :41...60       ( 1.00    -0.3403)  ( 1.00    -0.3403)  ( 1.00    -0.3401)  ( 1.00    -0.3401)
                     ( 1.00    -0.3076)  ( 1.00    -0.3076)  ( 1.00    -0.2709)  ( 1.00    -0.2709)
                     ( 1.00    -0.2703)  ( 1.00    -0.2703)  ( 0.00    -0.0298)  ( 0.00    -0.0298)
                     ( 0.00     0.0113)  ( 0.00     0.0113)  ( 0.00     0.0114)  ( 0.00     0.0114)
                     ( 0.00     0.0744)  ( 0.00     0.0744)  ( 0.00     0.0995)  ( 0.00     0.0995)

 CYCLE   11
  SDIIS (wt  1.000): -0.0000 -0.0000  0.0000 -0.0001 -0.0001 -0.0000  0.0028  0.0155  0.1554  0.8264
  DIIS coefficients: -0.0000 -0.0000  0.0000 -0.0001 -0.0001 -0.0000  0.0028  0.0155  0.1554  0.8264
 SCF Error: norm([F,P])=      0.000003477666, max([F,P])=      0.000000385402
 orbitals (Q,E):
 ---------------
 A1/2 :41...60       ( 1.00    -0.3403)  ( 1.00    -0.3403)  ( 1.00    -0.3401)  ( 1.00    -0.3401)
                     ( 1.00    -0.3076)  ( 1.00    -0.3076)  ( 1.00    -0.2709)  ( 1.00    -0.2709)
                     ( 1.00    -0.2703)  ( 1.00    -0.2703)  ( 0.00    -0.0298)  ( 0.00    -0.0298)
                     ( 0.00     0.0113)  ( 0.00     0.0113)  ( 0.00     0.0114)  ( 0.00     0.0114)
                     ( 0.00     0.0744)  ( 0.00     0.0744)  ( 0.00     0.0995)  ( 0.00     0.0995)

 SCF CONVERGED
 cosmo_calcen: 0.5 (esolb+esolc) (Hartrees) =   -0.018433

 Solvation energy (screening term,uncorrected) =    -11.566587 kcal/mol

 Solvation energy (dispersion and cavitation terms) =      0.527469 kcal/mol
 Solvation Energy Contributions (Hartrees)
          esola   esolb+esolc
     0.01843253   -0.03686506
 esol last cycle   -0.01843253

 CYCLE   12
1
 ***************************************************************************************************



                                                *******************
                                                *  R E S U L T S  *
                                                *******************
  
 *** Using FIT density in Focky
  SDIIS (wt  1.000): -0.0000  0.0000 -0.0000 -0.0000 -0.0000  0.0007  0.0038  0.0617  0.4931  0.4409
  DIIS coefficients: -0.0000  0.0000 -0.0000 -0.0000 -0.0000  0.0007  0.0038  0.0617  0.4931  0.4409
 SCF Error: norm([F,P])=      0.000002599260, max([F,P])=      0.000000404483

 Scaled ZORA Orbital Energies, per Irrep and Spin:
 =================================================
                        Occup              E (au)              E (eV)       Diff (eV) with prev. cycle
                        -----      --------------------        ------       --------------------------
 A1/2
              41        1.000     -0.34028722959671E+00        -9.260               2.37E-07
              42        1.000     -0.34028722959473E+00        -9.260               2.37E-07
              43        1.000     -0.34008083907422E+00        -9.254               4.86E-07
              44        1.000     -0.34008083907094E+00        -9.254               4.86E-07
              45        1.000     -0.30764753965663E+00        -8.372               3.25E-07
              46        1.000     -0.30764753965327E+00        -8.372               3.25E-07
              47        1.000     -0.27090609149860E+00        -7.372               5.38E-07
              48        1.000     -0.27090609149744E+00        -7.372               5.38E-07
              49        1.000     -0.27034852226583E+00        -7.357               5.73E-07
              50        1.000     -0.27034852226130E+00        -7.357               5.73E-07
              51        0.000     -0.29826047676760E-01        -0.812
              52        0.000     -0.29826047649617E-01        -0.812
              53        0.000      0.11348491890237E-01         0.309
              54        0.000      0.11348491899933E-01         0.309
              55        0.000      0.11446237367220E-01         0.311
              56        0.000      0.11446237373905E-01         0.311
              57        0.000      0.74438122707425E-01         2.026
              58        0.000      0.74438122712000E-01         2.026
              59        0.000      0.99515414691302E-01         2.708
              60        0.000      0.99515414698160E-01         2.708
  
 HOMO :       50 A1/2             -0.27034852226130E+00
 LUMO :       51 A1/2             -0.29826047676760E-01
  
 cosmo_calcen: 0.5 (esolb+esolc) (Hartrees) =   -0.018433

 Solvation energy (screening term,uncorrected) =    -11.566588 kcal/mol

 Solvation energy (dispersion and cavitation terms) =      0.527469 kcal/mol
 Solvation Energy Contributions (Hartrees)
          esola   esolb+esolc
     0.01843253   -0.03686506
 esol last cycle   -0.01843253


 All Electron Calculation, thus no Orbital Energies of the Core Orbitals are calculated


 Fit test: (difference of exact and fit density, squared integrated, result summed over spins)
         Sum-of-Fragments:                             0.00000000001239
         Orthogonalized Fragments:                     0.00003585752987
         SCF:                                          0.00001909892754



 ==========================
 Electron Density at Nuclei
 ==========================
  
 The electron density is calculated at points on a small sphere around the center of a nucleus.
 The printed electron density is the average electron density on these points.
 The radius of the sphere is the printed approximate finite nuclear radius.
 Note: ZORA-4 density is used, which includes small component density

         Atom        Nuclear Radius (Angstrom)             Electron Density (a.u.)
         ----        -------------------------             -----------------------
     1)   P                 0.0000412627                             2354.86909
     2)   O                 0.0000345546                              317.73132
     3)   O                 0.0000345546                              317.73085
     4)   O                 0.0000345546                              317.73046
     5)   O                 0.0000345546                              318.09404
     6)   H                 0.0000181514                                0.43732
     7)   H                 0.0000181514                                0.43726
     8)   H                 0.0000181514                                0.43716



 =======================================
 M U L L I K E N   P O P U L A T I O N S
 =======================================
  
 The survey below gives for each atom:
 a) the total charge (Z minus electrons)
 b) the net spin polarization (nr of electrons spin-A minus spin-B)
 c) for each spin the atomic electron valence density (integrated) per L-value.

 Atom              Charge    Spin density          S         P         D         F
 ----              ------    ------------       ------    ------    ------    ------
 1 P               1.3851                       4.8312    7.7665    0.8566    0.1605
 2 O              -0.5074                       3.7755    4.6825    0.0451    0.0044
 3 O              -0.5074                       3.7754    4.6825    0.0450    0.0044
 4 O              -0.5075                       3.7754    4.6826    0.0451    0.0044
 5 O              -0.6891                       3.8321    4.8081    0.0444    0.0045
 6 H               0.2754                       0.5985    0.1147    0.0114    0.0000
 7 H               0.2755                       0.5984    0.1148    0.0114    0.0000
 8 H               0.2755                       0.5984    0.1147    0.0114    0.0000

 Populations of individual BAS functions
 ----------------------------------------
 1 P            0.0000  0.0000  0.0007  0.0079  0.5314  1.4141  1.5084  0.5095  0.0080  0.0080
                0.0081  0.7533  0.7533  0.7545  1.2564  1.2564  1.2561  0.3092  0.8099 -0.2599
                0.3347  0.3347  0.3636  0.2992  0.2992  0.2014 -0.0563 -0.0563 -0.0076  0.0922
                0.1443  0.1995  0.0922  0.1995  0.1289  0.0054  0.0177  0.0080  0.0119  0.0197
                0.0336  0.0073  0.0080  0.0336  0.0153
 2 O            0.0000  0.0000  0.0005 -0.0000  0.4779  1.6666 -0.1831  1.0226  0.7909  0.0033
                0.0038  0.0036  0.2004  0.2597  0.2510  0.9724  1.0654  1.0355  0.1045  0.4038
                0.3790  0.0310  0.0097  0.0150 -0.0131  0.0079 -0.0054  0.0092  0.0103  0.0098
               -0.0062  0.0008 -0.0018 -0.0094 -0.0038  0.0004 -0.0047
 3 O            0.0000  0.0000  0.0005  0.0000  0.4769  1.6680 -0.1835  1.0227  0.7908  0.0037
                0.0034  0.0036  0.2515  0.2086  0.2510  1.0484  0.9895  1.0355  0.3536  0.1548
                0.3790 -0.0023  0.0051  0.0079  0.0248  0.0150 -0.0054 -0.0026 -0.0046 -0.0015
                0.0042  0.0006 -0.0006  0.0067  0.0077 -0.0008 -0.0047
 4 O            0.0000  0.0000  0.0005 -0.0001  0.4786  1.6658 -0.1829  1.0227  0.7908  0.0036
                0.0034  0.0036  0.2383  0.2219  0.2510  1.0360  1.0019  1.0355  0.3045  0.2040
                0.3791  0.0012  0.0083  0.0114  0.0182  0.0115 -0.0054 -0.0037 -0.0026  0.0007
                0.0042  0.0011  0.0003  0.0059  0.0050 -0.0017 -0.0047
 5 O            0.0000  0.0000  0.0005  0.0008  0.4727  1.6538 -0.1643  1.0344  0.8343  0.0032
                0.0032  0.0027  0.2513  0.2513  0.2307  0.9610  0.9610  0.8877  0.4730  0.4730
                0.3102 -0.0058  0.0006  0.0144 -0.0058  0.0144  0.0267 -0.0082 -0.0027 -0.0077
               -0.0027  0.0001  0.0125 -0.0082 -0.0077  0.0125  0.0168
 6 H           -0.0000  0.0000 -0.0011 -0.0011  0.0934  0.0738  0.4334  0.0275  0.0438  0.0434
                0.0052  0.0027  0.0027 -0.0014  0.0014  0.0008
 7 H           -0.0000  0.0000 -0.0011 -0.0011  0.0934  0.0739  0.4333  0.0401  0.0312  0.0434
               -0.0034  0.0032  0.0010  0.0068  0.0031  0.0008
 8 H           -0.0000  0.0000 -0.0011 -0.0011  0.0933  0.0740  0.4332  0.0394  0.0320  0.0434
                0.0042  0.0018  0.0024  0.0006  0.0016  0.0008

 Gross Charges per Atom (Z minus electrons)
 ==========================================
             1.3851   -0.5074   -0.5074   -0.5075   -0.6891    0.2754    0.2755    0.2755
 Net Total: -0.00000000


 Atom-Atom Population Matrix (off-diagonal elements not doubled)
 ===============================================================

     1 :    11.9700
     2 :     0.3691    7.8242
     3 :     0.3691   -0.0309    7.8242
     4 :     0.3691   -0.0308   -0.0309    7.8243
     5 :     0.6832   -0.0388   -0.0388   -0.0388    8.1353
     6 :    -0.0486    0.4112    0.0034   -0.0000   -0.0043    0.3611
     7 :    -0.0486   -0.0000    0.4113    0.0034   -0.0043    0.0009    0.3610
     8 :    -0.0486    0.0034   -0.0000    0.4112   -0.0043    0.0009    0.0009    0.3611



 =================================================
 H I R S H F E L D   C H A R G E   A N A L Y S I S
 =================================================
  
 For each fragment: the (numerical) integral of rho(scf) * rho(fragment)/rho(sum-of-fragments)
 (nuclear charges are included, electrons are counted negative)

 The fragments and their ordering are defined in the early G E O M E T R Y output section.
 If you use single-atom fragments, this usually implies that all atoms of the same
 chemical type are grouped together. This may not be the order in which you listed them
 in the input file!

    1  P                         0.4596
    2  O                        -0.2147
    3  O                        -0.2147
    4  O                        -0.2147
    5  O                        -0.4235
    6  H                         0.2026
    7  H                         0.2026
    8  H                         0.2026

 Sum of these charges (accuracy NumInt/Tails) =          -0.00004179



 =============================
 V O R O N O I   C H A R G E S
 =============================
  
 For each atom: the (numerical) integral of the total electronic charge density in its Voronoi cell,
 i.e. the region of space that is closer to that atom than to any other atom.
 (cf. Wigner-Seitz cells in crystals)

 Within the Voronoi cell the subintegrals over the atomic sphere and the remaining part are evaluated
 separately to give the numbers of electrons (negative charge) in these regions.
 The net total charge in the cell (including the nuclear charge) is also given.

 Values are provided for
    a) the Initial (sum-of-fragments) density
    b) the Orthogonalized-Fragments density
    c) the SCF density
    d) the Voronoi Deformation Density (VDD): the difference SCF-Initial for the complete atomic cell


  Atom                Initial                    OrthFrag                   SCF
             Sphere RestCell NetTotal   Sphere RestCell NetTotal   Sphere RestCell NetTotal      VDD
 -----       ------------------------   ------------------------   ------------------------    -----
    1 P      -9.580   -3.603    1.817   -9.621   -3.844    1.535   -9.556   -3.201    2.243    0.426
    2 O      -2.687   -5.163    0.150   -2.827   -5.071    0.103   -2.707   -5.368   -0.075   -0.225
    3 O      -2.687   -5.155    0.158   -2.827   -5.065    0.109   -2.706   -5.361   -0.067   -0.225
    4 O      -2.687   -5.153    0.160   -2.827   -5.063    0.111   -2.706   -5.360   -0.067   -0.227
    5 O      -2.684   -5.789   -0.473   -2.784   -5.626   -0.410   -2.701   -6.256   -0.957   -0.484
    6 H      -0.086   -1.517   -0.603   -0.089   -1.393   -0.482   -0.106   -1.252   -0.358    0.245
    7 H      -0.086   -1.521   -0.607   -0.089   -1.396   -0.485   -0.107   -1.255   -0.362    0.245
    8 H      -0.087   -1.515   -0.602   -0.090   -1.391   -0.481   -0.107   -1.250   -0.357    0.245
 ---------------------------------------------------------------------------------------------------
 Total NetCharge:              -0.000                     -0.000                     -0.000    0.000
 (accuracy NumInt/Tails)

 Remark: the 'NetTotal' Voronoi charges often do not match the Mulliken and/or Hirshfeld charges very
 well. This is caused by the fact that chemically different atoms are not treated in accordance with
 their relative sizes. (Voronoi cells are defined by boundary planes halfway between the atoms.)
 However, the CHANGES in charge, comparing 'Initial' to 'SCF' for instance, do give a fair indication
 of the flow of charge caused by the relaxation from sum-of-fragments to self-consistency.

 Warning: the absolute accuracy of the VDD charges obtained using the Fuzzy Cells (Becke) integration
 scheme is much poorer than the one obtained with an 'equivalent' Voronoi integration grid. 



 =================================================================
 M U L T I P O L E   D E R I V E D   C H A R G E   A N A L Y S I S
 =================================================================

 This charge analysis uses the atomic multipoles (obtained from the fitted density) up to some level X,
 and reconstructs these multipoles exactly (up to level X) by distributing charges over all atoms.
 This is achieved by using Lagrange multipliers and a weight function to keep the multipoles local.

 Dummy atoms can be included (by setting INCDUM in MDC-block to 1) to obtain a fractional charge.
 This is generally useful and necessary only for small symmetrical molecules, when there are not
 enough degrees of freedom to reconstruct the multipoles.

 Since the atomic multipoles are reconstructed up to level X,
 the molecular multipoles are represented also up to level X.
 The recommended level is to reconstruct up to quadrupole : -> MDC-q charges.

 See: M. Swart, P.Th. van Duijnen, J.G. Snijders, J.Comput.Chem., (2001), p. 79-88.

 ------------------------------------------------------------- 
 Atomic electronic multipole moments from SCF equations (a.u.)
 ------------------------------------------------------------- 

   atom        charge        dip-x     dip-y     dip-z      quad-xx   quad-xy   quad-xz   quad-yy   quad-yz   quad-zz
 --------------------------------------------------------------------------------------------------------------------
    1 P      2.040609    -0.000006 -0.000004  0.165182    -0.065822  0.000040  0.000077 -0.065832 -0.000024  0.131654
    2 O     -0.506880    -0.349271  0.136887 -0.121947     0.643009 -0.112388  0.136748 -0.390571 -0.182800 -0.252438
    3 O     -0.506930     0.056138 -0.370944 -0.121886    -0.278181 -0.242124  0.089922  0.530678  0.209886 -0.252497
    4 O     -0.506913     0.293176  0.233976 -0.121922     0.013833  0.354647 -0.226715  0.238663 -0.026985 -0.252496
    5 O     -0.918135    -0.000074  0.000036 -0.051793    -0.314371 -0.000013 -0.000017 -0.314350  0.000011  0.628721
    6 H      0.132752    -0.128352  0.029634 -0.030762     0.089087 -0.046571  0.064183 -0.056170 -0.032951 -0.032917
    7 H      0.132746     0.038516 -0.125971 -0.030742    -0.080344 -0.018672 -0.003547  0.113302  0.072059 -0.032958
    8 H      0.132751     0.089834  0.096340 -0.030757     0.040639  0.065245 -0.060625 -0.007691 -0.039102 -0.032947

 --------------------------------------- 
 Multipole derived atomic charges (a.u.)
 --------------------------------------- 

 The MDC-m charges are just the Monopole terms in the multipole expansion, while for the MDC-d charges
 also the Dipoles are reconstructed. The usually preferred charges are the MDC-q charges.
 These reconstruct the Monopoles, Dipoles and Quadrupoles (both atomic AND molecular).

[...]
 *   Scientific publications using AMS results must be properly referenced     *
 *   See the User Manuals (or the web site) for recommended citations          *
 *   The terms and conditions of the End User License Agreement apply to       *
 *   the use of AMS, https://www.scm.com/license-terms/                        *
 *                                                                             *
 **********************  x86_64_linux_intel / intelmpi  ************************
 
 Licensed to: Dr. Miroslav Ilias / Matej Bel University, Department Chemistry, Fac. Natural Sciences / Banska Bystrica / SLOVAKIA
 SCM User ID: u17848
  
 NMR 2021.105  RunTime: Nov25-2021 20:25:44  ShM Nodes: 1  Procs: 4

 Temporary files are created in /tmp/kid_0.61859522 (0xEF53)


 Communication costs MPI_COMM_WORLD:      0.275 usec per message,   0.0033 usec per 8-byte item
 Communication costs for intra-node:      0.268 usec per message,   0.0033 usec per 8-byte item

                    
                      **********************************    
                      ||******************************||    
                      ||                              ||    
                      ||  ##   ##  ###  ###  ######   ||    
                      ||  ###  ##  ########  ##   ##  ||    
                      ||  #### ##  ## ## ##  ######   ||    
                      ||  ## ####  ##    ##  ## ##    ||    
                      ||  ##  ###  ##    ##  ##  ##   ||    
                      ||  ##   ##  ##    ##  ##   ##  ||    
                      ||                              ||    
                      | ****************************** |    
                      **********************************    
                    
                            Written for ADF by              
                    
                    Stephen K. Wolff & Georg Schreckenbach  
                    
                      The research group of Tom Ziegler     
                            University of Calgary           
                               Alberta, Canada              
                    
                      Speedups, NBO analysis, g-tensors,    
                       full ZORA SO, and other goodies by   
                         Jochen Autschbach, SUNY Buffalo
                    
 =============================
 NMR Chemical shift References
 =============================
  
 Lead:
 G. Schreckenbach, T. Ziegler, J. Phys. Chem. 99 (1995) 606
  
 Speed-ups:
 J. Autschbach, E. Zurek, J. Phys. Chem. A 107 (2003), 4967
  
 Hybrids:
 M. Krykunov, T. Ziegler, E. van Lenthe, Int. J. of Quantum Chem. 109, 1676 (2009)
  
 Spin-orbit coupling:
 S.K. Wolff, T. Ziegler, E. van Lenthe, E.J. Baerends, J. Chem. Phys. 110, 7689 (1999)
 J. Autschbach, Mol. Phys. 111 (2013), 2544
  
 Paramagnetic:
 J. Autschbach, S. Patchkovskii, B. Pritchard, J. Chem. Theory Comput. 7, 2175 (2011)
  
 NBO analysis:
 J. Autschbach, J. Chem. Phys. 128 (2008), 164112
 J. Autschbach, S. Zheng, Magn. Reson. Chem. 46 (2008), S48
  
 Suggested:
 G. Schreckenbach, T. Ziegler, Int. J. Quantum Chem. 60, 753 (1996)
 G. Schreckenbach, T. Ziegler, Int. J. Quantum Chem. 61 (1997) 899
 S.K. Wolff, T. Ziegler, J. Chem. Phys. 109 (1998) 895
  
 =======================
 ESR g-tensor References
 =======================
  
 Lead:
 J. Autschbach, B. Pritchard, Theor. Chem. Acc. 129 (2011), 453
  
 Suggested:
 G. Schreckenbach, T. Ziegler, J. Phys. Chem. A 101, 3388 (1997)
 
################################################################################
 
 
################################################################################
 
 
              <><><><><><><><><><><><><><><><><><><><><><><><><>
 
                 GENERAL ADF INFORMATION:
                 ------------------------
 
                 TITLE:    *** adf ***                                  
 JOB ID:      372639435
                 NONLXC:   OPTX PBEc                                    
                 SYMMETRY: NOSYM                                        
                  
                 IOPREL:  13
                 ------>  SpinOrbit ZORA + core pot. (Re/Im MOs)
                 ------>  Core pot used in K, Full pot used in V
 
              <><><><><><><><><><><><><><><><><><><><><><><><><>
 
              ==================================================
 
                 NUCLEAR COORDINATES (ANGSTROMS):
                 --------------------------------
 
                 P  (  1):      -0.0000      0.0000     -0.1557
                 O  (  2):      -1.3803     -0.3505      0.5400
                 O  (  3):       0.9937     -1.0201      0.5400
                 O  (  4):       0.3866      1.3707      0.5400
                 O  (  5):      -0.0000      0.0000     -1.6245
                 H  (  6):      -2.1317      0.0167      0.0534
                 H  (  7):       1.0514     -1.8545      0.0534
                 H  (  8):       1.0803      1.8378      0.0534
 
              ==================================================
 
              <><><><><><><><><><><><><><><><><><><><><><><><><>
 
                 NUMBERS:
                 --------
 
                 number of electrons:     50.00
 
                 ---   AOs   ---          ---   MOs   ---
                 ncor =     0             nocc =    50
                 nval =   241             nvir =   386
                 nbas =   241             nmo  =   436
                 naos =   241             nsot =   436
              ==================================================
                  
                 --------------------------
                     ATOM TYPE: P                        
                 --------------------------
                 === BASIS
                   1S 1500.00     VALENCE
                   1S  300.00     VALENCE
                   1S   75.00     VALENCE
                   1S   30.00     VALENCE
                   1S   18.00     VALENCE
                   1S   13.35     VALENCE
                   2S    5.60     VALENCE
                   2S    4.05     VALENCE
                   2P   18.00     VALENCE
                   2P    7.45     VALENCE
                   2P    4.10     VALENCE
                   3S    2.70     VALENCE
                   3S    1.85     VALENCE
                   3S    1.30     VALENCE
                   3P    2.30     VALENCE
                   3P    1.35     VALENCE
                   3P    0.85     VALENCE
                   3D    1.90     VALENCE
                   4F    2.00     VALENCE
                  
                 --------------------------
                     ATOM TYPE: O                        
                 --------------------------
                 === BASIS
                   1S  800.00     VALENCE
                   1S  160.00     VALENCE
                   1S   40.00     VALENCE
                   1S   16.00     VALENCE
                   1S    9.80     VALENCE
                   1S    6.80     VALENCE
                   2S    7.58     VALENCE
                   2S    2.88     VALENCE
                   2S    1.72     VALENCE
                   2P    9.80     VALENCE
                   2P    4.08     VALENCE
                   2P    2.08     VALENCE
                   2P    1.12     VALENCE
                   3D    2.00     VALENCE
                   4F    3.00     VALENCE
                  
                 --------------------------
                     ATOM TYPE: H                        
                 --------------------------
                 === BASIS
                   1S  100.00     VALENCE
                   1S   25.00     VALENCE
                   1S    7.50     VALENCE
                   1S    3.00     VALENCE
                   1S    0.69     VALENCE
                   1S    0.92     VALENCE
                   1S    1.58     VALENCE
                   2P    1.25     VALENCE
                   3D    2.50     VALENCE
                  
              ==================================================
              <><><><><><><><><><><><><><><><><><><><><><><><><>
 
                 TENSOR INFORMATION:
                 -------------------
 
                              CALC                   U1K
 
                 paramagnetic  = T     mass-velocity = F
                 diamagnetic   = T     Darwin        = F
                 Fermi-cont.   = F     Zeeman        = F
                 ZORA SO       = T     ZORA SO       = T
                 ZORA SCALE    = F     ZORA SO FULL  = T
                 ZORA SO 1C    = F     E IN U1 SCL   = F
                                       fXC in CPKS   = F
 
              <><><><><><><><><><><><><><><><><><><><><><><><><>
 
              <><><><><><><><><><><><><><><><><><><><><><><><><>
 
                 OUTPUT SWITCHES:
                 ----------------
 
                           ISO = T                F1 = F
                          TENS = T                S1 = F
                           EIG = F                U1 = F
                           AOP = F                B1 = F
                           AOD = F                F  = F
                           AOF = F                 S = F
                          INFO = F              REFS = F
 
              <><><><><><><><><><><><><><><><><><><><><><><><><>
 
              --------------------------------------------------
 
                 CALCULATE THE POTENTIAL? F
                  
                 ---> Potential is already on TAPE10.
                      It will not be re-calculated.
 
              --------------------------------------------------



 ===========================
 L I N E A R   S C A L I N G
 ===========================
  

 Overlap cut-off criterion AO matrix elements:     0.1000000000E-07
################################################################################
********************************************************************************
****  N U C L E U S : P(1)
 
 ADF-GUI atom: P(1)
 Internal NMR numbering of atoms: P(1)
 
 
================================================================================
 
 
=== UNSCALED: PARAMAGNETIC NMR SHIELDING TENSORS (ppm)
 
    ===     paramagnetic b^(1) tensor       ===     paramagnetic u^(1) tensor
    -----------------------------------     -----------------------------------
           0.000     0.000     0.000            -673.545    -0.025     0.022
           0.000     0.000     0.000              -0.025  -673.526     0.009
           0.000     0.000     0.000               0.022     0.009  -499.716
    -----------------------------------     -----------------------------------
              isotropic =      0.000                  isotropic =   -615.596

    ===     paramagnetic s^(1) tensor       ===     paramagnetic gauge tensor
    -----------------------------------     -----------------------------------
         -45.829    -0.005    -0.005              -2.652    -0.000    -0.001
          -0.005   -45.851    -0.030              -0.000    -2.654    -0.001
          -0.005    -0.030   -33.340              -0.001    -0.001    -1.632
    -----------------------------------     -----------------------------------
              isotropic =    -41.673                  isotropic =     -2.312

                        ***********************************
                        CARTESIAN AXIS REPRESENTATION

                        ==== total paramagnetic tensor
                        -----------------------------------
                            -722.026    -0.031     0.017
                              -0.031  -722.031    -0.022
                               0.017    -0.022  -534.688
                        -----------------------------------
                                  isotropic =   -659.582

                        ***********************************
                        -----------------------------------
                        PRINCIPAL AXIS REPRESENTATION

                        ==== Principal components:

                            -722.059  -721.998  -534.688
 
                        ==== Principal Axis System:

                               0.680     0.733     0.000
                               0.733    -0.680    -0.000
                               0.000    -0.000     1.000
                        -----------------------------------
 
================================================================================
 
 
=== UNSCALED: DIAMAGNETIC NMR SHIELDING TENSORS (ppm)
 
    ===       diamagnetic core tensor       ===    diamagnetic valence tensor
    -----------------------------------     -----------------------------------
           0.000     0.000     0.000             964.115     0.001    -0.001
           0.000     0.000     0.000               0.001   964.116     0.001
           0.000     0.000     0.000              -0.001     0.001   961.555
    -----------------------------------     -----------------------------------
              isotropic =      0.000                  isotropic =    963.262

                        ***********************************
                        CARTESIAN AXIS REPRESENTATION

                        ==== total diamagnetic tensor
                        -----------------------------------
                             964.115     0.001    -0.001
                               0.001   964.116     0.001
                              -0.001     0.001   961.555
                        -----------------------------------
                                  isotropic =    963.262

                        ***********************************
                        -----------------------------------
                        PRINCIPAL AXIS REPRESENTATION

                        ==== Principal components:

                             961.555   964.114   964.117
 
                        ==== Principal Axis System:

                               0.000     0.743     0.669
                              -0.000    -0.669     0.743
                               1.000    -0.001    -0.000
                        -----------------------------------
 
================================================================================
 
 
=== UNSCALED: SPIN-ORBIT NMR SHIELDING TENSORS (ppm)
 
    ===       spin-orbit b^(1) tensor       ===       spin-orbit u^(1) tensor
    -----------------------------------     -----------------------------------
           0.000     0.000     0.000              12.384    -0.000     0.000
           0.000     0.000     0.000              -0.000    12.383    -0.000
           0.000     0.000     0.000               0.000    -0.000    13.314
    -----------------------------------     -----------------------------------
              isotropic =      0.000                  isotropic =     12.694

    ===       spin-orbit s^(1) tensor       ===       spin-orbit gauge tensor
    -----------------------------------     -----------------------------------
           1.568     0.000     0.000              -0.006     0.000    -0.000
           0.000     1.568    -0.000               0.000    -0.006     0.000
           0.000    -0.000     1.104              -0.000     0.000    -0.002
    -----------------------------------     -----------------------------------
              isotropic =      1.413                  isotropic =     -0.004

                        ***********************************
                        CARTESIAN AXIS REPRESENTATION

                        ==== total spin-orbit tensor
                        -----------------------------------
                              13.946    -0.000     0.000
                              -0.000    13.946    -0.000
                               0.000    -0.000    14.416
                        -----------------------------------
                                  isotropic =     14.103

                        ***********************************
                        -----------------------------------
                        PRINCIPAL AXIS REPRESENTATION

                        ==== Principal components:

                              13.946    13.946    14.416
 
                        ==== Principal Axis System:

                               0.623     0.782     0.001
                               0.782    -0.623    -0.001
                               0.000    -0.001     1.000
                        -----------------------------------
 
================================================================================
 
 
=== UNSCALED: TOTAL NMR SHIELDING TENSOR (ppm)
 
                        ***********************************
                        CARTESIAN AXIS REPRESENTATION

                        ==== total shielding tensor
                        -----------------------------------
                             256.035    -0.030     0.016
                              -0.030   256.031    -0.021
                               0.016    -0.021   441.283
                        -----------------------------------
                                  isotropic =    317.783

                        ***********************************
                        -----------------------------------
                        PRINCIPAL AXIS REPRESENTATION

                        ==== Principal components:

                             256.003   256.063   441.283
 
                        ==== Principal Axis System:

                               0.680     0.733     0.000
                               0.733    -0.680    -0.000
                               0.000    -0.000     1.000
                        -----------------------------------
 *******************************************************************************

                             N M R   E X I T
 NORMAL TERMINATION



 =================
 Timing Statistics
 =================
  
 Total Used :                     CPU=       28.59      System=        0.05     Elapsed=       28.76

 Calls  Section                     ( Mean, Percentage )
 ---------------------------------------------------------------------------------------------------
     3  ><      ................      0.00    0.04             0.00    4.22             0.00    0.05
     1  INIT    ................      0.41    1.42             0.00    0.54             0.42    1.46
     1  RDEIGZ  ................      0.10    0.34             0.03   50.98             0.13    0.44
     1  ZAOF1K  ................      3.91   13.68             0.00    1.28             3.96   13.78
     1  ZAOSO1  ................      4.74   16.58             0.00    6.29             4.78   16.64
     1  U1EJEI  ................      0.06    0.21             0.00    0.00             0.06    0.21
     1  ZU1     ................      0.00    0.00             0.00    0.00             0.00    0.00
     1  ZSIGP   ................      1.93    6.74             0.00    0.00             1.93    6.71
     1  ZAODKK  ................      3.42   11.98             0.00    7.10             3.43   11.92
     1  ZSIGD   ................      0.01    0.03             0.00    0.01             0.01    0.03
     1  ZSOAO   ................      1.64    5.74             0.00    7.34             1.65    5.72
     1  ZSIGS   ................     12.36   43.23             0.01   22.07            12.38   43.03
     1  EXIT PROCEDURE .........      0.00    0.00             0.00    0.17             0.00    0.01


 Currently Open Files (EXIT00)
 ====================

 Unit    Access Format  Status   Type       Ident (file)
 -------------------------------------------------------
   3      SEQ    FORM   TRANSP  NORMAL      LOGFILE
                                          ( /home/milias/work/projects/open-collection/theoretical_chemistry/projects/nmr_diplomovky/reference_compounds/phosphoric_acid/ams/pbe0_tz2p_good/cosmo-chcl3/sozora/nmr_opbe_tz2p-j_good-cosmo-chcl3/phosphoric_acid.sozora_nmrshield_opbe_tz2p-j_good_cosmo-chc )
