
     Program PWSCF v.7.1 starts on  9Jul2022 at 21:56:47 
        Git branch: develop
        Last git commit: d50f574154e75c88044778d91e67d6e00f487b1e
        Last git commit date: Mon Jun 20 17:16:00 2022 +0000
        Last git commit subject: Merge branch 'small-doc-fixes' into 'develop'

     This program is part of the open-source Quantum ESPRESSO suite
     for quantum simulation of materials; please cite
         "P. Giannozzi et al., J. Phys.:Condens. Matter 21 395502 (2009);
         "P. Giannozzi et al., J. Phys.:Condens. Matter 29 465901 (2017);
         "P. Giannozzi et al., J. Chem. Phys. 152 154105 (2020);
          URL http://www.quantum-espresso.org", 
     in publications or presentations arising from this work. More details at
     http://www.quantum-espresso.org/quote

     Parallel version (MPI & OpenMP), running on      24 processor cores
     Number of MPI processes:                24
     Threads/MPI process:                     1

     MPI processes distributed on     1 nodes
     116682 MiB available memory on the printing compute node when the environment starts
 
     Waiting for input...
     Reading input from standard input

     Current dimensions of program PWSCF are:
     Max number of different atomic species (ntypx) = 10
     Max number of k-points (npk) =  40000
     Max angular momentum in pseudopotentials (lmaxx) =  4
     Found identity + (  0.0000  0.2500  0.0000) symmetry
     This is a supercell, fractional translations are disabled
 
     R & G space division:  proc/nbgrp/npool/nimage =      24
     Subspace diagonalization in iterative solution of the eigenvalue problem:
     a serial algorithm will be used

 
     Parallelization info
     --------------------
     sticks:   dense  smooth     PW     G-vecs:    dense   smooth      PW
     Min        1598     998    258               343922   169926   22290
     Max        1599     999    259               343927   169933   22293
     Sum       38363   23973   6193              8254189  4078335  535005
 
     Using Slab Decomposition
 


     bravais-lattice index     =            0
     lattice parameter (alat)  =      36.9962  a.u.
     unit-cell volume          =   85384.5549 (a.u.)^3
     number of atoms/cell      =          320
     number of atomic types    =            3
     number of electrons       =      1568.00
     number of Kohn-Sham states=          941
     kinetic-energy cutoff     =      50.0000  Ry
     charge density cutoff     =     320.0000  Ry
     scf convergence threshold =      5.0E-08
     mixing beta               =       0.4000
     number of iterations used =            8  plain     mixing
     Exchange-correlation= PBE
                           (   1   4   3   4   0   0   0)

     GPU acceleration is ACTIVE.

     Message from routine print_cuda_info:
     High GPU oversubscription detected. Are you sure this is what you want?

     celldm(1)=  36.996202  celldm(2)=   0.000000  celldm(3)=   0.000000
     celldm(4)=   0.000000  celldm(5)=   0.000000  celldm(6)=   0.000000

     crystal axes: (cart. coord. in units of alat)
               a(1) = (   1.000000   0.000000   0.000000 )  
               a(2) = (   0.000127   1.100386   0.000000 )  
               a(3) = (   0.000000   0.000000   1.532368 )  

     reciprocal axes: (cart. coord. in units 2 pi/alat)
               b(1) = (  1.000000 -0.000116  0.000000 )  
               b(2) = (  0.000000  0.908772  0.000000 )  
               b(3) = (  0.000000  0.000000  0.652585 )  


     PseudoPot. # 1 for H  read from file:
     ./H.pbe-rrkjus_psl.1.0.0.UPF
     MD5 check sum: 3f4114867bd07edc7f1424d066fc1888
     Pseudo is Ultrasoft, Zval =  1.0
     Generated using &quot;atomic&quot; code by A. Dal Corso  v.6.3MaX
     Using radial grid of  929 points,  2 beta functions with: 
                l(1) =   0
                l(2) =   0
     Q(r) pseudized with 0 coefficients 


     PseudoPot. # 2 for O  read from file:
     ./O.pbe-n-rrkjus_psl.1.0.0.UPF
     MD5 check sum: 91400c9766925bcf19f520983a725ff0
     Pseudo is Ultrasoft + core correction, Zval =  6.0
     Generated using &quot;atomic&quot; code by A. Dal Corso  v.6.3MaX
     Using radial grid of 1095 points,  4 beta functions with: 
                l(1) =   0
                l(2) =   0
                l(3) =   1
                l(4) =   1
     Q(r) pseudized with 0 coefficients 


     PseudoPot. # 3 for Si read from file:
     ./Si.pbe-nl-rrkjus_psl.1.0.0.UPF
     MD5 check sum: 78279d3766ecb5dbdc0623f3e93c9a23
     Pseudo is Ultrasoft + core correction, Zval =  4.0
     Generated using &quot;atomic&quot; code by A. Dal Corso  v.6.3
     Using radial grid of 1141 points,  4 beta functions with: 
                l(1) =   0
                l(2) =   0
                l(3) =   1
                l(4) =   1
     Q(r) pseudized with 0 coefficients 


     atomic species   valence    mass     pseudopotential
        H              1.00     1.00782     H ( 1.00)
        O              6.00    15.99491     O ( 1.00)
        Si             4.00    27.97693     Si( 1.00)

     No symmetry found



   Cartesian axes

     site n.     atom                  positions (alat units)
         1           H   tau(   1) = (   0.3249992  -0.4351184   0.0170930  )
         2           H   tau(   2) = (   0.3250310  -0.1600220   0.0170930  )
         3           H   tau(   3) = (   0.3250628   0.1150744   0.0170930  )
         4           H   tau(   4) = (   0.3250946   0.3901708   0.0170930  )
         5           H   tau(   5) = (  -0.3160853  -0.4554871  -0.0093500  )
         6           H   tau(   6) = (  -0.3160535  -0.1803907  -0.0093500  )
         7           H   tau(   7) = (  -0.3160216   0.0947057  -0.0093500  )
         8           H   tau(   8) = (  -0.3159898   0.3698021  -0.0093500  )
         9           H   tau(   9) = (  -0.0660853  -0.4554871  -0.0093500  )
        10           H   tau(  10) = (  -0.0660535  -0.1803907  -0.0093500  )
        11           H   tau(  11) = (  -0.0660216   0.0947057  -0.0093500  )
        12           H   tau(  12) = (  -0.0659898   0.3698021  -0.0093500  )
        13           H   tau(  13) = (   0.1839147  -0.4554871  -0.0093500  )
        14           H   tau(  14) = (   0.1839465  -0.1803907  -0.0093500  )
        15           H   tau(  15) = (   0.1839784   0.0947057  -0.0093500  )
        16           H   tau(  16) = (   0.1840102   0.3698021  -0.0093500  )
        17           H   tau(  17) = (   0.4339147  -0.4554871  -0.0093500  )
        18           H   tau(  18) = (   0.4339465  -0.1803907  -0.0093500  )
        19           H   tau(  19) = (   0.4339784   0.0947057  -0.0093500  )
        20           H   tau(  20) = (   0.4340102   0.3698021  -0.0093500  )
        21           O   tau(  21) = (  -0.3692535  -0.2971362  -0.0851158  )
        22           O   tau(  22) = (  -0.3692217  -0.0220398  -0.0851158  )
        23           O   tau(  23) = (  -0.3691898   0.2530566  -0.0851158  )
        24           O   tau(  24) = (  -0.3691580   0.5281530  -0.0851158  )
        25           O   tau(  25) = (  -0.1192535  -0.2971362  -0.0851158  )
        26           O   tau(  26) = (  -0.1192217  -0.0220398  -0.0851158  )
        27           O   tau(  27) = (  -0.1191898   0.2530566  -0.0851158  )
        28           O   tau(  28) = (  -0.1191580   0.5281530  -0.0851158  )
        29           O   tau(  29) = (   0.1307465  -0.2971362  -0.0851158  )
        30           O   tau(  30) = (   0.1307783  -0.0220398  -0.0851158  )
        31           O   tau(  31) = (   0.1308102   0.2530566  -0.0851158  )
        32           O   tau(  32) = (   0.1308420   0.5281530  -0.0851158  )
        33           O   tau(  33) = (   0.3807465  -0.2971362  -0.0851158  )
        34           O   tau(  34) = (   0.3807783  -0.0220398  -0.0851158  )
        35           O   tau(  35) = (   0.3808102   0.2530566  -0.0851158  )
        36           O   tau(  36) = (   0.3808420   0.5281530  -0.0851158  )
        37           O   tau(  37) = (  -0.2792050  -0.4896681  -0.0153219  )
        38           O   tau(  38) = (  -0.2791732  -0.2145717  -0.0153219  )
        39           O   tau(  39) = (  -0.2791414   0.0605247  -0.0153219  )
        40           O   tau(  40) = (  -0.2791095   0.3356211  -0.0153219  )
        41           O   tau(  41) = (  -0.0292050  -0.4896681  -0.0153219  )
        42           O   tau(  42) = (  -0.0291732  -0.2145717  -0.0153219  )
        43           O   tau(  43) = (  -0.0291414   0.0605247  -0.0153219  )
        44           O   tau(  44) = (  -0.0291095   0.3356211  -0.0153219  )
        45           O   tau(  45) = (   0.2207950  -0.4896681  -0.0153219  )
        46           O   tau(  46) = (   0.2208268  -0.2145717  -0.0153219  )
        47           O   tau(  47) = (   0.2208586   0.0605247  -0.0153219  )
        48           O   tau(  48) = (   0.2208905   0.3356211  -0.0153219  )
        49           O   tau(  49) = (   0.4707950  -0.4896681  -0.0153219  )
        50           O   tau(  50) = (   0.4708268  -0.2145717  -0.0153219  )
        51           O   tau(  51) = (   0.4708586   0.0605247  -0.0153219  )
        52           O   tau(  52) = (   0.4708905   0.3356211  -0.0153219  )
        53           O   tau(  53) = (  -0.3899888  -0.4024062   0.0024556  )
        54           O   tau(  54) = (  -0.3899570  -0.1273098   0.0024556  )
        55           O   tau(  55) = (  -0.3899252   0.1477866   0.0024556  )
        56           O   tau(  56) = (  -0.3898934   0.4228830   0.0024556  )
        57           O   tau(  57) = (  -0.1399888  -0.4024062   0.0024556  )
        58           O   tau(  58) = (  -0.1399570  -0.1273098   0.0024556  )
        59           O   tau(  59) = (  -0.1399252   0.1477866   0.0024556  )
        60           O   tau(  60) = (  -0.1398934   0.4228830   0.0024556  )
        61           O   tau(  61) = (   0.1100112  -0.4024062   0.0024556  )
        62           O   tau(  62) = (   0.1100430  -0.1273098   0.0024556  )
        63           O   tau(  63) = (   0.1100748   0.1477866   0.0024556  )
        64           O   tau(  64) = (   0.1101066   0.4228830   0.0024556  )
        65           O   tau(  65) = (   0.3600112  -0.4024062   0.0024556  )
        66           O   tau(  66) = (   0.3600430  -0.1273098   0.0024556  )
        67           O   tau(  67) = (   0.3600748   0.1477866   0.0024556  )
        68           O   tau(  68) = (   0.3601066   0.4228830   0.0024556  )
        69           O   tau(  69) = (  -0.2659430  -0.5142582  -0.1511115  )
        70           O   tau(  70) = (  -0.2659112  -0.2391618  -0.1511115  )
        71           O   tau(  71) = (  -0.2658793   0.0359346  -0.1511115  )
        72           O   tau(  72) = (  -0.2658475   0.3110310  -0.1511115  )
        73           O   tau(  73) = (  -0.0159430  -0.5142582  -0.1511115  )
        74           O   tau(  74) = (  -0.0159112  -0.2391618  -0.1511115  )
        75           O   tau(  75) = (  -0.0158793   0.0359346  -0.1511115  )
        76           O   tau(  76) = (  -0.0158475   0.3110310  -0.1511115  )
        77           O   tau(  77) = (   0.2340570  -0.5142582  -0.1511115  )
        78           O   tau(  78) = (   0.2340888  -0.2391618  -0.1511115  )
        79           O   tau(  79) = (   0.2341207   0.0359346  -0.1511115  )
        80           O   tau(  80) = (   0.2341525   0.3110310  -0.1511115  )
        81           O   tau(  81) = (   0.4840570  -0.5142582  -0.1511115  )
        82           O   tau(  82) = (   0.4840888  -0.2391618  -0.1511115  )
        83           O   tau(  83) = (   0.4841207   0.0359346  -0.1511115  )
        84           O   tau(  84) = (   0.4841525   0.3110310  -0.1511115  )
        85           O   tau(  85) = (  -0.4951277  -0.3378643  -0.0567149  )
        86           O   tau(  86) = (  -0.4950959  -0.0627679  -0.0567149  )
        87           O   tau(  87) = (  -0.4950641   0.2123285  -0.0567149  )
        88           O   tau(  88) = (  -0.4950323   0.4874249  -0.0567149  )
        89           O   tau(  89) = (  -0.2451277  -0.3378643  -0.0567149  )
        90           O   tau(  90) = (  -0.2450959  -0.0627679  -0.0567149  )
        91           O   tau(  91) = (  -0.2450641   0.2123285  -0.0567149  )
        92           O   tau(  92) = (  -0.2450323   0.4874249  -0.0567149  )
        93           O   tau(  93) = (   0.0048723  -0.3378643  -0.0567149  )
        94           O   tau(  94) = (   0.0049041  -0.0627679  -0.0567149  )
        95           O   tau(  95) = (   0.0049359   0.2123285  -0.0567149  )
        96           O   tau(  96) = (   0.0049677   0.4874249  -0.0567149  )
        97           O   tau(  97) = (   0.2548723  -0.3378643  -0.0567149  )
        98           O   tau(  98) = (   0.2549041  -0.0627679  -0.0567149  )
        99           O   tau(  99) = (   0.2549359   0.2123285  -0.0567149  )
       100           O   tau( 100) = (   0.2549677   0.4874249  -0.0567149  )
       101           O   tau( 101) = (  -0.4140918  -0.4203948  -0.1299437  )
       102           O   tau( 102) = (  -0.4140600  -0.1452984  -0.1299437  )
       103           O   tau( 103) = (  -0.4140281   0.1297980  -0.1299437  )
       104           O   tau( 104) = (  -0.4139963   0.4048944  -0.1299437  )
       105           O   tau( 105) = (  -0.1640918  -0.4203948  -0.1299437  )
       106           O   tau( 106) = (  -0.1640600  -0.1452984  -0.1299437  )
       107           O   tau( 107) = (  -0.1640281   0.1297980  -0.1299437  )
       108           O   tau( 108) = (  -0.1639963   0.4048944  -0.1299437  )
       109           O   tau( 109) = (   0.0859082  -0.4203948  -0.1299437  )
       110           O   tau( 110) = (   0.0859400  -0.1452984  -0.1299437  )
       111           O   tau( 111) = (   0.0859719   0.1297980  -0.1299437  )
       112           O   tau( 112) = (   0.0860037   0.4048944  -0.1299437  )
       113           O   tau( 113) = (   0.3359082  -0.4203948  -0.1299437  )
       114           O   tau( 114) = (   0.3359400  -0.1452984  -0.1299437  )
       115           O   tau( 115) = (   0.3359719   0.1297980  -0.1299437  )
       116           O   tau( 116) = (   0.3360037   0.4048944  -0.1299437  )
       117           Si  tau( 117) = (  -0.2900858  -0.2702603  -0.0771114  )
       118           Si  tau( 118) = (  -0.2900540   0.0048361  -0.0771114  )
       119           Si  tau( 119) = (  -0.2900222   0.2799325  -0.0771114  )
       120           Si  tau( 120) = (  -0.2899903   0.5550289  -0.0771114  )
       121           Si  tau( 121) = (  -0.0400858  -0.2702603  -0.0771114  )
       122           Si  tau( 122) = (  -0.0400540   0.0048361  -0.0771114  )
       123           Si  tau( 123) = (  -0.0400222   0.2799325  -0.0771114  )
       124           Si  tau( 124) = (  -0.0399903   0.5550289  -0.0771114  )
       125           Si  tau( 125) = (   0.2099142  -0.2702603  -0.0771114  )
       126           Si  tau( 126) = (   0.2099460   0.0048361  -0.0771114  )
       127           Si  tau( 127) = (   0.2099778   0.2799325  -0.0771114  )
       128           Si  tau( 128) = (   0.2100097   0.5550289  -0.0771114  )
       129           Si  tau( 129) = (   0.4599142  -0.2702603  -0.0771114  )
       130           Si  tau( 130) = (   0.4599460   0.0048361  -0.0771114  )
       131           Si  tau( 131) = (   0.4599778   0.2799325  -0.0771114  )
       132           Si  tau( 132) = (   0.4600097   0.5550289  -0.0771114  )
       133           Si  tau( 133) = (  -0.4689461  -0.4533160  -0.1838990  )
       134           Si  tau( 134) = (  -0.4689143  -0.1782196  -0.1838990  )
       135           Si  tau( 135) = (  -0.4688824   0.0968768  -0.1838990  )
       136           Si  tau( 136) = (  -0.4688506   0.3719732  -0.1838990  )
       137           Si  tau( 137) = (  -0.2189461  -0.4533160  -0.1838990  )
       138           Si  tau( 138) = (  -0.2189143  -0.1782196  -0.1838990  )
       139           Si  tau( 139) = (  -0.2188824   0.0968768  -0.1838990  )
       140           Si  tau( 140) = (  -0.2188506   0.3719732  -0.1838990  )
       141           Si  tau( 141) = (   0.0310539  -0.4533160  -0.1838990  )
       142           Si  tau( 142) = (   0.0310857  -0.1782196  -0.1838990  )
       143           Si  tau( 143) = (   0.0311176   0.0968768  -0.1838990  )
       144           Si  tau( 144) = (   0.0311494   0.3719732  -0.1838990  )
       145           Si  tau( 145) = (   0.2810539  -0.4533160  -0.1838990  )
       146           Si  tau( 146) = (   0.2810857  -0.1782196  -0.1838990  )
       147           Si  tau( 147) = (   0.2811176   0.0968768  -0.1838990  )
       148           Si  tau( 148) = (   0.2811494   0.3719732  -0.1838990  )
       149           Si  tau( 149) = (  -0.4168099  -0.3637499  -0.0683771  )
       150           Si  tau( 150) = (  -0.4167781  -0.0886535  -0.0683771  )
       151           Si  tau( 151) = (  -0.4167463   0.1864429  -0.0683771  )
       152           Si  tau( 152) = (  -0.4167145   0.4615393  -0.0683771  )
       153           Si  tau( 153) = (  -0.1668099  -0.3637499  -0.0683771  )
       154           Si  tau( 154) = (  -0.1667781  -0.0886535  -0.0683771  )
       155           Si  tau( 155) = (  -0.1667463   0.1864429  -0.0683771  )
       156           Si  tau( 156) = (  -0.1667145   0.4615393  -0.0683771  )
       157           Si  tau( 157) = (   0.0831901  -0.3637499  -0.0683771  )
       158           Si  tau( 158) = (   0.0832219  -0.0886535  -0.0683771  )
       159           Si  tau( 159) = (   0.0832537   0.1864429  -0.0683771  )
       160           Si  tau( 160) = (   0.0832855   0.4615393  -0.0683771  )
       161           Si  tau( 161) = (   0.3331901  -0.3637499  -0.0683771  )
       162           Si  tau( 162) = (   0.3332219  -0.0886535  -0.0683771  )
       163           Si  tau( 163) = (   0.3332537   0.1864429  -0.0683771  )
       164           Si  tau( 164) = (   0.3332855   0.4615393  -0.0683771  )
       165           O   tau( 165) = (  -0.5010751  -0.3018298  -0.3132763  )
       166           O   tau( 166) = (  -0.5010433  -0.0267334  -0.3132763  )
       167           O   tau( 167) = (  -0.5010115   0.2483630  -0.3132763  )
       168           O   tau( 168) = (  -0.5009796   0.5234594  -0.3132763  )
       169           O   tau( 169) = (  -0.2510751  -0.3018298  -0.3132763  )
       170           O   tau( 170) = (  -0.2510433  -0.0267334  -0.3132763  )
       171           O   tau( 171) = (  -0.2510115   0.2483630  -0.3132763  )
       172           O   tau( 172) = (  -0.2509796   0.5234594  -0.3132763  )
       173           O   tau( 173) = (  -0.0010751  -0.3018298  -0.3132763  )
       174           O   tau( 174) = (  -0.0010433  -0.0267334  -0.3132763  )
       175           O   tau( 175) = (  -0.0010115   0.2483630  -0.3132763  )
       176           O   tau( 176) = (  -0.0009796   0.5234594  -0.3132763  )
       177           O   tau( 177) = (   0.2489249  -0.3018298  -0.3132763  )
       178           O   tau( 178) = (   0.2489567  -0.0267334  -0.3132763  )
       179           O   tau( 179) = (   0.2489885   0.2483630  -0.3132763  )
       180           O   tau( 180) = (   0.2490204   0.5234594  -0.3132763  )
       181           O   tau( 181) = (  -0.4236864  -0.4842041  -0.2465866  )
       182           O   tau( 182) = (  -0.4236546  -0.2091077  -0.2465866  )
       183           O   tau( 183) = (  -0.4236228   0.0659887  -0.2465866  )
       184           O   tau( 184) = (  -0.4235910   0.3410851  -0.2465866  )
       185           O   tau( 185) = (  -0.1736864  -0.4842041  -0.2465866  )
       186           O   tau( 186) = (  -0.1736546  -0.2091077  -0.2465866  )
       187           O   tau( 187) = (  -0.1736228   0.0659887  -0.2465866  )
       188           O   tau( 188) = (  -0.1735910   0.3410851  -0.2465866  )
       189           O   tau( 189) = (   0.0763136  -0.4842041  -0.2465866  )
       190           O   tau( 190) = (   0.0763454  -0.2091077  -0.2465866  )
       191           O   tau( 191) = (   0.0763772   0.0659887  -0.2465866  )
       192           O   tau( 192) = (   0.0764090   0.3410851  -0.2465866  )
       193           O   tau( 193) = (   0.3263136  -0.4842041  -0.2465866  )
       194           O   tau( 194) = (   0.3263454  -0.2091077  -0.2465866  )
       195           O   tau( 195) = (   0.3263772   0.0659887  -0.2465866  )
       196           O   tau( 196) = (   0.3264090   0.3410851  -0.2465866  )
       197           O   tau( 197) = (  -0.5196294  -0.3922502  -0.2105782  )
       198           O   tau( 198) = (  -0.5195976  -0.1171538  -0.2105782  )
       199           O   tau( 199) = (  -0.5195658   0.1579426  -0.2105782  )
       200           O   tau( 200) = (  -0.5195339   0.4330390  -0.2105782  )
       201           O   tau( 201) = (  -0.2696294  -0.3922502  -0.2105782  )
       202           O   tau( 202) = (  -0.2695976  -0.1171538  -0.2105782  )
       203           O   tau( 203) = (  -0.2695658   0.1579426  -0.2105782  )
       204           O   tau( 204) = (  -0.2695339   0.4330390  -0.2105782  )
       205           O   tau( 205) = (  -0.0196294  -0.3922502  -0.2105782  )
       206           O   tau( 206) = (  -0.0195976  -0.1171538  -0.2105782  )
       207           O   tau( 207) = (  -0.0195658   0.1579426  -0.2105782  )
       208           O   tau( 208) = (  -0.0195339   0.4330390  -0.2105782  )
       209           O   tau( 209) = (   0.2303706  -0.3922502  -0.2105782  )
       210           O   tau( 210) = (   0.2304024  -0.1171538  -0.2105782  )
       211           O   tau( 211) = (   0.2304342   0.1579426  -0.2105782  )
       212           O   tau( 212) = (   0.2304661   0.4330390  -0.2105782  )
       213           O   tau( 213) = (  -0.3926101  -0.5213240  -0.3738140  )
       214           O   tau( 214) = (  -0.3925783  -0.2462276  -0.3738140  )
       215           O   tau( 215) = (  -0.3925465   0.0288688  -0.3738140  )
       216           O   tau( 216) = (  -0.3925146   0.3039652  -0.3738140  )
       217           O   tau( 217) = (  -0.1426101  -0.5213240  -0.3738140  )
       218           O   tau( 218) = (  -0.1425783  -0.2462276  -0.3738140  )
       219           O   tau( 219) = (  -0.1425465   0.0288688  -0.3738140  )
       220           O   tau( 220) = (  -0.1425146   0.3039652  -0.3738140  )
       221           O   tau( 221) = (   0.1073899  -0.5213240  -0.3738140  )
       222           O   tau( 222) = (   0.1074217  -0.2462276  -0.3738140  )
       223           O   tau( 223) = (   0.1074535   0.0288688  -0.3738140  )
       224           O   tau( 224) = (   0.1074854   0.3039652  -0.3738140  )
       225           O   tau( 225) = (   0.3573899  -0.5213240  -0.3738140  )
       226           O   tau( 226) = (   0.3574217  -0.2462276  -0.3738140  )
       227           O   tau( 227) = (   0.3574535   0.0288688  -0.3738140  )
       228           O   tau( 228) = (   0.3574854   0.3039652  -0.3738140  )
       229           O   tau( 229) = (  -0.3759093  -0.3342933  -0.2690655  )
       230           O   tau( 230) = (  -0.3758775  -0.0591969  -0.2690655  )
       231           O   tau( 231) = (  -0.3758457   0.2158995  -0.2690655  )
       232           O   tau( 232) = (  -0.3758139   0.4909959  -0.2690655  )
       233           O   tau( 233) = (  -0.1259093  -0.3342933  -0.2690655  )
       234           O   tau( 234) = (  -0.1258775  -0.0591969  -0.2690655  )
       235           O   tau( 235) = (  -0.1258457   0.2158995  -0.2690655  )
       236           O   tau( 236) = (  -0.1258139   0.4909959  -0.2690655  )
       237           O   tau( 237) = (   0.1240907  -0.3342933  -0.2690655  )
       238           O   tau( 238) = (   0.1241225  -0.0591969  -0.2690655  )
       239           O   tau( 239) = (   0.1241543   0.2158995  -0.2690655  )
       240           O   tau( 240) = (   0.1241861   0.4909959  -0.2690655  )
       241           O   tau( 241) = (   0.3740907  -0.3342933  -0.2690655  )
       242           O   tau( 242) = (   0.3741225  -0.0591969  -0.2690655  )
       243           O   tau( 243) = (   0.3741543   0.2158995  -0.2690655  )
       244           O   tau( 244) = (   0.3741861   0.4909959  -0.2690655  )
       245           O   tau( 245) = (  -0.3017950  -0.4255865  -0.3400048  )
       246           O   tau( 246) = (  -0.3017632  -0.1504901  -0.3400048  )
       247           O   tau( 247) = (  -0.3017314   0.1246063  -0.3400048  )
       248           O   tau( 248) = (  -0.3016996   0.3997027  -0.3400048  )
       249           O   tau( 249) = (  -0.0517950  -0.4255865  -0.3400048  )
       250           O   tau( 250) = (  -0.0517632  -0.1504901  -0.3400048  )
       251           O   tau( 251) = (  -0.0517314   0.1246063  -0.3400048  )
       252           O   tau( 252) = (  -0.0516996   0.3997027  -0.3400048  )
       253           O   tau( 253) = (   0.1982050  -0.4255865  -0.3400048  )
       254           O   tau( 254) = (   0.1982368  -0.1504901  -0.3400048  )
       255           O   tau( 255) = (   0.1982686   0.1246063  -0.3400048  )
       256           O   tau( 256) = (   0.1983004   0.3997027  -0.3400048  )
       257           O   tau( 257) = (   0.4482050  -0.4255865  -0.3400048  )
       258           O   tau( 258) = (   0.4482368  -0.1504901  -0.3400048  )
       259           O   tau( 259) = (   0.4482686   0.1246063  -0.3400048  )
       260           O   tau( 260) = (   0.4483004   0.3997027  -0.3400048  )
       261           Si  tau( 261) = (  -0.4232519  -0.2728170  -0.3003881  )
       262           Si  tau( 262) = (  -0.4232201   0.0022794  -0.3003881  )
       263           Si  tau( 263) = (  -0.4231883   0.2773758  -0.3003881  )
       264           Si  tau( 264) = (  -0.4231565   0.5524722  -0.3003881  )
       265           Si  tau( 265) = (  -0.1732519  -0.2728170  -0.3003881  )
       266           Si  tau( 266) = (  -0.1732201   0.0022794  -0.3003881  )
       267           Si  tau( 267) = (  -0.1731883   0.2773758  -0.3003881  )
       268           Si  tau( 268) = (  -0.1731565   0.5524722  -0.3003881  )
       269           Si  tau( 269) = (   0.0767481  -0.2728170  -0.3003881  )
       270           Si  tau( 270) = (   0.0767799   0.0022794  -0.3003881  )
       271           Si  tau( 271) = (   0.0768117   0.2773758  -0.3003881  )
       272           Si  tau( 272) = (   0.0768435   0.5524722  -0.3003881  )
       273           Si  tau( 273) = (   0.3267481  -0.2728170  -0.3003881  )
       274           Si  tau( 274) = (   0.3267799   0.0022794  -0.3003881  )
       275           Si  tau( 275) = (   0.3268117   0.2773758  -0.3003881  )
       276           Si  tau( 276) = (   0.3268435   0.5524722  -0.3003881  )
       277           Si  tau( 277) = (  -0.3265256  -0.4754157  -0.4053050  )
       278           Si  tau( 278) = (  -0.3264938  -0.2003193  -0.4053050  )
       279           Si  tau( 279) = (  -0.3264619   0.0747771  -0.4053050  )
       280           Si  tau( 280) = (  -0.3264301   0.3498735  -0.4053050  )
       281           Si  tau( 281) = (  -0.0765256  -0.4754157  -0.4053050  )
       282           Si  tau( 282) = (  -0.0764938  -0.2003193  -0.4053050  )
       283           Si  tau( 283) = (  -0.0764619   0.0747771  -0.4053050  )
       284           Si  tau( 284) = (  -0.0764301   0.3498735  -0.4053050  )
       285           Si  tau( 285) = (   0.1734744  -0.4754157  -0.4053050  )
       286           Si  tau( 286) = (   0.1735062  -0.2003193  -0.4053050  )
       287           Si  tau( 287) = (   0.1735381   0.0747771  -0.4053050  )
       288           Si  tau( 288) = (   0.1735699   0.3498735  -0.4053050  )
       289           Si  tau( 289) = (   0.4234744  -0.4754157  -0.4053050  )
       290           Si  tau( 290) = (   0.4235062  -0.2003193  -0.4053050  )
       291           Si  tau( 291) = (   0.4235381   0.0747771  -0.4053050  )
       292           Si  tau( 292) = (   0.4235699   0.3498735  -0.4053050  )
       293           Si  tau( 293) = (  -0.2993001  -0.3644233  -0.2833719  )
       294           Si  tau( 294) = (  -0.2992683  -0.0893269  -0.2833719  )
       295           Si  tau( 295) = (  -0.2992365   0.1857695  -0.2833719  )
       296           Si  tau( 296) = (  -0.2992047   0.4608659  -0.2833719  )
       297           Si  tau( 297) = (  -0.0493001  -0.3644233  -0.2833719  )
       298           Si  tau( 298) = (  -0.0492683  -0.0893269  -0.2833719  )
       299           Si  tau( 299) = (  -0.0492365   0.1857695  -0.2833719  )
       300           Si  tau( 300) = (  -0.0492047   0.4608659  -0.2833719  )
       301           Si  tau( 301) = (   0.2006999  -0.3644233  -0.2833719  )
       302           Si  tau( 302) = (   0.2007317  -0.0893269  -0.2833719  )
       303           Si  tau( 303) = (   0.2007635   0.1857695  -0.2833719  )
       304           Si  tau( 304) = (   0.2007953   0.4608659  -0.2833719  )
       305           Si  tau( 305) = (   0.4506999  -0.3644233  -0.2833719  )
       306           Si  tau( 306) = (   0.4507317  -0.0893269  -0.2833719  )
       307           Si  tau( 307) = (   0.4507635   0.1857695  -0.2833719  )
       308           Si  tau( 308) = (   0.4507953   0.4608659  -0.2833719  )
       309           H   tau( 309) = (  -0.4250008  -0.4351184   0.0170930  )
       310           H   tau( 310) = (  -0.4249690  -0.1600220   0.0170930  )
       311           H   tau( 311) = (  -0.4249372   0.1150744   0.0170930  )
       312           H   tau( 312) = (  -0.4249054   0.3901708   0.0170930  )
       313           H   tau( 313) = (  -0.1750008  -0.4351184   0.0170930  )
       314           H   tau( 314) = (  -0.1749690  -0.1600220   0.0170930  )
       315           H   tau( 315) = (  -0.1749372   0.1150744   0.0170930  )
       316           H   tau( 316) = (  -0.1749054   0.3901708   0.0170930  )
       317           H   tau( 317) = (   0.0749992  -0.4351184   0.0170930  )
       318           H   tau( 318) = (   0.0750310  -0.1600220   0.0170930  )
       319           H   tau( 319) = (   0.0750628   0.1150744   0.0170930  )
       320           H   tau( 320) = (   0.0750946   0.3901708   0.0170930  )

     number of k points=     4  Gaussian smearing, width (Ry)=  0.2200
                       cart. coord. in units 2pi/alat
        k(    1) = (   0.0000000   0.0000000   0.0000000), wk =   0.5000000
        k(    2) = (   0.0000000  -0.4543862   0.0000000), wk =   0.5000000
        k(    3) = (  -0.5000000   0.0000578   0.0000000), wk =   0.5000000
        k(    4) = (  -0.5000000  -0.4543283   0.0000000), wk =   0.5000000

     Dense  grid:  8254189 G-vectors     FFT dimensions: ( 216, 240, 324)

     Smooth grid:  4078335 G-vectors     FFT dimensions: ( 180, 192, 256)

     Estimated max dynamical RAM per process >       4.43 GB

     Estimated total dynamical RAM >     106.22 GB

     Check: negative core charge=   -0.000001

     Initial potential from superposition of free atoms

     starting charge    1567.9457, renormalised to    1568.0000

     negative rho (up, down):  3.452E-02 0.000E+00
     Starting wfcs are 1184 randomized atomic wfcs
