 argument  1 = /home/milias/Work/open-collection/theoretical_chemistry/projects/nmr_diplomovky/derivaty_markerov/derivative_2/nwchem/geom_optimiz_nmr/der2.odft_geomopt_nmr_b3lyp_cosmo-chcl3_6-311++g2d_2p.nw
 


============================== echo of input deck ==============================
echo

start molecule

memory total 40 gb

print low

title "der2"
charge 0

# spin-spin coupling only for odft
dft
  odft
  mult 1
end

geometry units angstroms print xyz autosym
#  load format xyz VX.converged_geometry_blyp_tz2p-solvent-chcl3.xyz
#  load format xyz VX.geom.xyz
 # load format xyz der1.pbe0_tz2p_good_cosmo-chcl3_optimized_geom.xyz
  load format xyz der2.geopt_freq_nmr_pbe0_tz2p_good_cosmo-chcl3_converged_geometry.xyz
end

basis
  * library 6-311++G(2d,2p)
end

dft
  direct
  grid fine
  xc b3lyp
  mult 1
# Reduce output during geometry optimization
  noprint "final vectors analysis"
end

property
  giao
  shielding 1  2
  spinspin  3  2 23 2 30 2 31
end

driver
  tight
  maxiter 9999
  xyz der2_geom_6-311++g2d_2p
end

cosmo
  solvent chcl3
end

task dft optimize
task dft property
================================================================================


                                         
                                         
 
 
             Northwest Computational Chemistry Package (NWChem) 7.0.1
             --------------------------------------------------------
 
 
                    Environmental Molecular Sciences Laboratory
                       Pacific Northwest National Laboratory
                                Richland, WA 99352
 
                              Copyright (c) 1994-2020
                       Pacific Northwest National Laboratory
                            Battelle Memorial Institute
 
             NWChem is an open-source computational chemistry package
                        distributed under the terms of the
                      Educational Community License (ECL) 2.0
             A copy of the license is included with this distribution
                              in the LICENSE.TXT file
 
                                  ACKNOWLEDGMENT
                                  --------------

            This software and its documentation were developed at the
            EMSL at Pacific Northwest National Laboratory, a multiprogram
            national laboratory, operated for the U.S. Department of Energy
            by Battelle under Contract Number DE-AC05-76RL01830. Support
            for this work was provided by the Department of Energy Office
            of Biological and Environmental Research, Office of Basic
            Energy Sciences, and the Office of Advanced Scientific Computing.


           Job information
           ---------------

    hostname        = comp12.grid.umb.sk
    program         = /home/milias/Work/qch/software/nwchem_suite/nwchem_master/bin/LINUX64/nwchem
    date            = Sun Sep 12 18:11:25 2021

    compiled        = Sat_Sep_11_13:54:11_2021
    source          = /home/milias/Work/qch/software/nwchem_suite/nwchem_master
    nwchem branch   = 7.0.0
    nwchem revision = nwchem_on_git-2853-g04c637f
    ga revision     = 5.8.0
    use scalapack   = F
    input           = /home/milias/Work/open-collection/theoretical_chemistry/projects/nmr_diplomovky/derivaty_markerov/derivative_2/nwchem/geom_optimiz_nmr/der2.odft_geomopt_nmr_b3lyp_cosmo-chcl3_6-311++g2d_2p.nw
    prefix          = molecule.
    data base       = ./molecule.db
    status          = startup
    nproc           =       12
    time left       =     -1s



           Memory information
           ------------------

    heap     = 1342177280 doubles =  10240.0 Mbytes
    stack    = 1342177277 doubles =  10240.0 Mbytes
    global   = 2684354560 doubles =  20480.0 Mbytes (distinct from heap & stack)
    total    = 5368709117 doubles =  40960.0 Mbytes
    verify   = yes
    hardfail = no 


           Directory information
           ---------------------
 
  0 permanent = .
  0 scratch   = .
 
 
 
 
                                NWChem Input Module
                                -------------------
 
 
                                       der2
                                       ----

 Scaling coordinates for geometry "geometry" by  1.889725989
 (inverse scale =  0.529177249)


          ------
          auto-z
          ------
  no constraints, skipping   0.000000000000000E+000
  no constraints, skipping   0.000000000000000E+000
 
 
                             Geometry "geometry" -> ""
                             -------------------------
 
 Output coordinates in angstroms (scale by  1.889725989 to convert to a.u.)
 
  No.       Tag          Charge          X              Y              Z
 ---- ---------------- ---------- -------------- -------------- --------------
    1 O                    8.0000    -0.04341044    -0.73369813    -0.04085401
    2 P                   15.0000    -0.44611685     0.47703258    -1.05343430
    3 O                    8.0000     0.83720009     1.48585040    -1.04137126
    4 O                    8.0000    -1.28975000     1.37172392     0.02064437
    5 C                    6.0000     0.84108504     2.39610613     0.08887089
    6 C                    6.0000    -0.67674430     2.64706668     0.32804480
    7 C                    6.0000     1.53348750     1.72111364     1.26334319
    8 C                    6.0000     1.61284146     3.63086321    -0.32700096
    9 C                    6.0000    -1.26605170     3.67640246    -0.62378209
   10 C                    6.0000    -1.02568757     2.99451554     1.76012825
   11 H                    1.0000     1.66107846     2.42286749     2.08854573
   12 H                    1.0000     0.98002643     0.85289405     1.61631651
   13 H                    1.0000     2.52215176     1.39017053     0.94319721
   14 H                    1.0000     1.23639267     4.04556628    -1.26021739
   15 H                    1.0000     1.54820876     4.39619674     0.44881612
   16 H                    1.0000     2.66469413     3.37618356    -0.46141862
   17 H                    1.0000    -0.92294367     4.68206117    -0.37963408
   18 H                    1.0000    -1.00229208     3.45958160    -1.65979489
   19 H                    1.0000    -2.35248448     3.65478089    -0.53418895
   20 H                    1.0000    -0.51750808     3.91290247     2.06034667
   21 H                    1.0000    -2.10007263     3.16035386     1.84572717
   22 H                    1.0000    -0.74337543     2.19790863     2.44577211
   23 C                    6.0000     0.27747309    -2.00999264    -0.58709657
   24 C                    6.0000    -0.38988564    -3.07281736     0.26282843
   25 N                    7.0000    -0.04881684    -4.41716103    -0.16101358
   26 C                    6.0000     1.29387398    -4.79179613     0.23888988
   27 H                    1.0000    -2.00978854    -5.12664754     0.00115322
   28 H                    1.0000     1.51908242    -5.79393874    -0.12845467
   29 C                    6.0000    -1.00692680    -5.37744254     0.34913174
   30 H                    1.0000    -0.07040759    -2.08538831    -1.62252377
   31 H                    1.0000     1.36372261    -2.12034771    -0.58801192
   32 H                    1.0000    -1.47086993    -2.94513519     0.17386901
   33 H                    1.0000    -0.13145960    -2.89978976     1.32199975
   34 H                    1.0000    -1.02302957    -5.41235605     1.45178254
   35 H                    1.0000     1.41486849    -4.79273521     1.33573382
   36 H                    1.0000     2.03168980    -4.11023581    -0.18315365
   37 H                    1.0000    -0.75732086    -6.37537787    -0.01475063
 
      Atomic Mass 
      ----------- 
 
      O                 15.994910
      P                 30.973760
      C                 12.000000
      H                  1.007825
      N                 14.003070
 

 Effective nuclear repulsion energy (a.u.)    1268.2890542614

            Nuclear Dipole moment (a.u.) 
            ----------------------------
        X                 Y               Z
 ---------------- ---------------- ----------------
     0.0000000000    -0.0000000000    -0.0000000000
 


                                Z-matrix (autoz)
                                -------- 

 Units are Angstrom for bonds and degrees for angles
 
      Type          Name      I     J     K     L     M      Value
      ----------- --------  ----- ----- ----- ----- ----- ----------
    1 Stretch                  1     2                       1.62891
    2 Stretch                  1    23                       1.42488
    3 Stretch                  2     3                       1.63241
    4 Stretch                  2     4                       1.63274
    5 Stretch                  3     5                       1.45122
    6 Stretch                  4     6                       1.44802
    7 Stretch                  5     6                       1.55692
    8 Stretch                  5     7                       1.52132
    9 Stretch                  5     8                       1.51433
   10 Stretch                  6     9                       1.52079
   11 Stretch                  6    10                       1.51438
   12 Stretch                  7    11                       1.09073
   13 Stretch                  7    12                       1.08845
   14 Stretch                  7    13                       1.09063
   15 Stretch                  8    14                       1.08839
   16 Stretch                  8    15                       1.09170
   17 Stretch                  8    16                       1.09056
   18 Stretch                  9    17                       1.09027
   19 Stretch                  9    18                       1.09083
   20 Stretch                  9    19                       1.09034
   21 Stretch                 10    20                       1.09170
   22 Stretch                 10    21                       1.09047
   23 Stretch                 10    22                       1.08830
   24 Stretch                 23    24                       1.51570
   25 Stretch                 23    30                       1.09490
   26 Stretch                 23    31                       1.09184
   27 Stretch                 24    25                       1.45025
   28 Stretch                 24    32                       1.09213
   29 Stretch                 24    33                       1.10389
   30 Stretch                 25    26                       1.45020
   31 Stretch                 25    29                       1.44926
   32 Stretch                 26    28                       1.09085
   33 Stretch                 26    35                       1.10350
   34 Stretch                 26    36                       1.08950
   35 Stretch                 27    29                       1.09074
   36 Stretch                 29    34                       1.10332
   37 Stretch                 29    37                       1.09114
   38 Bend                     1     2     3               105.09322
   39 Bend                     1     2     4                97.24432
   40 Bend                     1    23    24               108.29843
   41 Bend                     1    23    30               110.65034
   42 Bend                     1    23    31               108.35489
   43 Bend                     2     1    23               118.89033
   44 Bend                     2     3     5               113.29639
   45 Bend                     2     4     6               113.79946
   46 Bend                     3     2     4                93.59475
   47 Bend                     3     5     6               102.59969
   48 Bend                     3     5     7               108.91586
   49 Bend                     3     5     8               107.39265
   50 Bend                     4     6     5               103.77626
   51 Bend                     4     6     9               107.41057
   52 Bend                     4     6    10               107.77501
   53 Bend                     5     6     9               112.99973
   54 Bend                     5     6    10               114.00959
   55 Bend                     5     7    11               110.60048
   56 Bend                     5     7    12               111.89103
   57 Bend                     5     7    13               108.69906
   58 Bend                     5     8    14               111.70835
   59 Bend                     5     8    15               110.26048
   60 Bend                     5     8    16               109.57130
   61 Bend                     6     5     7               113.36754
   62 Bend                     6     5     8               114.05402
   63 Bend                     6     9    17               111.23640
   64 Bend                     6     9    18               111.48121
   65 Bend                     6     9    19               108.73941
   66 Bend                     6    10    20               110.23103
   67 Bend                     6    10    21               109.64210
   68 Bend                     6    10    22               111.59641
   69 Bend                     7     5     8               109.98882
   70 Bend                     9     6    10               110.32149
   71 Bend                    11     7    12               109.10738
   72 Bend                    11     7    13               108.13573
   73 Bend                    12     7    13               108.30615
   74 Bend                    14     8    15               108.76819
   75 Bend                    14     8    16               108.47551
   76 Bend                    15     8    16               107.96347
   77 Bend                    17     9    18               108.65870
   78 Bend                    17     9    19               108.26819
   79 Bend                    18     9    19               108.36275
   80 Bend                    20    10    21               108.00518
   81 Bend                    20    10    22               108.76958
   82 Bend                    21    10    22               108.50842
   83 Bend                    23    24    25               112.49323
   84 Bend                    23    24    32               107.94779
   85 Bend                    23    24    33               108.96844
   86 Bend                    24    23    30               110.00532
   87 Bend                    24    23    31               111.57016
   88 Bend                    24    25    26               112.12447
   89 Bend                    24    25    29               110.84618
   90 Bend                    25    24    32               108.50258
   91 Bend                    25    24    33               111.75610
   92 Bend                    25    26    28               109.60969
   93 Bend                    25    26    35               112.07570
   94 Bend                    25    26    36               111.01255
   95 Bend                    25    29    27               110.07108
   96 Bend                    25    29    34               112.48276
   97 Bend                    25    29    37               109.71733
   98 Bend                    26    25    29               110.11168
   99 Bend                    27    29    34               108.22156
  100 Bend                    27    29    37               108.31394
  101 Bend                    28    26    35               108.13772
  102 Bend                    28    26    36               107.72453
  103 Bend                    30    23    31               107.95965
  104 Bend                    32    24    33               106.95061
  105 Bend                    34    29    37               107.91966
  106 Bend                    35    26    36               108.13856
  107 Torsion                  1     2     3     5         -82.12025
  108 Torsion                  1     2     4     6         113.85827
  109 Torsion                  1    23    24    25        -176.12111
  110 Torsion                  1    23    24    32          64.19786
  111 Torsion                  1    23    24    33         -51.61224
  112 Torsion                  2     1    23    24        -137.12910
  113 Torsion                  2     1    23    30         -16.48541
  114 Torsion                  2     1    23    31         101.69329
  115 Torsion                  2     3     5     6         -32.97790
  116 Torsion                  2     3     5     7          87.43406
  117 Torsion                  2     3     5     8        -153.48746
  118 Torsion                  2     4     6     5         -27.36425
  119 Torsion                  2     4     6     9          92.53668
  120 Torsion                  2     4     6    10        -148.59896
  121 Torsion                  3     2     1    23        -107.45302
  122 Torsion                  3     2     4     6           8.13516
  123 Torsion                  3     5     6     4          35.58340
  124 Torsion                  3     5     6     9         -80.44125
  125 Torsion                  3     5     6    10         152.53942
  126 Torsion                  3     5     7    11         173.06517
  127 Torsion                  3     5     7    12         -65.07036
  128 Torsion                  3     5     7    13          54.49165
  129 Torsion                  3     5     8    14          52.45457
  130 Torsion                  3     5     8    15         173.52527
  131 Torsion                  3     5     8    16         -67.78010
  132 Torsion                  4     2     1    23         156.82256
  133 Torsion                  4     2     3     5          16.37957
  134 Torsion                  4     6     5     7         -81.70273
  135 Torsion                  4     6     5     8         151.38095
  136 Torsion                  4     6     9    17         174.16519
  137 Torsion                  4     6     9    18         -64.38251
  138 Torsion                  4     6     9    19          55.02412
  139 Torsion                  4     6    10    20         175.53112
  140 Torsion                  4     6    10    21         -65.69739
  141 Torsion                  4     6    10    22          54.55373
  142 Torsion                  5     6     9    17         -71.99233
  143 Torsion                  5     6     9    18          49.45996
  144 Torsion                  5     6     9    19         168.86660
  145 Torsion                  5     6    10    20          60.91401
  146 Torsion                  5     6    10    21         179.68551
  147 Torsion                  5     6    10    22         -60.06338
  148 Torsion                  6     5     7    11         -73.40309
  149 Torsion                  6     5     7    12          48.46137
  150 Torsion                  6     5     7    13         168.02338
  151 Torsion                  6     5     8    14         -60.50894
  152 Torsion                  6     5     8    15          60.56176
  153 Torsion                  6     5     8    16         179.25638
  154 Torsion                  7     5     6     9         162.27262
  155 Torsion                  7     5     6    10          35.25328
  156 Torsion                  7     5     8    14         170.84182
  157 Torsion                  7     5     8    15         -68.08748
  158 Torsion                  7     5     8    16          50.60714
  159 Torsion                  8     5     6     9          35.35630
  160 Torsion                  8     5     6    10         -91.66304
  161 Torsion                  8     5     7    11          55.62065
  162 Torsion                  8     5     7    12         177.48511
  163 Torsion                  8     5     7    13         -62.95288
  164 Torsion                  9     6    10    20         -67.48137
  165 Torsion                  9     6    10    21          51.29013
  166 Torsion                  9     6    10    22         171.54124
  167 Torsion                 10     6     9    17          56.95186
  168 Torsion                 10     6     9    18         178.40416
  169 Torsion                 10     6     9    19         -62.18921
  170 Torsion                 23    24    25    26          75.38476
  171 Torsion                 23    24    25    29        -161.11140
  172 Torsion                 24    25    26    28        -178.11163
  173 Torsion                 24    25    26    35          61.81523
  174 Torsion                 24    25    26    36         -59.22630
  175 Torsion                 24    25    29    27          58.52919
  176 Torsion                 24    25    29    34         -62.23527
  177 Torsion                 24    25    29    37         177.62853
  178 Torsion                 25    24    23    30          62.83505
  179 Torsion                 25    24    23    31         -56.95262
  180 Torsion                 26    25    24    32        -165.25683
  181 Torsion                 26    25    24    33         -47.57453
  182 Torsion                 26    25    29    27        -176.81775
  183 Torsion                 26    25    29    34          62.41779
  184 Torsion                 26    25    29    37         -57.71840
  185 Torsion                 28    26    25    29          57.97336
  186 Torsion                 29    25    24    32         -41.75299
  187 Torsion                 29    25    24    33          75.92931
  188 Torsion                 29    25    26    35         -62.09978
  189 Torsion                 29    25    26    36         176.85868
  190 Torsion                 30    23    24    32         -56.84598
  191 Torsion                 30    23    24    33        -172.65608
  192 Torsion                 31    23    24    32        -176.63365
  193 Torsion                 31    23    24    33          67.55626
 
 
            XYZ format geometry
            -------------------
    37
 geometry
 O                    -0.04341044    -0.73369813    -0.04085401
 P                    -0.44611685     0.47703258    -1.05343430
 O                     0.83720009     1.48585040    -1.04137126
 O                    -1.28975000     1.37172392     0.02064437
 C                     0.84108504     2.39610613     0.08887089
 C                    -0.67674430     2.64706668     0.32804480
 C                     1.53348750     1.72111364     1.26334319
 C                     1.61284146     3.63086321    -0.32700096
 C                    -1.26605170     3.67640246    -0.62378209
 C                    -1.02568757     2.99451554     1.76012825
 H                     1.66107846     2.42286749     2.08854573
 H                     0.98002643     0.85289405     1.61631651
 H                     2.52215176     1.39017053     0.94319721
 H                     1.23639267     4.04556628    -1.26021739
 H                     1.54820876     4.39619674     0.44881612
 H                     2.66469413     3.37618356    -0.46141862
 H                    -0.92294367     4.68206117    -0.37963408
 H                    -1.00229208     3.45958160    -1.65979489
 H                    -2.35248448     3.65478089    -0.53418895
 H                    -0.51750808     3.91290247     2.06034667
 H                    -2.10007263     3.16035386     1.84572717
 H                    -0.74337543     2.19790863     2.44577211
 C                     0.27747309    -2.00999264    -0.58709657
 C                    -0.38988564    -3.07281736     0.26282843
 N                    -0.04881684    -4.41716103    -0.16101358
 C                     1.29387398    -4.79179613     0.23888988
 H                    -2.00978854    -5.12664754     0.00115322
 H                     1.51908242    -5.79393874    -0.12845467
 C                    -1.00692680    -5.37744254     0.34913174
 H                    -0.07040759    -2.08538831    -1.62252377
 H                     1.36372261    -2.12034771    -0.58801192
 H                    -1.47086993    -2.94513519     0.17386901
 H                    -0.13145960    -2.89978976     1.32199975
 H                    -1.02302957    -5.41235605     1.45178254
 H                     1.41486849    -4.79273521     1.33573382
 H                     2.03168980    -4.11023581    -0.18315365
 H                    -0.75732086    -6.37537787    -0.01475063
 
 ==============================================================================
                                internuclear distances
 ------------------------------------------------------------------------------
       center one      |      center two      | atomic units |  angstroms
 ------------------------------------------------------------------------------
    2 P                |   1 O                |     3.07820  |     1.62891
    3 O                |   2 P                |     3.08481  |     1.63241
    4 O                |   2 P                |     3.08543  |     1.63274
    5 C                |   3 O                |     2.74240  |     1.45122
    6 C                |   4 O                |     2.73637  |     1.44802
    6 C                |   5 C                |     2.94215  |     1.55692
    7 C                |   5 C                |     2.87488  |     1.52132
    8 C                |   5 C                |     2.86166  |     1.51433
    9 C                |   6 C                |     2.87387  |     1.52079
   10 C                |   6 C                |     2.86176  |     1.51438
   11 H                |   7 C                |     2.06119  |     1.09073
   12 H                |   7 C                |     2.05686  |     1.08845
   13 H                |   7 C                |     2.06099  |     1.09063
   14 H                |   8 C                |     2.05675  |     1.08839
   15 H                |   8 C                |     2.06301  |     1.09170
   16 H                |   8 C                |     2.06086  |     1.09056
   17 H                |   9 C                |     2.06030  |     1.09027
   18 H                |   9 C                |     2.06136  |     1.09083
   19 H                |   9 C                |     2.06043  |     1.09034
   20 H                |  10 C                |     2.06302  |     1.09170
   21 H                |  10 C                |     2.06070  |     1.09047
   22 H                |  10 C                |     2.05658  |     1.08830
   23 C                |   1 O                |     2.69263  |     1.42488
   24 C                |  23 C                |     2.86425  |     1.51570
   25 N                |  24 C                |     2.74058  |     1.45025
   26 C                |  25 N                |     2.74049  |     1.45020
   28 H                |  26 C                |     2.06140  |     1.09085
   29 C                |  25 N                |     2.73871  |     1.44926
   29 C                |  27 H                |     2.06120  |     1.09074
   30 H                |  23 C                |     2.06907  |     1.09490
   31 H                |  23 C                |     2.06328  |     1.09184
   32 H                |  24 C                |     2.06382  |     1.09213
   33 H                |  24 C                |     2.08604  |     1.10389
   34 H                |  29 C                |     2.08497  |     1.10332
   35 H                |  26 C                |     2.08531  |     1.10350
   36 H                |  26 C                |     2.05886  |     1.08950
   37 H                |  29 C                |     2.06196  |     1.09114
 ------------------------------------------------------------------------------
                         number of included internuclear distances:         37
 ==============================================================================



 ==============================================================================
                                 internuclear angles
 ------------------------------------------------------------------------------
        center 1       |       center 2       |       center 3       |  degrees
 ------------------------------------------------------------------------------
    2 P                |   1 O                |  23 C                |   118.89
    1 O                |   2 P                |   3 O                |   105.09
    1 O                |   2 P                |   4 O                |    97.24
    3 O                |   2 P                |   4 O                |    93.59
    2 P                |   3 O                |   5 C                |   113.30
    2 P                |   4 O                |   6 C                |   113.80
    3 O                |   5 C                |   6 C                |   102.60
    3 O                |   5 C                |   7 C                |   108.92
    3 O                |   5 C                |   8 C                |   107.39
    6 C                |   5 C                |   7 C                |   113.37
    6 C                |   5 C                |   8 C                |   114.05
    7 C                |   5 C                |   8 C                |   109.99
    4 O                |   6 C                |   5 C                |   103.78
    4 O                |   6 C                |   9 C                |   107.41
    4 O                |   6 C                |  10 C                |   107.78
    5 C                |   6 C                |   9 C                |   113.00
    5 C                |   6 C                |  10 C                |   114.01
    9 C                |   6 C                |  10 C                |   110.32
    5 C                |   7 C                |  11 H                |   110.60
    5 C                |   7 C                |  12 H                |   111.89
    5 C                |   7 C                |  13 H                |   108.70
   11 H                |   7 C                |  12 H                |   109.11
   11 H                |   7 C                |  13 H                |   108.14
   12 H                |   7 C                |  13 H                |   108.31
    5 C                |   8 C                |  14 H                |   111.71
    5 C                |   8 C                |  15 H                |   110.26
    5 C                |   8 C                |  16 H                |   109.57
   14 H                |   8 C                |  15 H                |   108.77
   14 H                |   8 C                |  16 H                |   108.48
   15 H                |   8 C                |  16 H                |   107.96
    6 C                |   9 C                |  17 H                |   111.24
    6 C                |   9 C                |  18 H                |   111.48
    6 C                |   9 C                |  19 H                |   108.74
   17 H                |   9 C                |  18 H                |   108.66
   17 H                |   9 C                |  19 H                |   108.27
   18 H                |   9 C                |  19 H                |   108.36
    6 C                |  10 C                |  20 H                |   110.23
    6 C                |  10 C                |  21 H                |   109.64
    6 C                |  10 C                |  22 H                |   111.60
   20 H                |  10 C                |  21 H                |   108.01
   20 H                |  10 C                |  22 H                |   108.77
   21 H                |  10 C                |  22 H                |   108.51
    1 O                |  23 C                |  24 C                |   108.30
    1 O                |  23 C                |  30 H                |   110.65
    1 O                |  23 C                |  31 H                |   108.35
   24 C                |  23 C                |  30 H                |   110.01
   24 C                |  23 C                |  31 H                |   111.57
   30 H                |  23 C                |  31 H                |   107.96
   23 C                |  24 C                |  25 N                |   112.49
   23 C                |  24 C                |  32 H                |   107.95
   23 C                |  24 C                |  33 H                |   108.97
   25 N                |  24 C                |  32 H                |   108.50
   25 N                |  24 C                |  33 H                |   111.76
   32 H                |  24 C                |  33 H                |   106.95
   24 C                |  25 N                |  26 C                |   112.12
   24 C                |  25 N                |  29 C                |   110.85
   26 C                |  25 N                |  29 C                |   110.11
   25 N                |  26 C                |  28 H                |   109.61
   25 N                |  26 C                |  35 H                |   112.08
   25 N                |  26 C                |  36 H                |   111.01
   28 H                |  26 C                |  35 H                |   108.14
   28 H                |  26 C                |  36 H                |   107.72
   35 H                |  26 C                |  36 H                |   108.14
   25 N                |  29 C                |  27 H                |   110.07
   25 N                |  29 C                |  34 H                |   112.48
   25 N                |  29 C                |  37 H                |   109.72
   27 H                |  29 C                |  34 H                |   108.22
   27 H                |  29 C                |  37 H                |   108.31
   34 H                |  29 C                |  37 H                |   107.92
 ------------------------------------------------------------------------------
                            number of included internuclear angles:         69
 ==============================================================================





 Summary of "ao basis" -> "" (cartesian)
 ------------------------------------------------------------------------------
       Tag                 Description            Shells   Functions and Types
 ---------------- ------------------------------  ------  ---------------------
 *                      6-311++G(2d,2p)               on all atoms 


 
 
                           NWChem Geometry Optimization
                           ----------------------------
 
 
 
 
                                       der2
 
 
  no constraints, skipping   0.000000000000000E+000
 maximum gradient threshold         (gmax) =   0.000015
 rms gradient threshold             (grms) =   0.000010
 maximum cartesian step threshold   (xmax) =   0.000060
 rms cartesian step threshold       (xrms) =   0.000040
 fixed trust radius                (trust) =   0.300000
 maximum step size to saddle      (sadstp) =   0.100000
 energy precision                  (eprec) =   5.0D-06
 maximum number of steps          (nptopt) = 9999
 initial hessian option           (inhess) =    0
 line search option               (linopt) =    1
 hessian update option            (modupd) =    1
 saddle point option              (modsad) =    0
 initial eigen-mode to follow     (moddir) =    0
 initial variable to follow       (vardir) =    0
 follow first negative mode     (firstneg) =    T
 apply conjugacy                    (opcg) =    F
 source of zmatrix                         =   autoz   


          -------------------
          Energy Minimization
          -------------------

 
 Names of Z-matrix variables 
    1              2              3              4              5         
    6              7              8              9             10         
   11             12             13             14             15         
   16             17             18             19             20         
   21             22             23             24             25         
   26             27             28             29             30         
   31             32             33             34             35         
   36             37             38             39             40         
   41             42             43             44             45         
   46             47             48             49             50         
   51             52             53             54             55         
   56             57             58             59             60         
   61             62             63             64             65         
   66             67             68             69             70         
   71             72             73             74             75         
   76             77             78             79             80         
   81             82             83             84             85         
   86             87             88             89             90         
   91             92             93             94             95         
   96             97             98             99            100         
  101            102            103            104            105         
  106            107            108            109            110         
  111            112            113            114            115         
  116            117            118            119            120         
  121            122            123            124            125         
  126            127            128            129            130         
  131            132            133            134            135         
  136            137            138            139            140         
  141            142            143            144            145         
  146            147            148            149            150         
  151            152            153            154            155         
  156            157            158            159            160         
  161            162            163            164            165         
  166            167            168            169            170         
  171            172            173            174            175         
  176            177            178            179            180         
  181            182            183            184            185         
  186            187            188            189            190         
  191            192            193         
 
 Variables with the same non-blank name are constrained to be equal
 
 
 Using diagonal initial Hessian 
 Scaling for Hessian diagonals: bonds = 1.00  angles = 0.25  torsions = 0.10

          --------
          Step   0
          --------
 
                                 NWChem DFT Module
                                 -----------------
 
 
                                       der2
 
 
                      Basis "ao basis" -> "ao basis" (cartesian)
                      -----
  O (Oxygen)
  ----------
            Exponent  Coefficients 
       -------------- ---------------------------------------------------------
  1 S  8.58850000E+03  0.001895
  1 S  1.29723000E+03  0.014386
  1 S  2.99296000E+02  0.070732
  1 S  8.73771000E+01  0.240001
  1 S  2.56789000E+01  0.594797
  1 S  3.74004000E+00  0.280802
 
  2 S  4.21175000E+01  0.113889
  2 S  9.62837000E+00  0.920811
  2 S  2.85332000E+00 -0.003274
 
  3 P  4.21175000E+01  0.036511
  3 P  9.62837000E+00  0.237153
  3 P  2.85332000E+00  0.819702
 
  4 S  9.05661000E-01  1.000000
 
  5 P  9.05661000E-01  1.000000
 
  6 S  2.55611000E-01  1.000000
 
  7 P  2.55611000E-01  1.000000
 
  8 S  8.45000000E-02  1.000000
 
  9 P  8.45000000E-02  1.000000
 
 10 D  2.58400000E+00  1.000000
 
 11 D  6.46000000E-01  1.000000
 
  P (Phosphorous)
  ---------------
            Exponent  Coefficients 
       -------------- ---------------------------------------------------------
  1 S  7.74924000E+04  0.000781
  1 S  1.16058000E+04  0.006068
  1 S  2.64596000E+03  0.031160
  1 S  7.54976000E+02  0.123431
  1 S  2.48755000E+02  0.378209
  1 S  9.11565000E+01  0.563262
 
  2 S  9.11565000E+01  0.160255
  2 S  3.62257000E+01  0.627647
  2 S  1.52113000E+01  0.263849
 
  3 S  4.79417000E+00  1.000000
 
  4 S  1.80793000E+00  1.000000
 
  5 S  3.56816000E-01  1.000000
 
  6 S  1.14783000E-01  1.000000
 
  7 P  3.84843000E+02  0.009206
  7 P  9.05521000E+01  0.069874
  7 P  2.91339000E+01  0.292470
  7 P  1.08862000E+01  0.728103
 
  8 P  4.35259000E+00  0.628349
  8 P  1.77706000E+00  0.428044
 
  9 P  6.97005000E-01  1.000000
 
 10 P  2.53532000E-01  1.000000
 
 11 P  6.84930000E-02  1.000000
 
 12 S  3.48000000E-02  1.000000
 
 13 P  3.48000000E-02  1.000000
 
 14 D  1.10000000E+00  1.000000
 
 15 D  2.75000000E-01  1.000000
 
  C (Carbon)
  ----------
            Exponent  Coefficients 
       -------------- ---------------------------------------------------------
  1 S  4.56324000E+03  0.001967
  1 S  6.82024000E+02  0.015231
  1 S  1.54973000E+02  0.076127
  1 S  4.44553000E+01  0.260801
  1 S  1.30290000E+01  0.616462
  1 S  1.82773000E+00  0.221006
 
  2 S  2.09642000E+01  0.114660
  2 S  4.80331000E+00  0.919999
  2 S  1.45933000E+00 -0.003031
 
  3 P  2.09642000E+01  0.040249
  3 P  4.80331000E+00  0.237594
  3 P  1.45933000E+00  0.815854
 
  4 S  4.83456000E-01  1.000000
 
  5 P  4.83456000E-01  1.000000
 
  6 S  1.45585000E-01  1.000000
 
  7 P  1.45585000E-01  1.000000
 
  8 S  4.38000000E-02  1.000000
 
  9 P  4.38000000E-02  1.000000
 
 10 D  1.25200000E+00  1.000000
 
 11 D  3.13000000E-01  1.000000
 
  H (Hydrogen)
  ------------
            Exponent  Coefficients 
       -------------- ---------------------------------------------------------
  1 S  3.38650000E+01  0.025494
  1 S  5.09479000E+00  0.190373
  1 S  1.15879000E+00  0.852161
 
  2 S  3.25840000E-01  1.000000
 
  3 S  1.02741000E-01  1.000000
 
  4 S  3.60000000E-02  1.000000
 
  5 P  1.50000000E+00  1.000000
 
  6 P  3.75000000E-01  1.000000
 
  N (Nitrogen)
  ------------
            Exponent  Coefficients 
       -------------- ---------------------------------------------------------
  1 S  6.29348000E+03  0.001970
  1 S  9.49044000E+02  0.014961
  1 S  2.18776000E+02  0.073501
  1 S  6.36916000E+01  0.248937
  1 S  1.88282000E+01  0.602460
  1 S  2.72023000E+00  0.256202
 
  2 S  3.06331000E+01  0.111906
  2 S  7.02614000E+00  0.921666
  2 S  2.11205000E+00 -0.002569
 
  3 P  3.06331000E+01  0.038312
  3 P  7.02614000E+00  0.237403
  3 P  2.11205000E+00  0.817592
 
  4 S  6.84009000E-01  1.000000
 
  5 P  6.84009000E-01  1.000000
 
  6 S  2.00878000E-01  1.000000
 
  7 P  2.00878000E-01  1.000000
 
  8 S  6.39000000E-02  1.000000
 
  9 P  6.39000000E-02  1.000000
 
 10 D  1.82600000E+00  1.000000
 
 11 D  4.56500000E-01  1.000000
 


 Summary of "ao basis" -> "ao basis" (cartesian)
 ------------------------------------------------------------------------------
       Tag                 Description            Shells   Functions and Types
 ---------------- ------------------------------  ------  ---------------------
 O                      6-311++G(2d,2p)             11       29   5s4p2d
 P                      6-311++G(2d,2p)             15       37   7s6p2d
 C                      6-311++G(2d,2p)             11       29   5s4p2d
 H                      6-311++G(2d,2p)              6       10   4s2p
 N                      6-311++G(2d,2p)             11       29   5s4p2d


 
 
 solvent parameters
 solvname_short: chcl3   
 solvname_long:  chloroform                         
 dielec:        4.7113
 dielecinf:     2.0906

          ---------------
          -cosmo- solvent
          ---------------
 Cosmo: York-Karplus, doi: 10.1021/jp992097l
 dielectric constant -eps-     =   4.71
 screen = (eps-1)/(eps    )    =   0.78774
 surface charge correction     = lagrangian
 -lineq- algorithm             =   0
 -bem- low  level              =   2
 -bem- from -octahedral-
 gaussian surface charge width =   0.98000
 degree of switching           =   1.00000
 switching function tolerance  =   0.00010
 atomic radii = 
 --------------
    1  8.000  1.720
    2 15.000  2.106
    3  8.000  1.720
    4  8.000  1.720
    5  6.000  2.000
    6  6.000  2.000
    7  6.000  2.000
    8  6.000  2.000
    9  6.000  2.000
   10  6.000  2.000
   11  1.000  1.300
   12  1.000  1.300
   13  1.000  1.300
   14  1.000  1.300
   15  1.000  1.300
   16  1.000  1.300
   17  1.000  1.300
   18  1.000  1.300
   19  1.000  1.300
   20  1.000  1.300
   21  1.000  1.300
   22  1.000  1.300
   23  6.000  2.000
   24  6.000  2.000
   25  7.000  1.830
   26  6.000  2.000
   27  1.000  1.300
   28  1.000  1.300
   29  6.000  2.000
   30  1.000  1.300
   31  1.000  1.300
   32  1.000  1.300
   33  1.000  1.300
   34  1.000  1.300
   35  1.000  1.300
   36  1.000  1.300
   37  1.000  1.300

 solvent accessible surface
 --------------------------

 ---------- ATOMIC COORDINATES (A.U.) ------------ VDWR(ANG.) --
     1   -0.08203385   -1.38648842   -0.07720288     1.720
     2   -0.84303861    0.90146087   -1.99070217     2.106
     3    1.58207877    2.80785011   -1.96790633     1.720
     4   -2.43727410    2.59218234    0.03901221     1.720
     5    1.58942026    4.52798402    0.16794163     2.000
     6   -1.27886128    5.00223071    0.61991478     2.000
     7    2.89787117    3.25243318    2.38737245     2.000
     8    3.04782843    6.86133657   -0.61794220     2.000
     9   -2.39249080    6.94739328   -1.17877722     2.000
    10   -1.93826846    5.65881384    3.32616010     2.000
    11    3.13898314    4.57855566    3.94677914     1.300
    12    1.85198141    1.61173605    3.05439532     1.300
    13    4.76617572    2.62704139    1.78238428     1.300
    14    2.33644335    7.64501175   -2.38146555     1.300
    15    2.92569034    8.30760723    0.84813948     1.300
    16    5.03554175    6.38006181   -0.87195476     1.300
    17   -1.74411063    8.84781268   -0.71740438     1.300
    18   -1.89405739    6.53766125   -3.13655753     1.300
    19   -4.44555107    6.90653443   -1.00947074     1.300
    20   -0.97794846    7.39431349    3.89349065     1.300
    21   -3.96856183    5.97220281    3.48791860     1.300
    22   -1.40477587    4.15344506    4.62183912     1.300
    23    0.52434811   -3.79833533   -1.10945164     2.000
    24   -0.73677702   -5.80678282    0.49667372     2.000
    25   -0.09225046   -8.34722400   -0.30427155     1.830
    26    2.44506729   -9.05518169    0.45143642     2.000
    27   -3.79794963   -9.68795910    0.00217926     1.300
    28    2.87064952  -10.94895662   -0.24274413     1.300
    29   -1.90281575  -10.16189292    0.65976332     2.000
    30   -0.13305105   -3.94081249   -3.06612533     1.300
    31    2.57706206   -4.00687618   -1.11118141     1.300
    32   -2.77954114   -5.56549851    0.32856479     1.300
    33   -0.24842261   -5.47980808    2.49821728     1.300
    34   -1.93324556  -10.22786988    2.74347119     1.300
    35    2.67371376   -9.05695629    2.52417092     1.300
    36    3.83933702   -7.76721943   -0.34611021     1.300
    37   -1.43112891  -12.04771726   -0.02787465     1.300
 number of segments per atom =         32
 number of   points per atom =         32
 atom (   nspa,  nppa )
 ----------------------
    1 (     10,     0 )       0
    2 (     13,     0 )       0
    3 (     14,     0 )       0
    4 (     10,     0 )       0
    5 (      2,     0 )       0
    6 (      2,     0 )       0
    7 (     14,     0 )       0
    8 (     15,     0 )       0
    9 (     12,     0 )       0
   10 (     12,     0 )       0
   11 (     13,     0 )       0
   12 (     12,     0 )       0
   13 (     13,     0 )       0
   14 (     11,     0 )       0
   15 (     12,     0 )       0
   16 (     15,     0 )       0
   17 (     13,     0 )       0
   18 (     14,     0 )       0
   19 (     16,     0 )       0
   20 (     14,     0 )       0
   21 (     14,     0 )       0
   22 (     14,     0 )       0
   23 (     10,     0 )       0
   24 (      9,     0 )       0
   25 (      6,     0 )       0
   26 (     15,     0 )       0
   27 (     14,     0 )       0
   28 (     13,     0 )       0
   29 (     15,     0 )       0
   30 (     12,     0 )       0
   31 (     14,     0 )       0
   32 (     14,     0 )       0
   33 (     14,     0 )       0
   34 (     16,     0 )       0
   35 (     16,     0 )       0
   36 (     12,     0 )       0
   37 (     14,     0 )       0
 number of -cosmo- surface points =      459
 molecular surface =    278.311 angstrom**2
 molecular volume  =    152.827 angstrom**3
 G(cav/disp)       =      2.252 kcal/mol
 ...... end of -cosmo- initialization ......


  Caching 1-el integrals 
 
 WARNING : Found     3 linear dependencies 
 S eigenvalue threshold:     1.00000E-05
 Smallest S eigenvalue :     3.04946E-06
 Largest  S eigenvalue :     8.06812E-06
 
   Time after variat. SCF:    149.8
   Time prior to 1st pass:    149.8
  Resetting Diis


         Total DFT energy =    -1016.402167142672
      One electron energy =    -3911.870624972850
           Coulomb energy =     1745.066441034177
    Exchange-Corr. energy =     -118.821687308921
 Nuclear repulsion energy =     1268.289054261353

             COSMO energy =        0.934649843569

 Numeric. integr. density =      127.999980163267

     Total iterative time =   4460.3s


                                   COSMO solvation results
                                   -----------------------

                 gas phase energy =     -1016.391888831908
                 sol phase energy =     -1016.402167142672
 (electrostatic) solvation energy =         0.010278310765 (    6.45 kcal/mol)

     --------------------------
     Expectation value of S2:  
     --------------------------
      <S2> =     -0.0000 (Exact =     0.0000)
 


                         DFT ENERGY GRADIENTS

    atom               coordinates                        gradient
                 x          y          z           x          y          z
   1 O      -0.082034  -1.386488  -0.077203   -0.000333  -0.000048  -0.008795
   2 P      -0.843039   0.901461  -1.990702    0.005261   0.002469   0.012749
   3 O       1.582079   2.807850  -1.967906   -0.007559   0.000766   0.007220
   4 O      -2.437274   2.592182   0.039012    0.008701   0.003331  -0.004046
   5 C       1.589420   4.527984   0.167942   -0.000318  -0.004086  -0.003974
   6 C      -1.278861   5.002231   0.619915   -0.002039  -0.005444  -0.001462
   7 C       2.897871   3.252433   2.387372   -0.003061   0.002461  -0.004190
   8 C       3.047828   6.861337  -0.617942   -0.003001  -0.004256   0.001405
   9 C      -2.392491   6.947393  -1.178777    0.002726  -0.003716   0.003315
  10 C      -1.938268   5.658814   3.326160    0.001871  -0.001234  -0.005044
  11 H       3.138983   4.578556   3.946779   -0.000083   0.000927   0.000562
  12 H       1.851981   1.611736   3.054395   -0.001012  -0.001175  -0.000260
  13 H       4.766176   2.627041   1.782384    0.000446  -0.000162  -0.000477
  14 H       2.336443   7.645012  -2.381466   -0.000748   0.000191  -0.000829
  15 H       2.925690   8.307607   0.848139   -0.000237   0.000544   0.000828
  16 H       5.035542   6.380062  -0.871955    0.000498  -0.000414   0.000039
  17 H      -1.744111   8.847813  -0.717404    0.000680   0.000691   0.000495
  18 H      -1.894057   6.537661  -3.136558    0.000548  -0.000587  -0.000776
  19 H      -4.445551   6.906534  -1.009471   -0.000567  -0.000307   0.000299
  20 H      -0.977948   7.394313   3.893491    0.000323   0.000945   0.000056
  21 H      -3.968562   5.972203   3.487919   -0.000577   0.000216  -0.000242
  22 H      -1.404776   4.153445   4.621839    0.000600  -0.001003   0.000263
  23 C       0.524348  -3.798335  -1.109452   -0.004457   0.006014   0.006338
  24 C      -0.736777  -5.806783   0.496674    0.004107  -0.004321  -0.003712
  25 N      -0.092250  -8.347224  -0.304272    0.000450   0.000604   0.003536
  26 C       2.445067  -9.055182   0.451436   -0.007931   0.002310  -0.000439
  27 H      -3.797950  -9.687959   0.002179   -0.000566   0.000259  -0.000484
  28 H       2.870650 -10.948957  -0.242744    0.000037  -0.000591  -0.000438
  29 C      -1.902816 -10.161893   0.659763    0.005406   0.005482  -0.001163
  30 H      -0.133051  -3.940812  -3.066125   -0.000587  -0.000179  -0.001154
  31 H       2.577062  -4.006876  -1.111181    0.001322  -0.000502   0.000093
  32 H      -2.779541  -5.565499   0.328565   -0.000962  -0.000024  -0.000153
  33 H      -0.248423  -5.479808   2.498217    0.000308   0.000429   0.000466
  34 H      -1.933246 -10.227870   2.743471    0.000177   0.000127   0.000467
  35 H       2.673714  -9.056956   2.524171   -0.000096   0.000053   0.000489
  36 H       3.839337  -7.767219  -0.346110    0.000388   0.000757  -0.000515
  37 H      -1.431129 -12.047717  -0.027875    0.000281  -0.000527  -0.000467
 
  no constraints, skipping   0.000000000000000E+000

@ Step       Energy      Delta E   Gmax     Grms     Xrms     Xmax   Walltime
@ ---- ---------------- -------- -------- -------- -------- -------- --------
@    0   -1016.40216714  0.0D+00  0.01160  0.00238  0.00000  0.00000   5051.0
                                                                    

  no constraints, skipping   0.000000000000000E+000
  no constraints, skipping   0.000000000000000E+000
  no constraints, skipping   0.000000000000000E+000
  no constraints, skipping   0.000000000000000E+000
  no constraints, skipping   0.000000000000000E+000
  no constraints, skipping   0.000000000000000E+000
  no constraints, skipping   0.000000000000000E+000
  no constraints, skipping   0.000000000000000E+000
 
                                 NWChem DFT Module
                                 -----------------
 
 
                                       der2
 
 
 
 
 solvent parameters
 solvname_short: chcl3   
 solvname_long:  chloroform                         
 dielec:        4.7113
 dielecinf:     2.0906

          ---------------
          -cosmo- solvent
          ---------------
 Cosmo: York-Karplus, doi: 10.1021/jp992097l
 dielectric constant -eps-     =   4.71
 screen = (eps-1)/(eps    )    =   0.78774
 surface charge correction     = lagrangian
 -lineq- algorithm             =   0
 -bem- low  level              =   2
 -bem- from -octahedral-
 gaussian surface charge width =   0.98000
 degree of switching           =   1.00000
 switching function tolerance  =   0.00010
 atomic radii = 
 --------------
    1  8.000  1.720
    2 15.000  2.106
    3  8.000  1.720
    4  8.000  1.720
    5  6.000  2.000
    6  6.000  2.000
    7  6.000  2.000
    8  6.000  2.000
    9  6.000  2.000
   10  6.000  2.000
   11  1.000  1.300
   12  1.000  1.300
   13  1.000  1.300
   14  1.000  1.300
   15  1.000  1.300
   16  1.000  1.300
   17  1.000  1.300
   18  1.000  1.300
   19  1.000  1.300
   20  1.000  1.300
   21  1.000  1.300
   22  1.000  1.300
   23  6.000  2.000
   24  6.000  2.000
   25  7.000  1.830
   26  6.000  2.000
   27  1.000  1.300
   28  1.000  1.300
   29  6.000  2.000
   30  1.000  1.300
   31  1.000  1.300
   32  1.000  1.300
   33  1.000  1.300
   34  1.000  1.300
   35  1.000  1.300
   36  1.000  1.300
   37  1.000  1.300

 solvent accessible surface
 --------------------------

 ---------- ATOMIC COORDINATES (A.U.) ------------ VDWR(ANG.) --
     1   -0.06227594   -1.41264674   -0.06633423     1.720
     2   -0.82373270    0.90624852   -1.98272322     2.106
     3    1.60644039    2.84139454   -1.96517474     1.720
     4   -2.43491980    2.61147331    0.05382086     1.720
     5    1.60809001    4.59993524    0.17873266     2.000
     6   -1.28531366    5.06015321    0.62900619     2.000
     7    2.94393532    3.35161179    2.41801702     2.000
     8    3.06797719    6.94212903   -0.62973045     2.000
     9   -2.43163589    6.99311708   -1.18813660     2.000
    10   -1.96202708    5.73552053    3.34161358     2.000
    11    3.18263468    4.69237979    3.96131901     1.300
    12    1.92221850    1.71232875    3.11325712     1.300
    13    4.81407306    2.73587419    1.81460206     1.300
    14    2.36053741    7.71137148   -2.39768999     1.300
    15    2.94348572    8.39959365    0.82096581     1.300
    16    5.05600772    6.46686215   -0.87925261     1.300
    17   -1.80896450    8.90290077   -0.74266037     1.300
    18   -1.93709548    6.58360401   -3.14395435     1.300
    19   -4.48224290    6.93202772   -1.01633262     1.300
    20   -1.02003838    7.48126527    3.89806508     1.300
    21   -3.99365948    6.03164983    3.49737261     1.300
    22   -1.42255170    4.25101560    4.65396214     1.300
    23    0.54308865   -3.85195348   -1.10963204     2.000
    24   -0.72828402   -5.87696255    0.49268464     2.000
    25   -0.09848734   -8.44358951   -0.31505389     1.830
    26    2.45202157   -9.19079234    0.43547567     2.000
    27   -3.83086707   -9.76259441   -0.00648573     1.300
    28    2.85291377  -11.08541628   -0.26506065     1.300
    29   -1.94197488  -10.25670916    0.64760283     2.000
    30   -0.11236974   -3.98470577   -3.06366660     1.300
    31    2.59172380   -4.06137917   -1.11313347     1.300
    32   -2.76685517   -5.62544383    0.32274230     1.300
    33   -0.24220056   -5.56143382    2.49480488     1.300
    34   -1.97618600  -10.33143918    2.72959929     1.300
    35    2.68740377   -9.20444614    2.50599349     1.300
    36    3.86093613   -7.92072362   -0.35801510     1.300
    37   -1.49176772  -12.14413095   -0.04391858     1.300
 number of segments per atom =         32
 number of   points per atom =         32
 atom (   nspa,  nppa )
 ----------------------
    1 (     10,     0 )       0
    2 (     13,     0 )       0
    3 (     14,     0 )       0
    4 (     10,     0 )       0
    5 (      2,     0 )       0
    6 (      2,     0 )       0
    7 (     14,     0 )       0
    8 (     15,     0 )       0
    9 (     14,     0 )       0
   10 (     12,     0 )       0
   11 (     14,     0 )       0
   12 (     12,     0 )       0
   13 (     13,     0 )       0
   14 (     12,     0 )       0
   15 (     12,     0 )       0
   16 (     15,     0 )       0
   17 (     13,     0 )       0
   18 (     14,     0 )       0
   19 (     16,     0 )       0
   20 (     14,     0 )       0
   21 (     15,     0 )       0
   22 (     14,     0 )       0
   23 (     10,     0 )       0
   24 (      9,     0 )       0
   25 (      6,     0 )       0
   26 (     15,     0 )       0
   27 (     14,     0 )       0
   28 (     13,     0 )       0
   29 (     15,     0 )       0
   30 (     12,     0 )       0
   31 (     15,     0 )       0
   32 (     14,     0 )       0
   33 (     14,     0 )       0
   34 (     16,     0 )       0
   35 (     16,     0 )       0
   36 (     13,     0 )       0
   37 (     14,     0 )       0
 number of -cosmo- surface points =      466
 molecular surface =    280.697 angstrom**2
 molecular volume  =    154.178 angstrom**3
 G(cav/disp)       =      2.263 kcal/mol
 ...... end of -cosmo- initialization ......


  Caching 1-el integrals 
 
 WARNING : Found     3 linear dependencies 
 S eigenvalue threshold:     1.00000E-05
 Smallest S eigenvalue :     3.26474E-06
 Largest  S eigenvalue :     8.67106E-06
 
   Time after variat. SCF:   5052.9
   Time prior to 1st pass:   5052.9


         Total DFT energy =    -1016.403753803140
      One electron energy =    -3890.925449693345
           Coulomb energy =     1734.581929453292
    Exchange-Corr. energy =     -118.749466285407
 Nuclear repulsion energy =     1257.693229809761

             COSMO energy =        0.996002912560

 Numeric. integr. density =      127.999988041180

     Total iterative time =   2571.2s


                                   COSMO solvation results
                                   -----------------------

                 gas phase energy =     -1016.392994497620
                 sol phase energy =     -1016.403753803140
 (electrostatic) solvation energy =         0.010759305520 (    6.75 kcal/mol)

     --------------------------
     Expectation value of S2:  
     --------------------------
      <S2> =     -0.0000 (Exact =     0.0000)
 
 Line search: 
     step= 1.00 grad=-3.0D-03 hess= 1.5D-03 energy=  -1016.403754 mode=accept  
 new step= 1.00                   predicted energy=  -1016.403754
  no constraints, skipping   0.000000000000000E+000
  no constraints, skipping   0.000000000000000E+000
  no constraints, skipping   0.000000000000000E+000
  no constraints, skipping   0.000000000000000E+000
  no constraints, skipping   0.000000000000000E+000
  no constraints, skipping   0.000000000000000E+000
  no constraints, skipping   0.000000000000000E+000
  no constraints, skipping   0.000000000000000E+000

          --------
          Step   1
          --------
 
                                 NWChem DFT Module
                                 -----------------
 
 
                                       der2
 
 
 
 
 solvent parameters
 solvname_short: chcl3   
 solvname_long:  chloroform                         
 dielec:        4.7113
 dielecinf:     2.0906

          ---------------
          -cosmo- solvent
          ---------------
 Cosmo: York-Karplus, doi: 10.1021/jp992097l
 dielectric constant -eps-     =   4.71
 screen = (eps-1)/(eps    )    =   0.78774
 surface charge correction     = lagrangian
 -lineq- algorithm             =   0
 -bem- low  level              =   2
 -bem- from -octahedral-
 gaussian surface charge width =   0.98000
 degree of switching           =   1.00000
 switching function tolerance  =   0.00010
 atomic radii = 
 --------------
    1  8.000  1.720
    2 15.000  2.106
    3  8.000  1.720
    4  8.000  1.720
    5  6.000  2.000
    6  6.000  2.000
    7  6.000  2.000
    8  6.000  2.000
    9  6.000  2.000
   10  6.000  2.000
   11  1.000  1.300
   12  1.000  1.300
   13  1.000  1.300
   14  1.000  1.300
   15  1.000  1.300
   16  1.000  1.300
   17  1.000  1.300
   18  1.000  1.300
   19  1.000  1.300
   20  1.000  1.300
   21  1.000  1.300
   22  1.000  1.300
   23  6.000  2.000
   24  6.000  2.000
   25  7.000  1.830
   26  6.000  2.000
   27  1.000  1.300
   28  1.000  1.300
   29  6.000  2.000
   30  1.000  1.300
   31  1.000  1.300
   32  1.000  1.300
   33  1.000  1.300
   34  1.000  1.300
   35  1.000  1.300
   36  1.000  1.300
   37  1.000  1.300

 solvent accessible surface
 --------------------------

 ---------- ATOMIC COORDINATES (A.U.) ------------ VDWR(ANG.) --
     1   -0.06227594   -1.41264674   -0.06633423     1.720
     2   -0.82373270    0.90624852   -1.98272322     2.106
     3    1.60644039    2.84139454   -1.96517474     1.720
     4   -2.43491980    2.61147331    0.05382086     1.720
     5    1.60809001    4.59993524    0.17873266     2.000
     6   -1.28531366    5.06015321    0.62900619     2.000
     7    2.94393532    3.35161179    2.41801702     2.000
     8    3.06797719    6.94212903   -0.62973045     2.000
     9   -2.43163589    6.99311708   -1.18813660     2.000
    10   -1.96202708    5.73552053    3.34161358     2.000
    11    3.18263468    4.69237979    3.96131901     1.300
    12    1.92221850    1.71232875    3.11325712     1.300
    13    4.81407306    2.73587419    1.81460206     1.300
    14    2.36053741    7.71137148   -2.39768999     1.300
    15    2.94348572    8.39959365    0.82096581     1.300
    16    5.05600772    6.46686215   -0.87925261     1.300
    17   -1.80896450    8.90290077   -0.74266037     1.300
    18   -1.93709548    6.58360401   -3.14395435     1.300
    19   -4.48224290    6.93202772   -1.01633262     1.300
    20   -1.02003838    7.48126527    3.89806508     1.300
    21   -3.99365948    6.03164983    3.49737261     1.300
    22   -1.42255170    4.25101560    4.65396214     1.300
    23    0.54308865   -3.85195348   -1.10963204     2.000
    24   -0.72828402   -5.87696255    0.49268464     2.000
    25   -0.09848734   -8.44358951   -0.31505389     1.830
    26    2.45202157   -9.19079234    0.43547567     2.000
    27   -3.83086707   -9.76259441   -0.00648573     1.300
    28    2.85291377  -11.08541628   -0.26506065     1.300
    29   -1.94197488  -10.25670916    0.64760283     2.000
    30   -0.11236974   -3.98470577   -3.06366660     1.300
    31    2.59172380   -4.06137917   -1.11313347     1.300
    32   -2.76685517   -5.62544383    0.32274230     1.300
    33   -0.24220056   -5.56143382    2.49480488     1.300
    34   -1.97618600  -10.33143918    2.72959929     1.300
    35    2.68740377   -9.20444614    2.50599349     1.300
    36    3.86093613   -7.92072362   -0.35801510     1.300
    37   -1.49176772  -12.14413095   -0.04391858     1.300
 number of segments per atom =         32
 number of   points per atom =         32
 atom (   nspa,  nppa )
 ----------------------
    1 (     10,     0 )       0
    2 (     13,     0 )       0
    3 (     14,     0 )       0
    4 (     10,     0 )       0
    5 (      2,     0 )       0
    6 (      2,     0 )       0
    7 (     14,     0 )       0
    8 (     15,     0 )       0
    9 (     14,     0 )       0
   10 (     12,     0 )       0
   11 (     14,     0 )       0
   12 (     12,     0 )       0
   13 (     13,     0 )       0
   14 (     12,     0 )       0
   15 (     12,     0 )       0
   16 (     15,     0 )       0
   17 (     13,     0 )       0
   18 (     14,     0 )       0
   19 (     16,     0 )       0
   20 (     14,     0 )       0
   21 (     15,     0 )       0
   22 (     14,     0 )       0
   23 (     10,     0 )       0
   24 (      9,     0 )       0
   25 (      6,     0 )       0
   26 (     15,     0 )       0
   27 (     14,     0 )       0
   28 (     13,     0 )       0
   29 (     15,     0 )       0
   30 (     12,     0 )       0
   31 (     15,     0 )       0
   32 (     14,     0 )       0
   33 (     14,     0 )       0
   34 (     16,     0 )       0
   35 (     16,     0 )       0
   36 (     13,     0 )       0
   37 (     14,     0 )       0
 number of -cosmo- surface points =      466
 molecular surface =    280.697 angstrom**2
 molecular volume  =    154.178 angstrom**3
 G(cav/disp)       =      2.263 kcal/mol
 ...... end of -cosmo- initialization ......



  The DFT is already converged 

         Total DFT energy =  -1016.403753803140



                         DFT ENERGY GRADIENTS

    atom               coordinates                        gradient
                 x          y          z           x          y          z
   1 O      -0.062276  -1.412647  -0.066334   -0.000690   0.001495  -0.004469
   2 P      -0.823733   0.906249  -1.982723    0.001950  -0.000643   0.005583
   3 O       1.606440   2.841395  -1.965175   -0.003970  -0.000185   0.000439
   4 O      -2.434920   2.611473   0.053821    0.002479   0.000711  -0.002983
   5 C       1.608090   4.599935   0.178733    0.001562  -0.001191  -0.001976
   6 C      -1.285314   5.060153   0.629006   -0.002174  -0.002209   0.000518
   7 C       2.943935   3.351612   2.418017   -0.000502   0.001094   0.000184
   8 C       3.067977   6.942129  -0.629730   -0.000164  -0.000353   0.001260
   9 C      -2.431636   6.993117  -1.188137    0.000514   0.000107   0.001007
  10 C      -1.962027   5.735521   3.341614    0.000850   0.000814  -0.000779
  11 H       3.182635   4.692380   3.961319    0.000199  -0.000196   0.000111
  12 H       1.922219   1.712329   3.113257    0.000268  -0.000077  -0.000245
  13 H       4.814073   2.735874   1.814602    0.000094  -0.000171   0.000137
  14 H       2.360537   7.711371  -2.397690    0.000174  -0.000021   0.000173
  15 H       2.943486   8.399594   0.820966    0.000211   0.000238  -0.000137
  16 H       5.056008   6.466862  -0.879253    0.000133   0.000162  -0.000037
  17 H      -1.808965   8.902901  -0.742660   -0.000190   0.000007  -0.000272
  18 H      -1.937095   6.583604  -3.143954   -0.000104   0.000077  -0.000058
  19 H      -4.482243   6.932028  -1.016333   -0.000078   0.000115  -0.000157
  20 H      -1.020038   7.481265   3.898065   -0.000266   0.000118   0.000287
  21 H      -3.993659   6.031650   3.497373   -0.000048   0.000103   0.000165
  22 H      -1.422552   4.251016   4.653962   -0.000086   0.000138  -0.000074
  23 C       0.543089  -3.851953  -1.109632   -0.001419   0.002605   0.003467
  24 C      -0.728284  -5.876963   0.492685    0.001232  -0.001626  -0.002588
  25 N      -0.098487  -8.443590  -0.315054   -0.000192  -0.000339   0.001051
  26 C       2.452022  -9.190792   0.435476   -0.001488   0.000232  -0.000766
  27 H      -3.830867  -9.762594  -0.006486   -0.000310  -0.000365   0.000084
  28 H       2.852914 -11.085416  -0.265061    0.000574  -0.000067   0.000050
  29 C      -1.941975 -10.256709   0.647603    0.001213   0.000902  -0.000709
  30 H      -0.112370  -3.984706  -3.063667    0.000029  -0.000471  -0.000376
  31 H       2.591724  -4.061379  -1.113133    0.000232  -0.000697  -0.000506
  32 H      -2.766855  -5.625444   0.322742   -0.000180   0.000357  -0.000028
  33 H      -0.242201  -5.561434   2.494805    0.000030   0.000355   0.000490
  34 H      -1.976186 -10.331439   2.729599   -0.000133  -0.000170   0.000392
  35 H       2.687404  -9.204446   2.505993    0.000211  -0.000070   0.000396
  36 H       3.860936  -7.920724  -0.358015    0.000445  -0.000432   0.000221
  37 H      -1.491768 -12.144131  -0.043919   -0.000405  -0.000345   0.000148
 
  no constraints, skipping   0.000000000000000E+000

  Step       Energy      Delta E   Gmax     Grms     Xrms     Xmax   Walltime
  ---- ---------------- -------- -------- -------- -------- -------- --------
@    1   -1016.40375380 -1.6D-03  0.00314  0.00041  0.05331  0.15381   8038.0
                                                                    

  no constraints, skipping   0.000000000000000E+000
  no constraints, skipping   0.000000000000000E+000
  no constraints, skipping   0.000000000000000E+000
  no constraints, skipping   0.000000000000000E+000
  no constraints, skipping   0.000000000000000E+000
  no constraints, skipping   0.000000000000000E+000
  no constraints, skipping   0.000000000000000E+000
  no constraints, skipping   0.000000000000000E+000
 
                                 NWChem DFT Module
                                 -----------------
 
 
                                       der2
 
 
 
 
 solvent parameters
 solvname_short: chcl3   
 solvname_long:  chloroform                         
 dielec:        4.7113
 dielecinf:     2.0906

          ---------------
          -cosmo- solvent
          ---------------
 Cosmo: York-Karplus, doi: 10.1021/jp992097l
 dielectric constant -eps-     =   4.71
 screen = (eps-1)/(eps    )    =   0.78774
 surface charge correction     = lagrangian
 -lineq- algorithm             =   0
 -bem- low  level              =   2
 -bem- from -octahedral-
 gaussian surface charge width =   0.98000
 degree of switching           =   1.00000
 switching function tolerance  =   0.00010
 atomic radii = 
 --------------
    1  8.000  1.720
    2 15.000  2.106
    3  8.000  1.720
    4  8.000  1.720
    5  6.000  2.000
    6  6.000  2.000
    7  6.000  2.000
    8  6.000  2.000
    9  6.000  2.000
   10  6.000  2.000
   11  1.000  1.300
   12  1.000  1.300
   13  1.000  1.300
   14  1.000  1.300
   15  1.000  1.300
   16  1.000  1.300
   17  1.000  1.300
   18  1.000  1.300
   19  1.000  1.300
   20  1.000  1.300
   21  1.000  1.300
   22  1.000  1.300
   23  6.000  2.000
   24  6.000  2.000
   25  7.000  1.830
   26  6.000  2.000
   27  1.000  1.300
   28  1.000  1.300
   29  6.000  2.000
   30  1.000  1.300
   31  1.000  1.300
   32  1.000  1.300
   33  1.000  1.300
   34  1.000  1.300
   35  1.000  1.300
   36  1.000  1.300
   37  1.000  1.300

 solvent accessible surface
 --------------------------

 ---------- ATOMIC COORDINATES (A.U.) ------------ VDWR(ANG.) --
     1   -0.04671683   -1.41719288   -0.03923798     1.720
     2   -0.80745817    0.89576761   -1.97808289     2.106
     3    1.62920955    2.83485412   -1.96108461     1.720
     4   -2.43021391    2.59730276    0.06311734     1.720
     5    1.61405959    4.60266081    0.18171935     2.000
     6   -1.28128220    5.05449876    0.62964738     2.000
     7    2.95004304    3.36264201    2.42778889     2.000
     8    3.06372595    6.94830238   -0.64102239     2.000
     9   -2.43309714    6.97813205   -1.19696983     2.000
    10   -1.96268828    5.72772431    3.34356721     2.000
    11    3.17958654    4.71093732    3.96565613     1.300
    12    1.93165741    1.72314834    3.12777590     1.300
    13    4.82286124    2.75254433    1.82847678     1.300
    14    2.35209517    7.70450926   -2.41335666     1.300
    15    2.93011266    8.41033444    0.80363845     1.300
    16    5.05324262    6.47945308   -0.88735717     1.300
    17   -1.81488144    8.89026411   -0.75492179     1.300
    18   -1.93518226    6.56307564   -3.15045567     1.300
    19   -4.48312248    6.91034984   -1.02503261     1.300
    20   -1.02415981    7.47608489    3.89612310     1.300
    21   -3.99514477    6.01687283    3.49659589     1.300
    22   -1.41890199    4.24548079    4.65707045     1.300
    23    0.55404169   -3.85673834   -1.09428813     2.000
    24   -0.73038524   -5.87090342    0.51381631     2.000
    25   -0.10667607   -8.43367349   -0.31423198     1.830
    26    2.44839937   -9.18598428    0.42404841     2.000
    27   -3.84076344   -9.74428074   -0.01254742     1.300
    28    2.84131738  -11.07548222   -0.29273956     1.300
    29   -1.95484369  -10.25164200    0.63781860     2.000
    30   -0.10455038   -3.98002013   -3.04631752     1.300
    31    2.60100225   -4.06990371   -1.09981110     1.300
    32   -2.76769272   -5.61354303    0.34865436     1.300
    33   -0.24094172   -5.56513300    2.51474042     1.300
    34   -1.98637499  -10.34146585    2.71788600     1.300
    35    2.69006621   -9.21312726    2.49227334     1.300
    36    3.84852309   -7.90603923   -0.36884054     1.300
    37   -1.50482856  -12.13172063   -0.07143449     1.300
 number of segments per atom =         32
 number of   points per atom =         32
 atom (   nspa,  nppa )
 ----------------------
    1 (     10,     0 )       0
    2 (     13,     0 )       0
    3 (     14,     0 )       0
    4 (     11,     0 )       0
    5 (      2,     0 )       0
    6 (      2,     0 )       0
    7 (     14,     0 )       0
    8 (     15,     0 )       0
    9 (     14,     0 )       0
   10 (     12,     0 )       0
   11 (     13,     0 )       0
   12 (     12,     0 )       0
   13 (     13,     0 )       0
   14 (     12,     0 )       0
   15 (     12,     0 )       0
   16 (     15,     0 )       0
   17 (     13,     0 )       0
   18 (     14,     0 )       0
   19 (     16,     0 )       0
   20 (     14,     0 )       0
   21 (     15,     0 )       0
   22 (     14,     0 )       0
   23 (     10,     0 )       0
   24 (      9,     0 )       0
   25 (      5,     0 )       0
   26 (     15,     0 )       0
   27 (     14,     0 )       0
   28 (     13,     0 )       0
   29 (     15,     0 )       0
   30 (     12,     0 )       0
   31 (     15,     0 )       0
   32 (     14,     0 )       0
   33 (     14,     0 )       0
   34 (     16,     0 )       0
   35 (     16,     0 )       0
   36 (     12,     0 )       0
   37 (     14,     0 )       0
 number of -cosmo- surface points =      464
 molecular surface =    280.608 angstrom**2
 molecular volume  =    154.165 angstrom**3
 G(cav/disp)       =      2.263 kcal/mol
 ...... end of -cosmo- initialization ......


  Caching 1-el integrals 
 
 WARNING : Found     3 linear dependencies 
 S eigenvalue threshold:     1.00000E-05
 Smallest S eigenvalue :     3.27852E-06
 Largest  S eigenvalue :     8.82423E-06
 
   Time after variat. SCF:   8039.7
   Time prior to 1st pass:   8039.7


         Total DFT energy =    -1016.403920345938
      One electron energy =    -3890.237770846070
           Coulomb energy =     1734.247155503587
    Exchange-Corr. energy =     -118.740997385027
 Nuclear repulsion energy =     1257.327606956256

             COSMO energy =        1.000085425316

 Numeric. integr. density =      127.999993251363

     Total iterative time =   2552.4s


                                   COSMO solvation results
                                   -----------------------

                 gas phase energy =     -1016.393103210237
                 sol phase energy =     -1016.403920345938
 (electrostatic) solvation energy =         0.010817135701 (    6.79 kcal/mol)

     --------------------------
     Expectation value of S2:  
     --------------------------
      <S2> =     -0.0000 (Exact =     0.0000)
 
 Line search: 
     step= 1.00 grad=-2.8D-04 hess= 1.1D-04 energy=  -1016.403920 mode=downhill
 new step= 1.25                   predicted energy=  -1016.403927
  no constraints, skipping   0.000000000000000E+000
  no constraints, skipping   0.000000000000000E+000
  no constraints, skipping   0.000000000000000E+000
  no constraints, skipping   0.000000000000000E+000
  no constraints, skipping   0.000000000000000E+000
  no constraints, skipping   0.000000000000000E+000
  no constraints, skipping   0.000000000000000E+000
  no constraints, skipping   0.000000000000000E+000

          --------
          Step   2
          --------
 
                                 NWChem DFT Module
                                 -----------------
 
 
                                       der2
 
 
 
 
 solvent parameters
 solvname_short: chcl3   
 solvname_long:  chloroform                         
 dielec:        4.7113
 dielecinf:     2.0906

          ---------------
          -cosmo- solvent
          ---------------
 Cosmo: York-Karplus, doi: 10.1021/jp992097l
 dielectric constant -eps-     =   4.71
 screen = (eps-1)/(eps    )    =   0.78774
 surface charge correction     = lagrangian
 -lineq- algorithm             =   0
 -bem- low  level              =   2
 -bem- from -octahedral-
 gaussian surface charge width =   0.98000
 degree of switching           =   1.00000
 switching function tolerance  =   0.00010
 atomic radii = 
 --------------
    1  8.000  1.720
    2 15.000  2.106
    3  8.000  1.720
    4  8.000  1.720
    5  6.000  2.000
    6  6.000  2.000
    7  6.000  2.000
    8  6.000  2.000
    9  6.000  2.000
   10  6.000  2.000
   11  1.000  1.300
   12  1.000  1.300
   13  1.000  1.300
   14  1.000  1.300
   15  1.000  1.300
   16  1.000  1.300
   17  1.000  1.300
   18  1.000  1.300
   19  1.000  1.300
   20  1.000  1.300
   21  1.000  1.300
   22  1.000  1.300
   23  6.000  2.000
   24  6.000  2.000
   25  7.000  1.830
   26  6.000  2.000
   27  1.000  1.300
   28  1.000  1.300
   29  6.000  2.000
   30  1.000  1.300
   31  1.000  1.300
   32  1.000  1.300
   33  1.000  1.300
   34  1.000  1.300
   35  1.000  1.300
   36  1.000  1.300
   37  1.000  1.300

 solvent accessible surface
 --------------------------

 ---------- ATOMIC COORDINATES (A.U.) ------------ VDWR(ANG.) --
     1   -0.04278735   -1.41833435   -0.03241012     1.720
     2   -0.80334439    0.89310714   -1.97689920     2.106
     3    1.63494989    2.83319495   -1.96003882     1.720
     4   -2.42901257    2.59369646    0.06547700     1.720
     5    1.61555880    4.60332313    0.18246852     2.000
     6   -1.28026683    5.05303722    0.62981400     2.000
     7    2.95158365    3.36541098    2.43024268     2.000
     8    3.06263817    6.94981551   -0.64387900     2.000
     9   -2.43346934    6.97430294   -1.19918665     2.000
    10   -1.96284637    5.72572648    3.34406357     2.000
    11    3.17881683    4.71559606    3.96672973     1.300
    12    1.93404512    1.72586500    3.13143103     1.300
    13    4.82507363    2.75674351    1.83195771     1.300
    14    2.34995647    7.70272641   -2.41730390     1.300
    15    2.92672420    8.41298781    0.79925660     1.300
    16    5.05252670    6.48259301   -0.88941763     1.300
    17   -1.81638486    8.88702751   -0.75800736     1.300
    18   -1.93470251    6.55785308   -3.15208150     1.300
[...]
   37 (     14,     0 )       0
 number of -cosmo- surface points =      466
 molecular surface =    278.620 angstrom**2
 molecular volume  =    152.920 angstrom**3
 G(cav/disp)       =      2.253 kcal/mol
 ...... end of -cosmo- initialization ......


 SCF residual:   1.285790695154135E-004

      ----------------------------------------------
      Calculating Paramagnetic Spin-Orbit Responses
      ----------------------------------------------

 
 solvent parameters
 solvname_short: chcl3   
 solvname_long:  chloroform                         
 dielec:        4.7113
 dielecinf:     2.0906

          ---------------
          -cosmo- solvent
          ---------------
 Cosmo: York-Karplus, doi: 10.1021/jp992097l
 dielectric constant -eps-     =   4.71
 screen = (eps-1)/(eps    )    =   0.78774
 surface charge correction     = lagrangian
 -lineq- algorithm             =   0
 -bem- low  level              =   2
 -bem- from -octahedral-
 gaussian surface charge width =   0.98000
 degree of switching           =   1.00000
 switching function tolerance  =   0.00010
 atomic radii = 
 --------------
    1  8.000  1.720
    2 15.000  2.106
    3  8.000  1.720
    4  8.000  1.720
    5  6.000  2.000
    6  6.000  2.000
    7  6.000  2.000
    8  6.000  2.000
    9  6.000  2.000
   10  6.000  2.000
   11  1.000  1.300
   12  1.000  1.300
   13  1.000  1.300
   14  1.000  1.300
   15  1.000  1.300
   16  1.000  1.300
   17  1.000  1.300
   18  1.000  1.300
   19  1.000  1.300
   20  1.000  1.300
   21  1.000  1.300
   22  1.000  1.300
   23  6.000  2.000
   24  6.000  2.000
   25  7.000  1.830
   26  6.000  2.000
   27  1.000  1.300
   28  1.000  1.300
   29  6.000  2.000
   30  1.000  1.300
   31  1.000  1.300
   32  1.000  1.300
   33  1.000  1.300
   34  1.000  1.300
   35  1.000  1.300
   36  1.000  1.300
   37  1.000  1.300

 solvent accessible surface
 --------------------------

 ---------- ATOMIC COORDINATES (A.U.) ------------ VDWR(ANG.) --
     1    0.41146997   -1.43893684    0.06084031     1.720
     2   -0.57217094    0.80947339   -1.86041299     2.106
     3    1.74197680    2.89242312   -1.92197444     1.720
     4   -2.23102968    2.42192583    0.23042709     1.720
     5    1.64853219    4.71671720    0.17261284     2.000
     6   -1.25335383    4.97329141    0.68921549     2.000
     7    3.13416609    3.63106495    2.40140691     2.000
     8    2.89940033    7.13352279   -0.76089978     2.000
     9   -2.59599215    6.75264349   -1.15085162     2.000
    10   -1.91245788    5.66364592    3.40425798     2.000
    11    3.32060734    5.02986668    3.90002240     1.300
    12    2.24590564    1.94760570    3.17273603     1.300
    13    5.02377847    3.13138343    1.75545805     1.300
    14    2.08612385    7.77325799   -2.53515566     1.300
    15    2.69275754    8.62863202    0.64140953     1.300
    16    4.91142782    6.80405682   -1.04740819     1.300
    17   -2.10419923    8.71637184   -0.78103409     1.300
    18   -2.12759745    6.31685165   -3.10718741     1.300
    19   -4.62923568    6.54313951   -0.90904096     1.300
    20   -1.09169542    7.48939365    3.89191499     1.300
    21   -3.95617781    5.80683757    3.60405922     1.300
    22   -1.22565411    4.25665694    4.73352388     1.300
    23    0.90554648   -3.91348539   -0.97848667     2.000
    24   -0.63049809   -5.85203158    0.49455360     2.000
    25   -0.15620973   -8.43924830   -0.35831268     1.830
    26    2.27986012   -9.40451294    0.51947318     2.000
    27   -3.99009558   -9.45381525   -0.32329235     1.300
    28    2.57146324  -11.30355294   -0.22032823     1.300
    29   -2.19576554  -10.12645460    0.42841885     2.000
    30    0.39184570   -3.97104603   -2.97584340     1.300
    31    2.92774441   -4.25371744   -0.82058318     1.300
    32   -2.62656027   -5.43170647    0.20500247     1.300
    33   -0.24522324   -5.63023128    2.52848719     1.300
    34   -2.36529830  -10.26077780    2.49918047     1.300
    35    2.38452296   -9.49233505    2.59726076     1.300
    36    3.82051148   -8.21970838   -0.15127823     1.300
    37   -1.84838784  -12.01911210   -0.30548937     1.300
 number of segments per atom =         32
 number of   points per atom =         32
 atom (   nspa,  nppa )
 ----------------------
    1 (     10,     0 )       0
    2 (     15,     0 )       0
    3 (     12,     0 )       0
    4 (     11,     0 )       0
    5 (      2,     0 )       0
    6 (      3,     0 )       0
    7 (     15,     0 )       0
    8 (     14,     0 )       0
    9 (     14,     0 )       0
   10 (     13,     0 )       0
   11 (     13,     0 )       0
   12 (     12,     0 )       0
   13 (     13,     0 )       0
   14 (     12,     0 )       0
   15 (     14,     0 )       0
   16 (     15,     0 )       0
   17 (     14,     0 )       0
   18 (     14,     0 )       0
   19 (     16,     0 )       0
   20 (     14,     0 )       0
   21 (     14,     0 )       0
   22 (     13,     0 )       0
   23 (     14,     0 )       0
   24 (      9,     0 )       0
   25 (      4,     0 )       0
   26 (     14,     0 )       0
   27 (     13,     0 )       0
   28 (     13,     0 )       0
   29 (     14,     0 )       0
   30 (     12,     0 )       0
   31 (     14,     0 )       0
   32 (     13,     0 )       0
   33 (     15,     0 )       0
   34 (     16,     0 )       0
   35 (     16,     0 )       0
   36 (     12,     0 )       0
   37 (     14,     0 )       0
 number of -cosmo- surface points =      466
 molecular surface =    278.620 angstrom**2
 molecular volume  =    152.920 angstrom**3
 G(cav/disp)       =      2.253 kcal/mol
 ...... end of -cosmo- initialization ......


 SCF residual:   1.285790694191220E-004

      ----------------------------------
      Indirect Spin-Spin Tensors (in Hz)
      ----------------------------------

      -------------------------------------------------
      Atom    2:  31-P  and Atom   23:  13-C 

      Respective Nuclear g-factors: 2.263200 & 1.404822
      -------------------------------------------------

      Fermi Contact (FC) Term (Hz):
     34.6754      0.0000      0.0000
      0.0000     34.6754      0.0000
      0.0000      0.0000     34.6754
        Isotropic =      34.6754

      Spin-Dipole   (SD) Term (Hz):
      0.1983      0.1292     -0.0441
      0.0135      0.0856     -0.1990
      0.0308      0.3525      0.1095
        Isotropic =       0.1311

      FC - SD  Cross Term (Hz):
      0.1537     -1.0688      2.7338
     -1.0688     -0.6991     -4.2525
      2.7338     -4.2525      0.5454
        Isotropic =       0.0000

      Paramagnetic Spin-Orbit Term (Hz):
     -2.1904      0.8515      0.7194
     -0.4255     -1.1493      0.1437
      0.6405     -1.1234     -0.0890
        Isotropic =      -1.1429

      Diamagnetic Spin-Orbit Term (Hz):
     -0.5568     -0.7513      0.2010
     -0.8214      1.4826     -0.6688
      0.0947     -0.2874     -0.7920
        Isotropic =       0.0446

      Total Spin-Spin Coupling Tensor (Hz):
     32.2803     -0.8394      3.6101
     -2.3022     34.3952     -4.9766
      3.4999     -5.3107     34.4493


      Isotropic Spin-Spin Coupling =      33.7083 Hz



      -------------------------------------------------
      Atom    2:  31-P  and Atom   30:   1-H 

      Respective Nuclear g-factors: 2.263200 & 5.585689
      -------------------------------------------------

      Fermi Contact (FC) Term (Hz):
     16.4541      0.0000      0.0000
      0.0000     16.4541      0.0000
      0.0000      0.0000     16.4541
        Isotropic =      16.4541

      Spin-Dipole   (SD) Term (Hz):
      0.0238      0.2137     -0.3828
      0.2007     -0.4909     -0.1927
     -0.3011      0.1682     -0.3582
        Isotropic =      -0.2751

      FC - SD  Cross Term (Hz):
     -1.7703     -2.2733      3.3987
     -2.2733     -2.3707     -6.1139
      3.3987     -6.1139      4.1410
        Isotropic =       0.0000

      Paramagnetic Spin-Orbit Term (Hz):
      0.7564      1.5638      0.4319
      1.1473     -5.8435     -2.3235
      0.1353     -2.8929      0.3269
        Isotropic =      -1.5868

      Diamagnetic Spin-Orbit Term (Hz):
     -1.6284     -1.2489     -0.2747
     -1.7809      5.3899      1.1320
     -0.8021      3.1314     -1.9137
        Isotropic =       0.6160

      Total Spin-Spin Coupling Tensor (Hz):
     13.8355     -1.7447      3.1731
     -2.7062     13.1389     -7.4981
      2.4309     -5.7072     18.6502


      Isotropic Spin-Spin Coupling =      15.2082 Hz



      -------------------------------------------------
      Atom    2:  31-P  and Atom   31:   1-H 

      Respective Nuclear g-factors: 2.263200 & 5.585689
      -------------------------------------------------

      Fermi Contact (FC) Term (Hz):
      4.1430      0.0000      0.0000
      0.0000      4.1430      0.0000
      0.0000      0.0000      4.1430
        Isotropic =       4.1430

      Spin-Dipole   (SD) Term (Hz):
      0.0944      0.0497      0.4669
     -0.0949      0.2216     -0.2318
     -0.2432      0.3796     -0.2119
        Isotropic =       0.0347

      FC - SD  Cross Term (Hz):
      1.0513      2.3462      0.0026
      2.3462     -2.1231     -2.1162
      0.0026     -2.1162      1.0718
        Isotropic =      -0.0000

      Paramagnetic Spin-Orbit Term (Hz):
     -0.7392      2.9285      0.5480
      2.6999     -1.3615     -0.3847
     -0.9342      0.8150      1.2577
        Isotropic =      -0.2810

      Diamagnetic Spin-Orbit Term (Hz):
      0.0350     -3.1127      0.9988
     -2.2890      1.0627     -1.1245
      0.3794     -0.4731     -1.7849
        Isotropic =      -0.2291

      Total Spin-Spin Coupling Tensor (Hz):
      4.5846      2.2117      2.0163
      2.6623      1.9428     -3.8572
     -0.7954     -1.3947      4.4757


      Isotropic Spin-Spin Coupling =       3.6677 Hz




          -----------------------------------------
          Chemical Shielding Tensors (GIAO, in ppm)
          -----------------------------------------

 
 solvent parameters
 solvname_short: chcl3   
 solvname_long:  chloroform                         
 dielec:        4.7113
 dielecinf:     2.0906

          ---------------
          -cosmo- solvent
          ---------------
 Cosmo: York-Karplus, doi: 10.1021/jp992097l
 dielectric constant -eps-     =   4.71
 screen = (eps-1)/(eps    )    =   0.78774
 surface charge correction     = lagrangian
 -lineq- algorithm             =   0
 -bem- low  level              =   2
 -bem- from -octahedral-
 gaussian surface charge width =   0.98000
 degree of switching           =   1.00000
 switching function tolerance  =   0.00010
 atomic radii = 
 --------------
    1  8.000  1.720
    2 15.000  2.106
    3  8.000  1.720
    4  8.000  1.720
    5  6.000  2.000
    6  6.000  2.000
    7  6.000  2.000
    8  6.000  2.000
    9  6.000  2.000
   10  6.000  2.000
   11  1.000  1.300
   12  1.000  1.300
   13  1.000  1.300
   14  1.000  1.300
   15  1.000  1.300
   16  1.000  1.300
   17  1.000  1.300
   18  1.000  1.300
   19  1.000  1.300
   20  1.000  1.300
   21  1.000  1.300
   22  1.000  1.300
   23  6.000  2.000
   24  6.000  2.000
   25  7.000  1.830
   26  6.000  2.000
   27  1.000  1.300
   28  1.000  1.300
   29  6.000  2.000
   30  1.000  1.300
   31  1.000  1.300
   32  1.000  1.300
   33  1.000  1.300
   34  1.000  1.300
   35  1.000  1.300
   36  1.000  1.300
   37  1.000  1.300

 solvent accessible surface
 --------------------------

 ---------- ATOMIC COORDINATES (A.U.) ------------ VDWR(ANG.) --
     1    0.41146997   -1.43893684    0.06084031     1.720
     2   -0.57217094    0.80947339   -1.86041299     2.106
     3    1.74197680    2.89242312   -1.92197444     1.720
     4   -2.23102968    2.42192583    0.23042709     1.720
     5    1.64853219    4.71671720    0.17261284     2.000
     6   -1.25335383    4.97329141    0.68921549     2.000
     7    3.13416609    3.63106495    2.40140691     2.000
     8    2.89940033    7.13352279   -0.76089978     2.000
     9   -2.59599215    6.75264349   -1.15085162     2.000
    10   -1.91245788    5.66364592    3.40425798     2.000
    11    3.32060734    5.02986668    3.90002240     1.300
    12    2.24590564    1.94760570    3.17273603     1.300
    13    5.02377847    3.13138343    1.75545805     1.300
    14    2.08612385    7.77325799   -2.53515566     1.300
    15    2.69275754    8.62863202    0.64140953     1.300
    16    4.91142782    6.80405682   -1.04740819     1.300
    17   -2.10419923    8.71637184   -0.78103409     1.300
    18   -2.12759745    6.31685165   -3.10718741     1.300
    19   -4.62923568    6.54313951   -0.90904096     1.300
    20   -1.09169542    7.48939365    3.89191499     1.300
    21   -3.95617781    5.80683757    3.60405922     1.300
    22   -1.22565411    4.25665694    4.73352388     1.300
    23    0.90554648   -3.91348539   -0.97848667     2.000
    24   -0.63049809   -5.85203158    0.49455360     2.000
    25   -0.15620973   -8.43924830   -0.35831268     1.830
    26    2.27986012   -9.40451294    0.51947318     2.000
    27   -3.99009558   -9.45381525   -0.32329235     1.300
    28    2.57146324  -11.30355294   -0.22032823     1.300
    29   -2.19576554  -10.12645460    0.42841885     2.000
    30    0.39184570   -3.97104603   -2.97584340     1.300
    31    2.92774441   -4.25371744   -0.82058318     1.300
    32   -2.62656027   -5.43170647    0.20500247     1.300
    33   -0.24522324   -5.63023128    2.52848719     1.300
    34   -2.36529830  -10.26077780    2.49918047     1.300
    35    2.38452296   -9.49233505    2.59726076     1.300
    36    3.82051148   -8.21970838   -0.15127823     1.300
    37   -1.84838784  -12.01911210   -0.30548937     1.300
 number of segments per atom =         32
 number of   points per atom =         32
 atom (   nspa,  nppa )
 ----------------------
    1 (     10,     0 )       0
    2 (     15,     0 )       0
    3 (     12,     0 )       0
    4 (     11,     0 )       0
    5 (      2,     0 )       0
    6 (      3,     0 )       0
    7 (     15,     0 )       0
    8 (     14,     0 )       0
    9 (     14,     0 )       0
   10 (     13,     0 )       0
   11 (     13,     0 )       0
   12 (     12,     0 )       0
   13 (     13,     0 )       0
   14 (     12,     0 )       0
   15 (     14,     0 )       0
   16 (     15,     0 )       0
   17 (     14,     0 )       0
   18 (     14,     0 )       0
   19 (     16,     0 )       0
   20 (     14,     0 )       0
   21 (     14,     0 )       0
   22 (     13,     0 )       0
   23 (     14,     0 )       0
   24 (      9,     0 )       0
   25 (      4,     0 )       0
   26 (     14,     0 )       0
   27 (     13,     0 )       0
   28 (     13,     0 )       0
   29 (     14,     0 )       0
   30 (     12,     0 )       0
   31 (     14,     0 )       0
   32 (     13,     0 )       0
   33 (     15,     0 )       0
   34 (     16,     0 )       0
   35 (     16,     0 )       0
   36 (     12,     0 )       0
   37 (     14,     0 )       0
 number of -cosmo- surface points =      466
 molecular surface =    278.620 angstrom**2
 molecular volume  =    152.920 angstrom**3
 G(cav/disp)       =      2.253 kcal/mol
 ...... end of -cosmo- initialization ......


 SCF residual:   1.285790695311779E-004

 Wrote CPHF data to ./molecule.shieldcphf

 Calc. par tensor-> nonrel
      Atom:    1  P 
        Diamagnetic
    961.1143     -0.7627     -2.4482
     -0.7627    970.2135     -0.8217
     -2.4482     -0.8217    960.2821

        Paramagnetic
   -864.2011      8.9748     95.3579
      8.9748   -928.1255      1.4117
     95.3579      1.4117   -738.0403

        Total Shielding Tensor
     96.9132      8.2121     92.9097
      8.2121     42.0880      0.5901
     92.9097      0.5901    222.2418

           isotropic =     120.4143
          anisotropy =     226.9706

          Principal Components and Axis System
                 1           2           3
              271.7281     52.2538     37.2612

      1         0.4699      0.7248     -0.5039
      2         0.0191      0.5624      0.8267
      3         0.8825     -0.3981      0.2504



 
 
                                NWChem Input Module
                                -------------------
 
 
 
 
                                     CITATION
                                     --------
                Please cite the following reference when publishing
                           results obtained with NWChem:
 
          E. Apra, E. J. Bylaska, W. A. de Jong, N. Govind, K. Kowalski,
       T. P. Straatsma, M. Valiev, H. J. J. van Dam, Y. Alexeev, J. Anchell,
       V. Anisimov, F. W. Aquino, R. Atta-Fynn, J. Autschbach, N. P. Bauman,
     J. C. Becca, D. E. Bernholdt, K. Bhaskaran-Nair, S. Bogatko, P. Borowski,
         J. Boschen, J. Brabec, A. Bruner, E. Cauet, Y. Chen, G. N. Chuev,
      C. J. Cramer, J. Daily, M. J. O. Deegan, T. H. Dunning Jr., M. Dupuis,
   K. G. Dyall, G. I. Fann, S. A. Fischer, A. Fonari, H. Fruchtl, L. Gagliardi,
      J. Garza, N. Gawande, S. Ghosh, K. Glaesemann, A. W. Gotz, J. Hammond,
       V. Helms, E. D. Hermes, K. Hirao, S. Hirata, M. Jacquelin, L. Jensen,
   B. G. Johnson, H. Jonsson, R. A. Kendall, M. Klemm, R. Kobayashi, V. Konkov,
      S. Krishnamoorthy, M. Krishnan, Z. Lin, R. D. Lins, R. J. Littlefield,
      A. J. Logsdail, K. Lopata, W. Ma, A. V. Marenich, J. Martin del Campo,
   D. Mejia-Rodriguez, J. E. Moore, J. M. Mullin, T. Nakajima, D. R. Nascimento,
    J. A. Nichols, P. J. Nichols, J. Nieplocha, A. Otero-de-la-Roza, B. Palmer,
    A. Panyala, T. Pirojsirikul, B. Peng, R. Peverati, J. Pittner, L. Pollack,
   R. M. Richard, P. Sadayappan, G. C. Schatz, W. A. Shelton, D. W. Silverstein,
   D. M. A. Smith, T. A. Soares, D. Song, M. Swart, H. L. Taylor, G. S. Thomas,
            V. Tipparaju, D. G. Truhlar, K. Tsemekhman, T. Van Voorhis,
      A. Vazquez-Mayagoitia, P. Verma, O. Villa, A. Vishnu, K. D. Vogiatzis,
        D. Wang, J. H. Weare, M. J. Williamson, T. L. Windus, K. Wolinski,
        A. T. Wong, Q. Wu, C. Yang, Q. Yu, M. Zacharias, Z. Zhang, Y. Zhao,
                                and R. J. Harrison
                        "NWChem: Past, present, and future
                         J. Chem. Phys. 152, 184102 (2020)
                               doi:10.1063/5.0004997
 
                                      AUTHORS
                                      -------
     E. Apra, E. J. Bylaska, N. Govind, K. Kowalski, M. Valiev, W. A. de Jong,
      T. P. Straatsma, H. J. J. van Dam, D. Wang, T. L. Windus, N. P. Bauman,
       A. Panyala, J. Hammond, J. Autschbach, K. Bhaskaran-Nair, J. Brabec,
    K. Lopata, S. A. Fischer, S. Krishnamoorthy, M. Jacquelin, W. Ma, M. Klemm,
       O. Villa, Y. Chen, V. Anisimov, F. Aquino, S. Hirata, M. T. Hackler,
           Eric Hermes, L. Jensen, J. E. Moore, J. C. Becca, V. Konjkov,
            D. Mejia-Rodriguez, T. Risthaus, M. Malagoli, A. Marenich,
   A. Otero-de-la-Roza, J. Mullin, P. Nichols, R. Peverati, J. Pittner, Y. Zhao,
        P.-D. Fan, A. Fonari, M. J. Williamson, R. J. Harrison, J. R. Rehr,
      M. Dupuis, D. Silverstein, D. M. A. Smith, J. Nieplocha, V. Tipparaju,
      M. Krishnan, B. E. Van Kuiken, A. Vazquez-Mayagoitia, M. Swart, Q. Wu,
   T. Van Voorhis, A. A. Auer, M. Nooijen, L. D. Crosby, E. Brown, G. Cisneros,
     G. I. Fann, H. Fruchtl, J. Garza, K. Hirao, R. A. Kendall, J. A. Nichols,
       K. Tsemekhman, K. Wolinski, J. Anchell, D. E. Bernholdt, P. Borowski,
       T. Clark, D. Clerc, H. Dachsel, M. J. O. Deegan, K. Dyall, D. Elwood,
      E. Glendening, M. Gutowski, A. C. Hess, J. Jaffe, B. G. Johnson, J. Ju,
        R. Kobayashi, R. Kutteh, Z. Lin, R. Littlefield, X. Long, B. Meng,
      T. Nakajima, S. Niu, L. Pollack, M. Rosing, K. Glaesemann, G. Sandrone,
      M. Stave, H. Taylor, G. Thomas, J. H. van Lenthe, A. T. Wong, Z. Zhang.

 Total times  cpu:   203756.0s     wall:   204165.8s
