 argument  1 = /home/milias/Work/open-collection/theoretical_chemistry/projects/nmr_diplomovky/derivaty_markerov/derivative_2/nwchem/geom_optimiz_nmr/der2.dk_odft_geomopt_nmr_b3lyp_cosmo-chcl3_ccpvdz-dk.nw
 


============================== echo of input deck ==============================
echo

start molecule

memory total 40 gb

print low

title "der2"
charge 0

# spin-spin coupling only for odft
dft
  odft
  mult 1
end

relativistic
   douglas-kroll
end


geometry units angstroms print xyz autosym
#  load format xyz VX.converged_geometry_blyp_tz2p-solvent-chcl3.xyz
#  load format xyz VX.geom.xyz
 # load format xyz der1.pbe0_tz2p_good_cosmo-chcl3_optimized_geom.xyz
  load format xyz der2.geopt_freq_nmr_pbe0_tz2p_good_cosmo-chcl3_converged_geometry.xyz
end

basis
  * library cc-pvdz-dk
end

dft
  direct
  grid fine
  xc b3lyp
  mult 1
# Reduce output during geometry optimization
  noprint "final vectors analysis"
end

driver
  tight
  maxiter 9999
  xyz der2_geom_ccpvdz-dk
end


property
  giao
  shielding 1  2
  spinspin  3  2 23 2 30 2 31
end

cosmo
  solvent chcl3
end

task dft optimize
task dft property
================================================================================


                                         
                                         
 
 
             Northwest Computational Chemistry Package (NWChem) 7.0.1
             --------------------------------------------------------
 
 
                    Environmental Molecular Sciences Laboratory
                       Pacific Northwest National Laboratory
                                Richland, WA 99352
 
                              Copyright (c) 1994-2020
                       Pacific Northwest National Laboratory
                            Battelle Memorial Institute
 
             NWChem is an open-source computational chemistry package
                        distributed under the terms of the
                      Educational Community License (ECL) 2.0
             A copy of the license is included with this distribution
                              in the LICENSE.TXT file
 
                                  ACKNOWLEDGMENT
                                  --------------

            This software and its documentation were developed at the
            EMSL at Pacific Northwest National Laboratory, a multiprogram
            national laboratory, operated for the U.S. Department of Energy
            by Battelle under Contract Number DE-AC05-76RL01830. Support
            for this work was provided by the Department of Energy Office
            of Biological and Environmental Research, Office of Basic
            Energy Sciences, and the Office of Advanced Scientific Computing.


           Job information
           ---------------

    hostname        = comp27.grid.umb.sk
    program         = /home/milias/Work/qch/software/nwchem_suite/nwchem_master/bin/LINUX64/nwchem
    date            = Sun Sep 12 19:47:56 2021

    compiled        = Sat_Sep_11_13:54:11_2021
    source          = /home/milias/Work/qch/software/nwchem_suite/nwchem_master
    nwchem branch   = 7.0.0
    nwchem revision = nwchem_on_git-2853-g04c637f
    ga revision     = 5.8.0
    use scalapack   = F
    input           = /home/milias/Work/open-collection/theoretical_chemistry/projects/nmr_diplomovky/derivaty_markerov/derivative_2/nwchem/geom_optimiz_nmr/der2.dk_odft_geomopt_nmr_b3lyp_cosmo-chcl3_ccpvdz-dk.nw
    prefix          = molecule.
    data base       = ./molecule.db
    status          = startup
    nproc           =       12
    time left       =     -1s



           Memory information
           ------------------

    heap     = 1342177280 doubles =  10240.0 Mbytes
    stack    = 1342177277 doubles =  10240.0 Mbytes
    global   = 2684354560 doubles =  20480.0 Mbytes (distinct from heap & stack)
    total    = 5368709117 doubles =  40960.0 Mbytes
    verify   = yes
    hardfail = no 


           Directory information
           ---------------------
 
  0 permanent = .
  0 scratch   = .
 
 
 
 
                                NWChem Input Module
                                -------------------
 
 
                                       der2
                                       ----

Douglas-Kroll integrals are switched on !

Integrals for the no-pair equation with external-field projection operators
will be computed (Douglas-Kroll-Hess).


 Scaling coordinates for geometry "geometry" by  1.889725989
 (inverse scale =  0.529177249)


          ------
          auto-z
          ------
  no constraints, skipping   0.000000000000000E+000
  no constraints, skipping   0.000000000000000E+000
 
 
                             Geometry "geometry" -> ""
                             -------------------------
 
 Output coordinates in angstroms (scale by  1.889725989 to convert to a.u.)
 
  No.       Tag          Charge          X              Y              Z
 ---- ---------------- ---------- -------------- -------------- --------------
    1 O                    8.0000    -0.04341044    -0.73369813    -0.04085401
    2 P                   15.0000    -0.44611685     0.47703258    -1.05343430
    3 O                    8.0000     0.83720009     1.48585040    -1.04137126
    4 O                    8.0000    -1.28975000     1.37172392     0.02064437
    5 C                    6.0000     0.84108504     2.39610613     0.08887089
    6 C                    6.0000    -0.67674430     2.64706668     0.32804480
    7 C                    6.0000     1.53348750     1.72111364     1.26334319
    8 C                    6.0000     1.61284146     3.63086321    -0.32700096
    9 C                    6.0000    -1.26605170     3.67640246    -0.62378209
   10 C                    6.0000    -1.02568757     2.99451554     1.76012825
   11 H                    1.0000     1.66107846     2.42286749     2.08854573
   12 H                    1.0000     0.98002643     0.85289405     1.61631651
   13 H                    1.0000     2.52215176     1.39017053     0.94319721
   14 H                    1.0000     1.23639267     4.04556628    -1.26021739
   15 H                    1.0000     1.54820876     4.39619674     0.44881612
   16 H                    1.0000     2.66469413     3.37618356    -0.46141862
   17 H                    1.0000    -0.92294367     4.68206117    -0.37963408
   18 H                    1.0000    -1.00229208     3.45958160    -1.65979489
   19 H                    1.0000    -2.35248448     3.65478089    -0.53418895
   20 H                    1.0000    -0.51750808     3.91290247     2.06034667
   21 H                    1.0000    -2.10007263     3.16035386     1.84572717
   22 H                    1.0000    -0.74337543     2.19790863     2.44577211
   23 C                    6.0000     0.27747309    -2.00999264    -0.58709657
   24 C                    6.0000    -0.38988564    -3.07281736     0.26282843
   25 N                    7.0000    -0.04881684    -4.41716103    -0.16101358
   26 C                    6.0000     1.29387398    -4.79179613     0.23888988
   27 H                    1.0000    -2.00978854    -5.12664754     0.00115322
   28 H                    1.0000     1.51908242    -5.79393874    -0.12845467
   29 C                    6.0000    -1.00692680    -5.37744254     0.34913174
   30 H                    1.0000    -0.07040759    -2.08538831    -1.62252377
   31 H                    1.0000     1.36372261    -2.12034771    -0.58801192
   32 H                    1.0000    -1.47086993    -2.94513519     0.17386901
   33 H                    1.0000    -0.13145960    -2.89978976     1.32199975
   34 H                    1.0000    -1.02302957    -5.41235605     1.45178254
   35 H                    1.0000     1.41486849    -4.79273521     1.33573382
   36 H                    1.0000     2.03168980    -4.11023581    -0.18315365
   37 H                    1.0000    -0.75732086    -6.37537787    -0.01475063
 
      Atomic Mass 
      ----------- 
 
      O                 15.994910
      P                 30.973760
      C                 12.000000
      H                  1.007825
      N                 14.003070
 

 Effective nuclear repulsion energy (a.u.)    1268.2890542614

            Nuclear Dipole moment (a.u.) 
            ----------------------------
        X                 Y               Z
 ---------------- ---------------- ----------------
     0.0000000000    -0.0000000000    -0.0000000000
 


                                Z-matrix (autoz)
                                -------- 

 Units are Angstrom for bonds and degrees for angles
 
      Type          Name      I     J     K     L     M      Value
      ----------- --------  ----- ----- ----- ----- ----- ----------
    1 Stretch                  1     2                       1.62891
    2 Stretch                  1    23                       1.42488
    3 Stretch                  2     3                       1.63241
    4 Stretch                  2     4                       1.63274
    5 Stretch                  3     5                       1.45122
    6 Stretch                  4     6                       1.44802
    7 Stretch                  5     6                       1.55692
    8 Stretch                  5     7                       1.52132
    9 Stretch                  5     8                       1.51433
   10 Stretch                  6     9                       1.52079
   11 Stretch                  6    10                       1.51438
   12 Stretch                  7    11                       1.09073
   13 Stretch                  7    12                       1.08845
   14 Stretch                  7    13                       1.09063
   15 Stretch                  8    14                       1.08839
   16 Stretch                  8    15                       1.09170
   17 Stretch                  8    16                       1.09056
   18 Stretch                  9    17                       1.09027
   19 Stretch                  9    18                       1.09083
   20 Stretch                  9    19                       1.09034
   21 Stretch                 10    20                       1.09170
   22 Stretch                 10    21                       1.09047
   23 Stretch                 10    22                       1.08830
   24 Stretch                 23    24                       1.51570
   25 Stretch                 23    30                       1.09490
   26 Stretch                 23    31                       1.09184
   27 Stretch                 24    25                       1.45025
   28 Stretch                 24    32                       1.09213
   29 Stretch                 24    33                       1.10389
   30 Stretch                 25    26                       1.45020
   31 Stretch                 25    29                       1.44926
   32 Stretch                 26    28                       1.09085
   33 Stretch                 26    35                       1.10350
   34 Stretch                 26    36                       1.08950
   35 Stretch                 27    29                       1.09074
   36 Stretch                 29    34                       1.10332
   37 Stretch                 29    37                       1.09114
   38 Bend                     1     2     3               105.09322
   39 Bend                     1     2     4                97.24432
   40 Bend                     1    23    24               108.29843
   41 Bend                     1    23    30               110.65034
   42 Bend                     1    23    31               108.35489
   43 Bend                     2     1    23               118.89033
   44 Bend                     2     3     5               113.29639
   45 Bend                     2     4     6               113.79946
   46 Bend                     3     2     4                93.59475
   47 Bend                     3     5     6               102.59969
   48 Bend                     3     5     7               108.91586
   49 Bend                     3     5     8               107.39265
   50 Bend                     4     6     5               103.77626
   51 Bend                     4     6     9               107.41057
   52 Bend                     4     6    10               107.77501
   53 Bend                     5     6     9               112.99973
   54 Bend                     5     6    10               114.00959
   55 Bend                     5     7    11               110.60048
   56 Bend                     5     7    12               111.89103
   57 Bend                     5     7    13               108.69906
   58 Bend                     5     8    14               111.70835
   59 Bend                     5     8    15               110.26048
   60 Bend                     5     8    16               109.57130
   61 Bend                     6     5     7               113.36754
   62 Bend                     6     5     8               114.05402
   63 Bend                     6     9    17               111.23640
   64 Bend                     6     9    18               111.48121
   65 Bend                     6     9    19               108.73941
   66 Bend                     6    10    20               110.23103
   67 Bend                     6    10    21               109.64210
   68 Bend                     6    10    22               111.59641
   69 Bend                     7     5     8               109.98882
   70 Bend                     9     6    10               110.32149
   71 Bend                    11     7    12               109.10738
   72 Bend                    11     7    13               108.13573
   73 Bend                    12     7    13               108.30615
   74 Bend                    14     8    15               108.76819
   75 Bend                    14     8    16               108.47551
   76 Bend                    15     8    16               107.96347
   77 Bend                    17     9    18               108.65870
   78 Bend                    17     9    19               108.26819
   79 Bend                    18     9    19               108.36275
   80 Bend                    20    10    21               108.00518
   81 Bend                    20    10    22               108.76958
   82 Bend                    21    10    22               108.50842
   83 Bend                    23    24    25               112.49323
   84 Bend                    23    24    32               107.94779
   85 Bend                    23    24    33               108.96844
   86 Bend                    24    23    30               110.00532
   87 Bend                    24    23    31               111.57016
   88 Bend                    24    25    26               112.12447
   89 Bend                    24    25    29               110.84618
   90 Bend                    25    24    32               108.50258
   91 Bend                    25    24    33               111.75610
   92 Bend                    25    26    28               109.60969
   93 Bend                    25    26    35               112.07570
   94 Bend                    25    26    36               111.01255
   95 Bend                    25    29    27               110.07108
   96 Bend                    25    29    34               112.48276
   97 Bend                    25    29    37               109.71733
   98 Bend                    26    25    29               110.11168
   99 Bend                    27    29    34               108.22156
  100 Bend                    27    29    37               108.31394
  101 Bend                    28    26    35               108.13772
  102 Bend                    28    26    36               107.72453
  103 Bend                    30    23    31               107.95965
  104 Bend                    32    24    33               106.95061
  105 Bend                    34    29    37               107.91966
  106 Bend                    35    26    36               108.13856
  107 Torsion                  1     2     3     5         -82.12025
  108 Torsion                  1     2     4     6         113.85827
  109 Torsion                  1    23    24    25        -176.12111
  110 Torsion                  1    23    24    32          64.19786
  111 Torsion                  1    23    24    33         -51.61224
  112 Torsion                  2     1    23    24        -137.12910
  113 Torsion                  2     1    23    30         -16.48541
  114 Torsion                  2     1    23    31         101.69329
  115 Torsion                  2     3     5     6         -32.97790
  116 Torsion                  2     3     5     7          87.43406
  117 Torsion                  2     3     5     8        -153.48746
  118 Torsion                  2     4     6     5         -27.36425
  119 Torsion                  2     4     6     9          92.53668
  120 Torsion                  2     4     6    10        -148.59896
  121 Torsion                  3     2     1    23        -107.45302
  122 Torsion                  3     2     4     6           8.13516
  123 Torsion                  3     5     6     4          35.58340
  124 Torsion                  3     5     6     9         -80.44125
  125 Torsion                  3     5     6    10         152.53942
  126 Torsion                  3     5     7    11         173.06517
  127 Torsion                  3     5     7    12         -65.07036
  128 Torsion                  3     5     7    13          54.49165
  129 Torsion                  3     5     8    14          52.45457
  130 Torsion                  3     5     8    15         173.52527
  131 Torsion                  3     5     8    16         -67.78010
  132 Torsion                  4     2     1    23         156.82256
  133 Torsion                  4     2     3     5          16.37957
  134 Torsion                  4     6     5     7         -81.70273
  135 Torsion                  4     6     5     8         151.38095
  136 Torsion                  4     6     9    17         174.16519
  137 Torsion                  4     6     9    18         -64.38251
  138 Torsion                  4     6     9    19          55.02412
  139 Torsion                  4     6    10    20         175.53112
  140 Torsion                  4     6    10    21         -65.69739
  141 Torsion                  4     6    10    22          54.55373
  142 Torsion                  5     6     9    17         -71.99233
  143 Torsion                  5     6     9    18          49.45996
  144 Torsion                  5     6     9    19         168.86660
  145 Torsion                  5     6    10    20          60.91401
  146 Torsion                  5     6    10    21         179.68551
  147 Torsion                  5     6    10    22         -60.06338
  148 Torsion                  6     5     7    11         -73.40309
  149 Torsion                  6     5     7    12          48.46137
  150 Torsion                  6     5     7    13         168.02338
  151 Torsion                  6     5     8    14         -60.50894
  152 Torsion                  6     5     8    15          60.56176
  153 Torsion                  6     5     8    16         179.25638
  154 Torsion                  7     5     6     9         162.27262
  155 Torsion                  7     5     6    10          35.25328
  156 Torsion                  7     5     8    14         170.84182
  157 Torsion                  7     5     8    15         -68.08748
  158 Torsion                  7     5     8    16          50.60714
  159 Torsion                  8     5     6     9          35.35630
  160 Torsion                  8     5     6    10         -91.66304
  161 Torsion                  8     5     7    11          55.62065
  162 Torsion                  8     5     7    12         177.48511
  163 Torsion                  8     5     7    13         -62.95288
  164 Torsion                  9     6    10    20         -67.48137
  165 Torsion                  9     6    10    21          51.29013
  166 Torsion                  9     6    10    22         171.54124
  167 Torsion                 10     6     9    17          56.95186
  168 Torsion                 10     6     9    18         178.40416
  169 Torsion                 10     6     9    19         -62.18921
  170 Torsion                 23    24    25    26          75.38476
  171 Torsion                 23    24    25    29        -161.11140
  172 Torsion                 24    25    26    28        -178.11163
  173 Torsion                 24    25    26    35          61.81523
  174 Torsion                 24    25    26    36         -59.22630
  175 Torsion                 24    25    29    27          58.52919
  176 Torsion                 24    25    29    34         -62.23527
  177 Torsion                 24    25    29    37         177.62853
  178 Torsion                 25    24    23    30          62.83505
  179 Torsion                 25    24    23    31         -56.95262
  180 Torsion                 26    25    24    32        -165.25683
  181 Torsion                 26    25    24    33         -47.57453
  182 Torsion                 26    25    29    27        -176.81775
  183 Torsion                 26    25    29    34          62.41779
  184 Torsion                 26    25    29    37         -57.71840
  185 Torsion                 28    26    25    29          57.97336
  186 Torsion                 29    25    24    32         -41.75299
  187 Torsion                 29    25    24    33          75.92931
  188 Torsion                 29    25    26    35         -62.09978
  189 Torsion                 29    25    26    36         176.85868
  190 Torsion                 30    23    24    32         -56.84598
  191 Torsion                 30    23    24    33        -172.65608
  192 Torsion                 31    23    24    32        -176.63365
  193 Torsion                 31    23    24    33          67.55626
 
 
            XYZ format geometry
            -------------------
    37
 geometry
 O                    -0.04341044    -0.73369813    -0.04085401
 P                    -0.44611685     0.47703258    -1.05343430
 O                     0.83720009     1.48585040    -1.04137126
 O                    -1.28975000     1.37172392     0.02064437
 C                     0.84108504     2.39610613     0.08887089
 C                    -0.67674430     2.64706668     0.32804480
 C                     1.53348750     1.72111364     1.26334319
 C                     1.61284146     3.63086321    -0.32700096
 C                    -1.26605170     3.67640246    -0.62378209
 C                    -1.02568757     2.99451554     1.76012825
 H                     1.66107846     2.42286749     2.08854573
 H                     0.98002643     0.85289405     1.61631651
 H                     2.52215176     1.39017053     0.94319721
 H                     1.23639267     4.04556628    -1.26021739
 H                     1.54820876     4.39619674     0.44881612
 H                     2.66469413     3.37618356    -0.46141862
 H                    -0.92294367     4.68206117    -0.37963408
 H                    -1.00229208     3.45958160    -1.65979489
 H                    -2.35248448     3.65478089    -0.53418895
 H                    -0.51750808     3.91290247     2.06034667
 H                    -2.10007263     3.16035386     1.84572717
 H                    -0.74337543     2.19790863     2.44577211
 C                     0.27747309    -2.00999264    -0.58709657
 C                    -0.38988564    -3.07281736     0.26282843
 N                    -0.04881684    -4.41716103    -0.16101358
 C                     1.29387398    -4.79179613     0.23888988
 H                    -2.00978854    -5.12664754     0.00115322
 H                     1.51908242    -5.79393874    -0.12845467
 C                    -1.00692680    -5.37744254     0.34913174
 H                    -0.07040759    -2.08538831    -1.62252377
 H                     1.36372261    -2.12034771    -0.58801192
 H                    -1.47086993    -2.94513519     0.17386901
 H                    -0.13145960    -2.89978976     1.32199975
 H                    -1.02302957    -5.41235605     1.45178254
 H                     1.41486849    -4.79273521     1.33573382
 H                     2.03168980    -4.11023581    -0.18315365
 H                    -0.75732086    -6.37537787    -0.01475063
 
 ==============================================================================
                                internuclear distances
 ------------------------------------------------------------------------------
       center one      |      center two      | atomic units |  angstroms
 ------------------------------------------------------------------------------
    2 P                |   1 O                |     3.07820  |     1.62891
    3 O                |   2 P                |     3.08481  |     1.63241
    4 O                |   2 P                |     3.08543  |     1.63274
    5 C                |   3 O                |     2.74240  |     1.45122
    6 C                |   4 O                |     2.73637  |     1.44802
    6 C                |   5 C                |     2.94215  |     1.55692
    7 C                |   5 C                |     2.87488  |     1.52132
    8 C                |   5 C                |     2.86166  |     1.51433
    9 C                |   6 C                |     2.87387  |     1.52079
   10 C                |   6 C                |     2.86176  |     1.51438
   11 H                |   7 C                |     2.06119  |     1.09073
   12 H                |   7 C                |     2.05686  |     1.08845
   13 H                |   7 C                |     2.06099  |     1.09063
   14 H                |   8 C                |     2.05675  |     1.08839
   15 H                |   8 C                |     2.06301  |     1.09170
   16 H                |   8 C                |     2.06086  |     1.09056
   17 H                |   9 C                |     2.06030  |     1.09027
   18 H                |   9 C                |     2.06136  |     1.09083
   19 H                |   9 C                |     2.06043  |     1.09034
   20 H                |  10 C                |     2.06302  |     1.09170
   21 H                |  10 C                |     2.06070  |     1.09047
   22 H                |  10 C                |     2.05658  |     1.08830
   23 C                |   1 O                |     2.69263  |     1.42488
   24 C                |  23 C                |     2.86425  |     1.51570
   25 N                |  24 C                |     2.74058  |     1.45025
   26 C                |  25 N                |     2.74049  |     1.45020
   28 H                |  26 C                |     2.06140  |     1.09085
   29 C                |  25 N                |     2.73871  |     1.44926
   29 C                |  27 H                |     2.06120  |     1.09074
   30 H                |  23 C                |     2.06907  |     1.09490
   31 H                |  23 C                |     2.06328  |     1.09184
   32 H                |  24 C                |     2.06382  |     1.09213
   33 H                |  24 C                |     2.08604  |     1.10389
   34 H                |  29 C                |     2.08497  |     1.10332
   35 H                |  26 C                |     2.08531  |     1.10350
   36 H                |  26 C                |     2.05886  |     1.08950
   37 H                |  29 C                |     2.06196  |     1.09114
 ------------------------------------------------------------------------------
                         number of included internuclear distances:         37
 ==============================================================================



 ==============================================================================
                                 internuclear angles
 ------------------------------------------------------------------------------
        center 1       |       center 2       |       center 3       |  degrees
 ------------------------------------------------------------------------------
    2 P                |   1 O                |  23 C                |   118.89
    1 O                |   2 P                |   3 O                |   105.09
    1 O                |   2 P                |   4 O                |    97.24
    3 O                |   2 P                |   4 O                |    93.59
    2 P                |   3 O                |   5 C                |   113.30
    2 P                |   4 O                |   6 C                |   113.80
    3 O                |   5 C                |   6 C                |   102.60
    3 O                |   5 C                |   7 C                |   108.92
    3 O                |   5 C                |   8 C                |   107.39
    6 C                |   5 C                |   7 C                |   113.37
    6 C                |   5 C                |   8 C                |   114.05
    7 C                |   5 C                |   8 C                |   109.99
    4 O                |   6 C                |   5 C                |   103.78
    4 O                |   6 C                |   9 C                |   107.41
    4 O                |   6 C                |  10 C                |   107.78
    5 C                |   6 C                |   9 C                |   113.00
    5 C                |   6 C                |  10 C                |   114.01
    9 C                |   6 C                |  10 C                |   110.32
    5 C                |   7 C                |  11 H                |   110.60
    5 C                |   7 C                |  12 H                |   111.89
    5 C                |   7 C                |  13 H                |   108.70
   11 H                |   7 C                |  12 H                |   109.11
   11 H                |   7 C                |  13 H                |   108.14
   12 H                |   7 C                |  13 H                |   108.31
    5 C                |   8 C                |  14 H                |   111.71
    5 C                |   8 C                |  15 H                |   110.26
    5 C                |   8 C                |  16 H                |   109.57
   14 H                |   8 C                |  15 H                |   108.77
   14 H                |   8 C                |  16 H                |   108.48
   15 H                |   8 C                |  16 H                |   107.96
    6 C                |   9 C                |  17 H                |   111.24
    6 C                |   9 C                |  18 H                |   111.48
    6 C                |   9 C                |  19 H                |   108.74
   17 H                |   9 C                |  18 H                |   108.66
   17 H                |   9 C                |  19 H                |   108.27
   18 H                |   9 C                |  19 H                |   108.36
    6 C                |  10 C                |  20 H                |   110.23
    6 C                |  10 C                |  21 H                |   109.64
    6 C                |  10 C                |  22 H                |   111.60
   20 H                |  10 C                |  21 H                |   108.01
   20 H                |  10 C                |  22 H                |   108.77
   21 H                |  10 C                |  22 H                |   108.51
    1 O                |  23 C                |  24 C                |   108.30
    1 O                |  23 C                |  30 H                |   110.65
    1 O                |  23 C                |  31 H                |   108.35
   24 C                |  23 C                |  30 H                |   110.01
   24 C                |  23 C                |  31 H                |   111.57
   30 H                |  23 C                |  31 H                |   107.96
   23 C                |  24 C                |  25 N                |   112.49
   23 C                |  24 C                |  32 H                |   107.95
   23 C                |  24 C                |  33 H                |   108.97
   25 N                |  24 C                |  32 H                |   108.50
   25 N                |  24 C                |  33 H                |   111.76
   32 H                |  24 C                |  33 H                |   106.95
   24 C                |  25 N                |  26 C                |   112.12
   24 C                |  25 N                |  29 C                |   110.85
   26 C                |  25 N                |  29 C                |   110.11
   25 N                |  26 C                |  28 H                |   109.61
   25 N                |  26 C                |  35 H                |   112.08
   25 N                |  26 C                |  36 H                |   111.01
   28 H                |  26 C                |  35 H                |   108.14
   28 H                |  26 C                |  36 H                |   107.72
   35 H                |  26 C                |  36 H                |   108.14
   25 N                |  29 C                |  27 H                |   110.07
   25 N                |  29 C                |  34 H                |   112.48
   25 N                |  29 C                |  37 H                |   109.72
   27 H                |  29 C                |  34 H                |   108.22
   27 H                |  29 C                |  37 H                |   108.31
   34 H                |  29 C                |  37 H                |   107.92
 ------------------------------------------------------------------------------
                            number of included internuclear angles:         69
 ==============================================================================





 Summary of "ao basis" -> "" (cartesian)
 ------------------------------------------------------------------------------
       Tag                 Description            Shells   Functions and Types
 ---------------- ------------------------------  ------  ---------------------
 *                         cc-pvdz-dk                 on all atoms 


 
 
                           NWChem Geometry Optimization
                           ----------------------------
 
 
 
 
                                       der2
 
 
  no constraints, skipping   0.000000000000000E+000
 maximum gradient threshold         (gmax) =   0.000015
 rms gradient threshold             (grms) =   0.000010
 maximum cartesian step threshold   (xmax) =   0.000060
 rms cartesian step threshold       (xrms) =   0.000040
 fixed trust radius                (trust) =   0.300000
 maximum step size to saddle      (sadstp) =   0.100000
 energy precision                  (eprec) =   5.0D-06
 maximum number of steps          (nptopt) = 9999
 initial hessian option           (inhess) =    0
 line search option               (linopt) =    1
 hessian update option            (modupd) =    1
 saddle point option              (modsad) =    0
 initial eigen-mode to follow     (moddir) =    0
 initial variable to follow       (vardir) =    0
 follow first negative mode     (firstneg) =    T
 apply conjugacy                    (opcg) =    F
 source of zmatrix                         =   autoz   


          -------------------
          Energy Minimization
          -------------------

 
 Names of Z-matrix variables 
    1              2              3              4              5         
    6              7              8              9             10         
   11             12             13             14             15         
   16             17             18             19             20         
   21             22             23             24             25         
   26             27             28             29             30         
   31             32             33             34             35         
   36             37             38             39             40         
   41             42             43             44             45         
   46             47             48             49             50         
   51             52             53             54             55         
   56             57             58             59             60         
   61             62             63             64             65         
   66             67             68             69             70         
   71             72             73             74             75         
   76             77             78             79             80         
   81             82             83             84             85         
   86             87             88             89             90         
   91             92             93             94             95         
   96             97             98             99            100         
  101            102            103            104            105         
  106            107            108            109            110         
  111            112            113            114            115         
  116            117            118            119            120         
  121            122            123            124            125         
  126            127            128            129            130         
  131            132            133            134            135         
  136            137            138            139            140         
  141            142            143            144            145         
  146            147            148            149            150         
  151            152            153            154            155         
  156            157            158            159            160         
  161            162            163            164            165         
  166            167            168            169            170         
  171            172            173            174            175         
  176            177            178            179            180         
  181            182            183            184            185         
  186            187            188            189            190         
  191            192            193         
 
 Variables with the same non-blank name are constrained to be equal
 
 
 Using diagonal initial Hessian 
 Scaling for Hessian diagonals: bonds = 1.00  angles = 0.25  torsions = 0.10

          --------
          Step   0
          --------
 
                                 NWChem DFT Module
                                 -----------------
 
 
                                       der2
 
 
                      Basis "ao basis" -> "ao basis" (cartesian)
                      -----
  O (Oxygen)
  ----------
            Exponent  Coefficients 
       -------------- ---------------------------------------------------------
  1 S  1.17200000E+04  0.000977
  1 S  1.75900000E+03  0.005811
  1 S  4.00800000E+02  0.028365
  1 S  1.13700000E+02  0.105431
  1 S  3.70300000E+01  0.283447
  1 S  1.32700000E+01  0.448284
  1 S  5.02500000E+00  0.270294
  1 S  1.01300000E+00  0.015403
 
  2 S  1.17200000E+04 -0.000221
  2 S  1.75900000E+03 -0.001343
  2 S  4.00800000E+02 -0.006401
  2 S  1.13700000E+02 -0.025927
  2 S  3.70300000E+01 -0.071129
  2 S  1.32700000E+01 -0.165615
  2 S  5.02500000E+00 -0.116081
  2 S  1.01300000E+00  0.558524
 
  3 S  3.02300000E-01  1.000000
 
  4 P  1.77000000E+01  0.043155
  4 P  3.85400000E+00  0.228986
  4 P  1.04600000E+00  0.508608
 
  5 P  2.75300000E-01  1.000000
 
  6 D  1.18500000E+00  1.000000
 
  P (Phosphorous)
  ---------------
            Exponent  Coefficients 
       -------------- ---------------------------------------------------------
  1 S  9.48400000E+04  0.000696
  1 S  1.42200000E+04  0.002842
  1 S  3.23600000E+03  0.011656
  1 S  9.17100000E+02  0.043393
  1 S  2.99500000E+02  0.134177
  1 S  1.08100000E+02  0.309584
  1 S  4.21800000E+01  0.418732
  1 S  1.72800000E+01  0.220741
  1 S  4.85800000E+00  0.016202
  1 S  1.81800000E+00 -0.002509
  1 S  3.37200000E-01  0.000738
 
  2 S  9.48400000E+04 -0.000190
  2 S  1.42200000E+04 -0.000774
  2 S  3.23600000E+03 -0.003241
  2 S  9.17100000E+02 -0.012021
  2 S  2.99500000E+02 -0.040267
  2 S  1.08100000E+02 -0.100541
  2 S  4.21800000E+01 -0.198320
  2 S  1.72800000E+01 -0.110954
  2 S  4.85800000E+00  0.523115
  2 S  1.81800000E+00  0.596558
  2 S  3.37200000E-01  0.036026
 
  3 S  9.48400000E+04  0.000052
  3 S  1.42200000E+04  0.000213
  3 S  3.23600000E+03  0.000889
  3 S  9.17100000E+02  0.003319
  3 S  2.99500000E+02  0.011088
  3 S  1.08100000E+02  0.028275
  3 S  4.21800000E+01  0.056446
  3 S  1.72800000E+01  0.034729
  3 S  4.85800000E+00 -0.196113
  3 S  1.81800000E+00 -0.368582
  3 S  3.37200000E-01  0.629612
 
  4 S  1.23200000E-01  1.000000
 
  5 P  3.70500000E+02  0.004207
  5 P  8.73300000E+01  0.030750
  5 P  2.75900000E+01  0.130311
  5 P  1.00000000E+01  0.327883
  5 P  3.82500000E+00  0.456508
  5 P  1.49400000E+00  0.252570
  5 P  3.92100000E-01  0.016882
 
  6 P  3.70500000E+02 -0.001021
  6 P  8.73300000E+01 -0.007232
  6 P  2.75900000E+01 -0.032895
  6 P  1.00000000E+01 -0.079602
  6 P  3.82500000E+00 -0.134826
  6 P  1.49400000E+00 -0.008623
  6 P  3.92100000E-01  0.537535
 
  7 P  1.18600000E-01  1.000000
 
  8 D  3.73000000E-01  1.000000
 
  C (Carbon)
  ----------
            Exponent  Coefficients 
       -------------- ---------------------------------------------------------
  1 S  6.66500000E+03  0.000852
  1 S  1.00000000E+03  0.005512
  1 S  2.28000000E+02  0.027369
  1 S  6.47100000E+01  0.102057
  1 S  2.10600000E+01  0.274948
  1 S  7.49500000E+00  0.448341
  1 S  2.79700000E+00  0.284713
  1 S  5.21500000E-01  0.015175
 
  2 S  6.66500000E+03 -0.000180
  2 S  1.00000000E+03 -0.001195
  2 S  2.28000000E+02 -0.005794
  2 S  6.47100000E+01 -0.023417
  2 S  2.10600000E+01 -0.064050
  2 S  7.49500000E+00 -0.150092
  2 S  2.79700000E+00 -0.126838
  2 S  5.21500000E-01  0.545160
 
  3 S  1.59600000E-01  1.000000
 
  4 P  9.43900000E+00  0.038163
  4 P  2.00200000E+00  0.209492
  4 P  5.45600000E-01  0.508448
 
  5 P  1.51700000E-01  1.000000
 
  6 D  5.50000000E-01  1.000000
 
  H (Hydrogen)
  ------------
            Exponent  Coefficients 
       -------------- ---------------------------------------------------------
  1 S  1.30100000E+01  0.019698
  1 S  1.96200000E+00  0.137991
  1 S  4.44600000E-01  0.478142
 
  2 S  1.22000000E-01  1.000000
 
  3 P  7.27000000E-01  1.000000
 
  N (Nitrogen)
  ------------
            Exponent  Coefficients 
       -------------- ---------------------------------------------------------
  1 S  9.04600000E+03  0.000911
  1 S  1.35700000E+03  0.005644
  1 S  3.09300000E+02  0.027807
  1 S  8.77300000E+01  0.103680
  1 S  2.85600000E+01  0.279014
  1 S  1.02100000E+01  0.448222
  1 S  3.83800000E+00  0.277737
  1 S  7.46600000E-01  0.015399
 
  2 S  9.04600000E+03 -0.000199
  2 S  1.35700000E+03 -0.001267
  2 S  3.09300000E+02 -0.006091
  2 S  8.77300000E+01 -0.024697
  2 S  2.85600000E+01 -0.067603
  2 S  1.02100000E+01 -0.158233
  2 S  3.83800000E+00 -0.121206
  2 S  7.46600000E-01  0.549887
 
  3 S  2.24800000E-01  1.000000
 
  4 P  1.35500000E+01  0.040010
  4 P  2.91700000E+00  0.217213
  4 P  7.97300000E-01  0.510191
 
  5 P  2.18500000E-01  1.000000
 
  6 D  8.17000000E-01  1.000000
 


 Summary of "ao basis" -> "ao basis" (cartesian)
 ------------------------------------------------------------------------------
       Tag                 Description            Shells   Functions and Types
 ---------------- ------------------------------  ------  ---------------------
 O                         cc-pvdz-dk                6       15   3s2p1d
 P                         cc-pvdz-dk                8       19   4s3p1d
 C                         cc-pvdz-dk                6       15   3s2p1d
 H                         cc-pvdz-dk                3        5   2s1p
 N                         cc-pvdz-dk                6       15   3s2p1d


 
 
 solvent parameters
 solvname_short: chcl3   
 solvname_long:  chloroform                         
 dielec:        4.7113
 dielecinf:     2.0906

          ---------------
          -cosmo- solvent
          ---------------
 Cosmo: York-Karplus, doi: 10.1021/jp992097l
 dielectric constant -eps-     =   4.71
 screen = (eps-1)/(eps    )    =   0.78774
 surface charge correction     = lagrangian
 -lineq- algorithm             =   0
 -bem- low  level              =   2
 -bem- from -octahedral-
 gaussian surface charge width =   0.98000
 degree of switching           =   1.00000
 switching function tolerance  =   0.00010
 atomic radii = 
 --------------
    1  8.000  1.720
    2 15.000  2.106
    3  8.000  1.720
    4  8.000  1.720
    5  6.000  2.000
    6  6.000  2.000
    7  6.000  2.000
    8  6.000  2.000
    9  6.000  2.000
   10  6.000  2.000
   11  1.000  1.300
   12  1.000  1.300
   13  1.000  1.300
   14  1.000  1.300
   15  1.000  1.300
   16  1.000  1.300
   17  1.000  1.300
   18  1.000  1.300
   19  1.000  1.300
   20  1.000  1.300
   21  1.000  1.300
   22  1.000  1.300
   23  6.000  2.000
   24  6.000  2.000
   25  7.000  1.830
   26  6.000  2.000
   27  1.000  1.300
   28  1.000  1.300
   29  6.000  2.000
   30  1.000  1.300
   31  1.000  1.300
   32  1.000  1.300
   33  1.000  1.300
   34  1.000  1.300
   35  1.000  1.300
   36  1.000  1.300
   37  1.000  1.300

 solvent accessible surface
 --------------------------

 ---------- ATOMIC COORDINATES (A.U.) ------------ VDWR(ANG.) --
     1   -0.08203385   -1.38648842   -0.07720288     1.720
     2   -0.84303861    0.90146087   -1.99070217     2.106
     3    1.58207877    2.80785011   -1.96790633     1.720
     4   -2.43727410    2.59218234    0.03901221     1.720
     5    1.58942026    4.52798402    0.16794163     2.000
     6   -1.27886128    5.00223071    0.61991478     2.000
     7    2.89787117    3.25243318    2.38737245     2.000
     8    3.04782843    6.86133657   -0.61794220     2.000
     9   -2.39249080    6.94739328   -1.17877722     2.000
    10   -1.93826846    5.65881384    3.32616010     2.000
    11    3.13898314    4.57855566    3.94677914     1.300
    12    1.85198141    1.61173605    3.05439532     1.300
    13    4.76617572    2.62704139    1.78238428     1.300
    14    2.33644335    7.64501175   -2.38146555     1.300
    15    2.92569034    8.30760723    0.84813948     1.300
    16    5.03554175    6.38006181   -0.87195476     1.300
    17   -1.74411063    8.84781268   -0.71740438     1.300
    18   -1.89405739    6.53766125   -3.13655753     1.300
    19   -4.44555107    6.90653443   -1.00947074     1.300
    20   -0.97794846    7.39431349    3.89349065     1.300
    21   -3.96856183    5.97220281    3.48791860     1.300
    22   -1.40477587    4.15344506    4.62183912     1.300
    23    0.52434811   -3.79833533   -1.10945164     2.000
    24   -0.73677702   -5.80678282    0.49667372     2.000
    25   -0.09225046   -8.34722400   -0.30427155     1.830
    26    2.44506729   -9.05518169    0.45143642     2.000
    27   -3.79794963   -9.68795910    0.00217926     1.300
    28    2.87064952  -10.94895662   -0.24274413     1.300
    29   -1.90281575  -10.16189292    0.65976332     2.000
    30   -0.13305105   -3.94081249   -3.06612533     1.300
    31    2.57706206   -4.00687618   -1.11118141     1.300
    32   -2.77954114   -5.56549851    0.32856479     1.300
    33   -0.24842261   -5.47980808    2.49821728     1.300
    34   -1.93324556  -10.22786988    2.74347119     1.300
    35    2.67371376   -9.05695629    2.52417092     1.300
    36    3.83933702   -7.76721943   -0.34611021     1.300
    37   -1.43112891  -12.04771726   -0.02787465     1.300
 number of segments per atom =         32
 number of   points per atom =         32
 atom (   nspa,  nppa )
 ----------------------
    1 (     10,     0 )       0
    2 (     13,     0 )       0
    3 (     14,     0 )       0
    4 (     10,     0 )       0
    5 (      2,     0 )       0
    6 (      2,     0 )       0
    7 (     14,     0 )       0
    8 (     15,     0 )       0
    9 (     12,     0 )       0
   10 (     12,     0 )       0
   11 (     13,     0 )       0
   12 (     12,     0 )       0
   13 (     13,     0 )       0
   14 (     11,     0 )       0
   15 (     12,     0 )       0
   16 (     15,     0 )       0
   17 (     13,     0 )       0
   18 (     14,     0 )       0
   19 (     16,     0 )       0
   20 (     14,     0 )       0
   21 (     14,     0 )       0
   22 (     14,     0 )       0
   23 (     10,     0 )       0
   24 (      9,     0 )       0
   25 (      6,     0 )       0
   26 (     15,     0 )       0
   27 (     14,     0 )       0
   28 (     13,     0 )       0
   29 (     15,     0 )       0
   30 (     12,     0 )       0
   31 (     14,     0 )       0
   32 (     14,     0 )       0
   33 (     14,     0 )       0
   34 (     16,     0 )       0
   35 (     16,     0 )       0
   36 (     12,     0 )       0
   37 (     14,     0 )       0
 number of -cosmo- surface points =      459
 molecular surface =    278.311 angstrom**2
 molecular volume  =    152.827 angstrom**3
 G(cav/disp)       =      2.252 kcal/mol
 ...... end of -cosmo- initialization ......


  Caching 1-el integrals 
   Time after variat. SCF:     29.1
   Time prior to 1st pass:     29.1
  Resetting Diis


         Total DFT energy =    -1017.330938182042
      One electron energy =    -3913.055165937124
           Coulomb energy =     1745.461443335587
    Exchange-Corr. energy =     -118.901961275531
 Nuclear repulsion energy =     1268.289054261353

             COSMO energy =        0.875691433673

 Numeric. integr. density =      127.999983186877

     Total iterative time =    703.4s


                                   COSMO solvation results
                                   -----------------------

                 gas phase energy =     -1017.322609346480
                 sol phase energy =     -1017.330938182042
 (electrostatic) solvation energy =         0.008328835561 (    5.23 kcal/mol)

     --------------------------
     Expectation value of S2:  
     --------------------------
      <S2> =     -0.0000 (Exact =     0.0000)
 
                              Douglas-Kroll gradients
                              -----------------------

            The Douglas-Kroll correction to the gradient is 
            computed numerically and added to the analytical 
            non-relativistic gradients.


                         NWChem Numerical Gradients Module
                         ---------------------------------
 
 
 No. of totally-symmetric internal modes = 105

 Finite difference step  1.00000D-02
 Use five point formula F

 step     1 energy          -1.34630110
 step    -1 energy          -1.34630244
            gradient         0.000067
 step     2 energy          -1.34630187
 step    -2 energy          -1.34630166
            gradient        -0.000011
 step     3 energy          -1.34630160
 step    -3 energy          -1.34630193
            gradient         0.000016
 step     4 energy          -1.34630192
 step    -4 energy          -1.34630163
            gradient        -0.000015
 step     5 energy          -1.34630139
 step    -5 energy          -1.34630215
            gradient         0.000038
 step     6 energy          -1.34630112
 step    -6 energy          -1.34630242
            gradient         0.000065
 step     7 energy          -1.34630173
 step    -7 energy          -1.34630179
            gradient         0.000003
 step     8 energy          -1.34630167
 step    -8 energy          -1.34630187
            gradient         0.000010
 step     9 energy          -1.34630177
 step    -9 energy          -1.34630175
            gradient        -0.000001
 step    10 energy          -1.34630165
 step   -10 energy          -1.34630190
            gradient         0.000012
 step    11 energy          -1.34630222
 step   -11 energy          -1.34630131
            gradient        -0.000046
 step    12 energy          -1.34630181
 step   -12 energy          -1.34630172
            gradient        -0.000005
 step    13 energy          -1.34630189
 step   -13 energy          -1.34630163
            gradient        -0.000013
 step    14 energy          -1.34630168
 step   -14 energy          -1.34630184
            gradient         0.000008
 step    15 energy          -1.34630168
 step   -15 energy          -1.34630184
            gradient         0.000008
 step    16 energy          -1.34630105
 step   -16 energy          -1.34630249
            gradient         0.000072
 step    17 energy          -1.34630133
 step   -17 energy          -1.34630221
            gradient         0.000044
 step    18 energy          -1.34630127
 step   -18 energy          -1.34630226
            gradient         0.000050
 step    19 energy          -1.34630109
 step   -19 energy          -1.34630244
            gradient         0.000068
 step    20 energy          -1.34630126
 step   -20 energy          -1.34630227
            gradient         0.000051
 step    21 energy          -1.34630131
 step   -21 energy          -1.34630222
            gradient         0.000045
 step    22 energy          -1.34630145
 step   -22 energy          -1.34630209
            gradient         0.000032
 step    23 energy          -1.34630149
 step   -23 energy          -1.34630203
            gradient         0.000027
 step    24 energy          -1.34630107
 step   -24 energy          -1.34630247
            gradient         0.000070
 step    25 energy          -1.34630120
 step   -25 energy          -1.34630235
            gradient         0.000057
 step    26 energy          -1.34630126
 step   -26 energy          -1.34630228
            gradient         0.000051
 step    27 energy          -1.34630107
 step   -27 energy          -1.34630246
            gradient         0.000070
 step    28 energy          -1.34630130
 step   -28 energy          -1.34630224
            gradient         0.000047
 step    29 energy          -1.34630171
 step   -29 energy          -1.34630181
            gradient         0.000005
 step    30 energy          -1.34630134
 step   -30 energy          -1.34630220
            gradient         0.000043
 step    31 energy          -1.34630111
 step   -31 energy          -1.34630243
            gradient         0.000066
 step    32 energy          -1.34630121
 step   -32 energy          -1.34630233
            gradient         0.000056
 step    33 energy          -1.34630169
 step   -33 energy          -1.34630183
            gradient         0.000007
 step    34 energy          -1.34630158
 step   -34 energy          -1.34630195
            gradient         0.000019
 step    35 energy          -1.34630158
 step   -35 energy          -1.34630195
            gradient         0.000019
 step    36 energy          -1.34630187
 step   -36 energy          -1.34630165
            gradient        -0.000011
 step    37 energy          -1.34630130
 step   -37 energy          -1.34630225
            gradient         0.000048
 step    38 energy          -1.34630115
 step   -38 energy          -1.34630238
            gradient         0.000061
 step    39 energy          -1.34630134
 step   -39 energy          -1.34630219
            gradient         0.000042
 step    40 energy          -1.34630197
 step   -40 energy          -1.34630157
            gradient        -0.000020
 step    41 energy          -1.34630161
 step   -41 energy          -1.34630192
            gradient         0.000015
 step    42 energy          -1.34630168
 step   -42 energy          -1.34630185
            gradient         0.000009
 step    43 energy          -1.34630117
 step   -43 energy          -1.34630237
            gradient         0.000060
 step    44 energy          -1.34630192
 step   -44 energy          -1.34630161
            gradient        -0.000016
 step    45 energy          -1.34630156
 step   -45 energy          -1.34630196
            gradient         0.000020
 step    46 energy          -1.34630101
 step   -46 energy          -1.34630253
            gradient         0.000076
 step    47 energy          -1.34630212
 step   -47 energy          -1.34630142
            gradient        -0.000035
 step    48 energy          -1.34630189
 step   -48 energy          -1.34630164
            gradient        -0.000013
 step    49 energy          -1.34630194
 step   -49 energy          -1.34630160
            gradient        -0.000017
 step    50 energy          -1.34630107
 step   -50 energy          -1.34630246
            gradient         0.000069
 step    51 energy          -1.34630124
 step   -51 energy          -1.34630229
            gradient         0.000053
 step    52 energy          -1.34630122
 step   -52 energy          -1.34630232
            gradient         0.000055
 step    53 energy          -1.34630139
 step   -53 energy          -1.34630214
            gradient         0.000037
 step    54 energy          -1.34630161
 step   -54 energy          -1.34630192
            gradient         0.000016
 step    55 energy          -1.34630168
 step   -55 energy          -1.34630184
            gradient         0.000008
 step    56 energy          -1.34630112
 step   -56 energy          -1.34630242
            gradient         0.000065
 step    57 energy          -1.34630122
 step   -57 energy          -1.34630231
            gradient         0.000055
 step    58 energy          -1.34630171
 step   -58 energy          -1.34630182
            gradient         0.000005
 step    59 energy          -1.34630138
 step   -59 energy          -1.34630216
            gradient         0.000039
 step    60 energy          -1.34630195
 step   -60 energy          -1.34630158
            gradient        -0.000019
 step    61 energy          -1.34630113
 step   -61 energy          -1.34630241
            gradient         0.000064
 step    62 energy          -1.34630145
 step   -62 energy          -1.34630208
            gradient         0.000031
 step    63 energy          -1.34630180
 step   -63 energy          -1.34630173
            gradient        -0.000003
 step    64 energy          -1.34630184
 step   -64 energy          -1.34630169
            gradient        -0.000008
 step    65 energy          -1.34630220
 step   -65 energy          -1.34630135
            gradient        -0.000042
 step    66 energy          -1.34630171
 step   -66 energy          -1.34630183
            gradient         0.000006
 step    67 energy          -1.34630208
 step   -67 energy          -1.34630146
            gradient        -0.000031
 step    68 energy          -1.34630207
 step   -68 energy          -1.34630146
            gradient        -0.000030
 step    69 energy          -1.34630185
 step   -69 energy          -1.34630167
            gradient        -0.000009
 step    70 energy          -1.34630152
 step   -70 energy          -1.34630201
            gradient         0.000025
 step    71 energy          -1.34630105
 step   -71 energy          -1.34630247
            gradient         0.000071
 step    72 energy          -1.34630163
 step   -72 energy          -1.34630189
            gradient         0.000013
 step    73 energy          -1.34630187
 step   -73 energy          -1.34630166
            gradient        -0.000011
 step    74 energy          -1.34630195
 step   -74 energy          -1.34630158
            gradient        -0.000019
 step    75 energy          -1.34630214
 step   -75 energy          -1.34630140
            gradient        -0.000037
 step    76 energy          -1.34630109
 step   -76 energy          -1.34630244
            gradient         0.000068
 step    77 energy          -1.34630219
 step   -77 energy          -1.34630135
            gradient        -0.000042
 step    78 energy          -1.34630202
 step   -78 energy          -1.34630151
            gradient        -0.000026
 step    79 energy          -1.34630097
 step   -79 energy          -1.34630255
            gradient         0.000079
 step    80 energy          -1.34630208
 step   -80 energy          -1.34630145
            gradient        -0.000032
 step    81 energy          -1.34630113
 step   -81 energy          -1.34630239
            gradient         0.000063
 step    82 energy          -1.34630206
 step   -82 energy          -1.34630147
            gradient        -0.000029
 step    83 energy          -1.34630172
 step   -83 energy          -1.34630182
            gradient         0.000005
 step    84 energy          -1.34630201
 step   -84 energy          -1.34630152
            gradient        -0.000024
 step    85 energy          -1.34630210
 step   -85 energy          -1.34630144
            gradient        -0.000033
 step    86 energy          -1.34630183
 step   -86 energy          -1.34630170
            gradient        -0.000006
 step    87 energy          -1.34630203
 step   -87 energy          -1.34630149
            gradient        -0.000027
 step    88 energy          -1.34630176
 step   -88 energy          -1.34630176
            gradient        -0.000000
 step    89 energy          -1.34630109
 step   -89 energy          -1.34630244
            gradient         0.000068
 step    90 energy          -1.34630169
 step   -90 energy          -1.34630184
            gradient         0.000008
 step    91 energy          -1.34630179
 step   -91 energy          -1.34630174
            gradient        -0.000002
 step    92 energy          -1.34630139
 step   -92 energy          -1.34630214
            gradient         0.000037
 step    93 energy          -1.34630202
 step   -93 energy          -1.34630151
            gradient        -0.000026
 step    94 energy          -1.34630143
 step   -94 energy          -1.34630210
            gradient         0.000034
 step    95 energy          -1.34630199
 step   -95 energy          -1.34630154
            gradient        -0.000022
 step    96 energy          -1.34630133
 step   -96 energy          -1.34630220
            gradient         0.000044
 step    97 energy          -1.34630181
 step   -97 energy          -1.34630172
            gradient        -0.000005
 step    98 energy          -1.34630180
 step   -98 energy          -1.34630173
            gradient        -0.000003
 step    99 energy          -1.34630194
 step   -99 energy          -1.34630159
            gradient        -0.000017
 step   100 energy          -1.34630172
 step  -100 energy          -1.34630181
            gradient         0.000005
 step   101 energy          -1.34630200
 step  -101 energy          -1.34630153
            gradient        -0.000024
 step   102 energy          -1.34630153
 step  -102 energy          -1.34630200
            gradient         0.000023
 step   103 energy          -1.34630217
 step  -103 energy          -1.34630136
            gradient        -0.000041
 step   104 energy          -1.34630149
 step  -104 energy          -1.34630203
            gradient         0.000027
 step   105 energy          -1.34630163
 step  -105 energy          -1.34630189
            gradient         0.000013


                         DOUGLAS-KROLL CORRECTION TO ENERGY GRADIENTS

    atom               coordinates                        gradient
                 x          y          z           x          y          z
   1 O      -0.082034  -1.386488  -0.077203   -0.000017   0.000053   0.000066
   2 P      -0.843039   0.901461  -1.990702   -0.000013  -0.000002  -0.000030
   3 O       1.582079   2.807850  -1.967906    0.000029  -0.000016  -0.000060
   4 O      -2.437274   2.592182   0.039012   -0.000053  -0.000041  -0.000004
   5 C       1.589420   4.527984   0.167942   -0.000042  -0.000015  -0.000022
   6 C      -1.278861   5.002231   0.619915    0.000028  -0.000029  -0.000008
   7 C       2.897871   3.252433   2.387372    0.000018  -0.000013   0.000033
   8 C       3.047828   6.861337  -0.617942    0.000022   0.000038  -0.000012
   9 C      -2.392491   6.947393  -1.178777   -0.000012   0.000030  -0.000021
  10 C      -1.938268   5.658814   3.326160   -0.000009   0.000010   0.000043
  11 H       3.138983   4.578556   3.946779    0.000007   0.000045   0.000051
  12 H       1.851981   1.611736   3.054395   -0.000036  -0.000055   0.000023
  13 H       4.766176   2.627041   1.782384    0.000063  -0.000021  -0.000021
  14 H       2.336443   7.645012  -2.381466   -0.000025   0.000026  -0.000060
  15 H       2.925690   8.307607   0.848139   -0.000005   0.000047   0.000049
  16 H       5.035542   6.380062  -0.871955    0.000068  -0.000017  -0.000008
  17 H      -1.744111   8.847813  -0.717404    0.000023   0.000063   0.000016
  18 H      -1.894057   6.537661  -3.136558    0.000018  -0.000015  -0.000066
  19 H      -4.445551   6.906534  -1.009471   -0.000069  -0.000001   0.000006
  20 H      -0.977948   7.394313   3.893491    0.000032   0.000058   0.000018
  21 H      -3.968562   5.972203   3.487919   -0.000069   0.000011   0.000005
  22 H      -1.404776   4.153445   4.621839    0.000019  -0.000052   0.000044
  23 C       0.524348  -3.798335  -1.109452    0.000029  -0.000005  -0.000041
  24 C      -0.736777  -5.806783   0.496674   -0.000024  -0.000006   0.000037
  25 N      -0.092250  -8.347224  -0.304272   -0.000005   0.000019  -0.000104
  26 C       2.445067  -9.055182   0.451436    0.000046  -0.000011   0.000018
  27 H      -3.797950  -9.687959   0.002179   -0.000065   0.000018  -0.000023
  28 H       2.870650 -10.948957  -0.242744    0.000013  -0.000065  -0.000024
  29 C      -1.902816 -10.161893   0.659763   -0.000036  -0.000035   0.000023
  30 H      -0.133051  -3.940812  -3.066125   -0.000022  -0.000005  -0.000064
  31 H       2.577062  -4.006876  -1.111181    0.000070  -0.000008   0.000001
  32 H      -2.779541  -5.565499   0.328565   -0.000067   0.000007  -0.000006
  33 H      -0.248423  -5.479808   2.498217    0.000015   0.000011   0.000061
  34 H      -1.933246 -10.227870   2.743471   -0.000002  -0.000003   0.000068
  35 H       2.673714  -9.056956   2.524171    0.000008  -0.000000   0.000067
  36 H       3.839337  -7.767219  -0.346110    0.000047   0.000045  -0.000028
  37 H      -1.431129 -12.047717  -0.027875    0.000017  -0.000064  -0.000024
 
 


                         DFT ENERGY GRADIENTS

    atom               coordinates                        gradient
                 x          y          z           x          y          z
   1 O      -0.082034  -1.386488  -0.077203   -0.006790   0.015921  -0.024017
   2 P      -0.843039   0.901461  -1.990702    0.017913   0.009873   0.042233
   3 O       1.582079   2.807850  -1.967906   -0.024888  -0.011820   0.008187
   4 O      -2.437274   2.592182   0.039012    0.020599  -0.007202  -0.017909
   5 C       1.589420   4.527984   0.167942   -0.000166  -0.003594  -0.003527
   6 C      -1.278861   5.002231   0.619915   -0.002109  -0.004299  -0.001680
   7 C       2.897871   3.252433   2.387372   -0.000289  -0.000102  -0.000441
   8 C       3.047828   6.861337  -0.617942   -0.000056   0.000224   0.000209
   9 C      -2.392491   6.947393  -1.178777    0.000424  -0.000227  -0.000231
  10 C      -1.938268   5.658814   3.326160    0.000463   0.000195   0.000028
  11 H       3.138983   4.578556   3.946779   -0.001092  -0.003582  -0.005062
  12 H       1.851981   1.611736   3.054395    0.002929   0.004811  -0.002129
  13 H       4.766176   2.627041   1.782384   -0.005953   0.002327   0.001675
  14 H       2.336443   7.645012  -2.381466    0.001498  -0.002491   0.005387
  15 H       2.925690   8.307607   0.848139    0.000150  -0.004549  -0.004267
  16 H       5.035542   6.380062  -0.871955   -0.006441   0.001050   0.001085
  17 H      -1.744111   8.847813  -0.717404   -0.001508  -0.006093  -0.001003
  18 H      -1.894057   6.537661  -3.136558   -0.001353   0.000868   0.006032
  19 H      -4.445551   6.906534  -1.009471    0.006601   0.000014  -0.000035
  20 H      -0.977948   7.394313   3.893491   -0.002929  -0.005153  -0.001987
  21 H      -3.968562   5.972203   3.487919    0.006470  -0.000836  -0.001062
  22 H      -1.404776   4.153445   4.621839   -0.001069   0.004297  -0.004259
  23 C       0.524348  -3.798335  -1.109452   -0.000124   0.003665   0.000015
  24 C      -0.736777  -5.806783   0.496674   -0.000897  -0.000884   0.000539
  25 N      -0.092250  -8.347224  -0.304272    0.000709   0.000885   0.006059
  26 C       2.445067  -9.055182   0.451436    0.000516  -0.000023   0.000809
  27 H      -3.797950  -9.687959   0.002179    0.006324  -0.001370   0.001779
  28 H       2.870650 -10.948957  -0.242744   -0.001647   0.006218   0.002004
  29 C      -1.902816 -10.161893   0.659763   -0.000546  -0.000299   0.001169
  30 H      -0.133051  -3.940812  -3.066125    0.001600   0.000759   0.006211
  31 H       2.577062  -4.006876  -1.111181   -0.006327   0.000475   0.000097
  32 H      -2.779541  -5.565499   0.328565    0.006074  -0.000950   0.000280
  33 H      -0.248423  -5.479808   2.498217   -0.001226  -0.001631  -0.006552
  34 H      -1.933246 -10.227870   2.743471    0.000818   0.000894  -0.006946
  35 H       2.673714  -9.056956   2.524171   -0.001694   0.000321  -0.006849
  36 H       3.839337  -7.767219  -0.346110   -0.004675  -0.004004   0.002301
  37 H      -1.431129 -12.047717  -0.027875   -0.001308   0.006313   0.001858
 
  no constraints, skipping   0.000000000000000E+000

@ Step       Energy      Delta E   Gmax     Grms     Xrms     Xmax   Walltime
@ ---- ---------------- -------- -------- -------- -------- -------- --------
@    0   -1017.33093818  0.0D+00  0.03500  0.00502  0.00000  0.00000   2254.0
                                                                    

  no constraints, skipping   0.000000000000000E+000
  no constraints, skipping   0.000000000000000E+000
  no constraints, skipping   0.000000000000000E+000
  no constraints, skipping   0.000000000000000E+000
  no constraints, skipping   0.000000000000000E+000
  no constraints, skipping   0.000000000000000E+000
  no constraints, skipping   0.000000000000000E+000
  no constraints, skipping   0.000000000000000E+000
 
                                 NWChem DFT Module
                                 -----------------
 
 
                                       der2
 
 
 
 
 solvent parameters
 solvname_short: chcl3   
 solvname_long:  chloroform                         
 dielec:        4.7113
 dielecinf:     2.0906

          ---------------
          -cosmo- solvent
          ---------------
 Cosmo: York-Karplus, doi: 10.1021/jp992097l
 dielectric constant -eps-     =   4.71
 screen = (eps-1)/(eps    )    =   0.78774
 surface charge correction     = lagrangian
 -lineq- algorithm             =   0
 -bem- low  level              =   2
 -bem- from -octahedral-
 gaussian surface charge width =   0.98000
 degree of switching           =   1.00000
 switching function tolerance  =   0.00010
 atomic radii = 
 --------------
    1  8.000  1.720
    2 15.000  2.106
    3  8.000  1.720
    4  8.000  1.720
    5  6.000  2.000
    6  6.000  2.000
    7  6.000  2.000
    8  6.000  2.000
    9  6.000  2.000
   10  6.000  2.000
   11  1.000  1.300
   12  1.000  1.300
   13  1.000  1.300
   14  1.000  1.300
   15  1.000  1.300
   16  1.000  1.300
   17  1.000  1.300
   18  1.000  1.300
   19  1.000  1.300
   20  1.000  1.300
   21  1.000  1.300
   22  1.000  1.300
   23  6.000  2.000
   24  6.000  2.000
   25  7.000  1.830
   26  6.000  2.000
   27  1.000  1.300
   28  1.000  1.300
   29  6.000  2.000
   30  1.000  1.300
   31  1.000  1.300
   32  1.000  1.300
   33  1.000  1.300
   34  1.000  1.300
   35  1.000  1.300
   36  1.000  1.300
   37  1.000  1.300

 solvent accessible surface
 --------------------------

 ---------- ATOMIC COORDINATES (A.U.) ------------ VDWR(ANG.) --
     1   -0.06828356   -1.42699200   -0.10418802     1.720
     2   -0.85080961    0.92215324   -2.05713009     2.106
     3    1.61630947    2.88116917   -2.01126614     1.720
     4   -2.46927597    2.64420802    0.02571193     1.720
     5    1.60656599    4.61161967    0.16077016     2.000
     6   -1.29442564    5.08001976    0.62157593     2.000
     7    2.92955083    3.31884207    2.38994496     2.000
     8    3.07744847    6.96447147   -0.61939556     2.000
     9   -2.42941750    7.04535649   -1.17732904     2.000
    10   -1.96671222    5.72454928    3.34961772     2.000
    11    3.17375272    4.64239095    3.97487575     1.300
    12    1.88055841    1.65738111    3.05432249     1.300
    13    4.81658209    2.69331443    1.77798646     1.300
    14    2.36856970    7.76505430   -2.39679237     1.300
    15    2.95434902    8.41976802    0.86307459     1.300
    16    5.08489371    6.48450310   -0.87609245     1.300
    17   -1.78848213    8.96625808   -0.70851832     1.300
    18   -1.93083014    6.64821421   -3.15659475     1.300
    19   -4.50123000    6.99519903   -1.00668694     1.300
    20   -1.00481901    7.47448395    3.93574072     1.300
    21   -4.01658368    6.03383870    3.51564857     1.300
    22   -1.43069003    4.20376149    4.65422206     1.300
    23    0.54483402   -3.87417228   -1.12764157     2.000
    24   -0.72890831   -5.88763087    0.49505219     2.000
    25   -0.09374768   -8.45878288   -0.30039766     1.830
    26    2.45812641   -9.19399273    0.45858077     2.000
    27   -3.84183080   -9.78507199    0.00238013     1.300
    28    2.87197663  -11.10961476   -0.24077570     1.300
    29   -1.93253508  -10.27447011    0.66865263     2.000
    30   -0.11472845   -4.03063989   -3.10235927     1.300
    31    2.61580869   -4.08471734   -1.12691656     1.300
    32   -2.78797038   -5.63719997    0.31949923     1.300
    33   -0.24115283   -5.54424144    2.51512078     1.300
    34   -1.97756412  -10.34881111    2.77252419     1.300
    35    2.70502231   -9.20048338    2.55008323     1.300
    36    3.87687641   -7.90863777   -0.34898237     1.300
    37   -1.47119009  -12.18300849   -0.02163570     1.300
 number of segments per atom =         32
 number of   points per atom =         32
 atom (   nspa,  nppa )
 ----------------------
    1 (     10,     0 )       0
    2 (     13,     0 )       0
    3 (     15,     0 )       0
    4 (     11,     0 )       0
    5 (      2,     0 )       0
    6 (      3,     0 )       0
    7 (     14,     0 )       0
    8 (     15,     0 )       0
    9 (     11,     0 )       0
   10 (     12,     0 )       0
   11 (     14,     0 )       0
   12 (     12,     0 )       0
   13 (     14,     0 )       0
   14 (     12,     0 )       0
   15 (     12,     0 )       0
   16 (     15,     0 )       0
   17 (     13,     0 )       0
   18 (     14,     0 )       0
   19 (     16,     0 )       0
   20 (     14,     0 )       0
   21 (     15,     0 )       0
   22 (     14,     0 )       0
   23 (     11,     0 )       0
   24 (      9,     0 )       0
   25 (      6,     0 )       0
   26 (     14,     0 )       0
   27 (     14,     0 )       0
   28 (     13,     0 )       0
   29 (     15,     0 )       0
   30 (     12,     0 )       0
   31 (     15,     0 )       0
   32 (     14,     0 )       0
   33 (     14,     0 )       0
   34 (     16,     0 )       0
   35 (     16,     0 )       0
   36 (     12,     0 )       0
   37 (     14,     0 )       0
 number of -cosmo- surface points =      466
 molecular surface =    283.022 angstrom**2
 molecular volume  =    155.065 angstrom**3
 G(cav/disp)       =      2.275 kcal/mol
 ...... end of -cosmo- initialization ......


  Caching 1-el integrals 
   Time after variat. SCF:   2263.5
   Time prior to 1st pass:   2263.5


         Total DFT energy =    -1017.337817038593
      One electron energy =    -3880.211424254864
           Coulomb energy =     1728.981177443146
    Exchange-Corr. energy =     -118.697815865989
 Nuclear repulsion energy =     1251.660554042452

             COSMO energy =        0.929691596662

 Numeric. integr. density =      127.999985979143

     Total iterative time =    508.4s


                                   COSMO solvation results
                                   -----------------------

                 gas phase energy =     -1017.329180208541
                 sol phase energy =     -1017.337817038593
 (electrostatic) solvation energy =         0.008636830052 (    5.42 kcal/mol)

     --------------------------
     Expectation value of S2:  
     --------------------------
      <S2> =      0.0000 (Exact =     0.0000)
 
 Line search: 
     step= 1.00 grad=-1.2D-02 hess= 5.5D-03 energy=  -1017.337817 mode=downhill
 new step= 1.13                   predicted energy=  -1017.337908
  no constraints, skipping   0.000000000000000E+000
  no constraints, skipping   0.000000000000000E+000
  no constraints, skipping   0.000000000000000E+000
  no constraints, skipping   0.000000000000000E+000
  no constraints, skipping   0.000000000000000E+000
  no constraints, skipping   0.000000000000000E+000
  no constraints, skipping   0.000000000000000E+000
  no constraints, skipping   0.000000000000000E+000

          --------
          Step   1
          --------
 
                                 NWChem DFT Module
                                 -----------------
 
 
                                       der2
 
 
 
 
 solvent parameters
 solvname_short: chcl3   
 solvname_long:  chloroform                         
 dielec:        4.7113
 dielecinf:     2.0906

          ---------------
          -cosmo- solvent
          ---------------
 Cosmo: York-Karplus, doi: 10.1021/jp992097l
 dielectric constant -eps-     =   4.71
 screen = (eps-1)/(eps    )    =   0.78774
 surface charge correction     = lagrangian
 -lineq- algorithm             =   0
 -bem- low  level              =   2
 -bem- from -octahedral-
 gaussian surface charge width =   0.98000
 degree of switching           =   1.00000
 switching function tolerance  =   0.00010
 atomic radii = 
 --------------
    1  8.000  1.720
    2 15.000  2.106
    3  8.000  1.720
    4  8.000  1.720
    5  6.000  2.000
    6  6.000  2.000
    7  6.000  2.000
    8  6.000  2.000
    9  6.000  2.000
   10  6.000  2.000
   11  1.000  1.300
   12  1.000  1.300
   13  1.000  1.300
   14  1.000  1.300
   15  1.000  1.300
   16  1.000  1.300
   17  1.000  1.300
   18  1.000  1.300
   19  1.000  1.300
   20  1.000  1.300
   21  1.000  1.300
   22  1.000  1.300
   23  6.000  2.000
   24  6.000  2.000
   25  7.000  1.830
   26  6.000  2.000
   27  1.000  1.300
   28  1.000  1.300
   29  6.000  2.000
   30  1.000  1.300
   31  1.000  1.300
   32  1.000  1.300
   33  1.000  1.300
   34  1.000  1.300
   35  1.000  1.300
   36  1.000  1.300
   37  1.000  1.300

 solvent accessible surface
 --------------------------

 ---------- ATOMIC COORDINATES (A.U.) ------------ VDWR(ANG.) --
     1   -0.06648845   -1.43222506   -0.10774365     1.720
     2   -0.85180897    0.92484274   -2.06576296     2.106
     3    1.62072842    2.89068215   -2.01686298     1.720
     4   -2.47339600    2.65093710    0.02398836     1.720
     5    1.60876631    4.62243790    0.15984651     2.000
     6   -1.29642619    5.09006632    0.62179312     2.000
     7    2.93364112    3.32743208    2.39026954     2.000
     8    3.08127324    6.97780005   -0.61957620     2.000
     9   -2.43419715    7.05800213   -1.17712301     2.000
    10   -1.97038537    5.73302576    3.35264425     2.000
    11    3.17825777    4.65062837    3.97849859     1.300
    12    1.88425319    1.66328840    3.05430157     1.300
    13    4.82308961    2.70188644    1.77740319     1.300
    14    2.37272782    7.78058062   -2.39875756     1.300
    15    2.95806217    8.43426088    0.86501491     1.300
    16    5.09126677    6.49799626   -0.87662243     1.300
[...]
   37 (     15,     0 )       0
 number of -cosmo- surface points =      466
 molecular surface =    282.086 angstrom**2
 molecular volume  =    154.728 angstrom**3
 G(cav/disp)       =      2.270 kcal/mol
 ...... end of -cosmo- initialization ......


 SCF residual:   1.751676992183972E-004

      ----------------------------------------------
      Calculating Paramagnetic Spin-Orbit Responses
      ----------------------------------------------

 
 solvent parameters
 solvname_short: chcl3   
 solvname_long:  chloroform                         
 dielec:        4.7113
 dielecinf:     2.0906

          ---------------
          -cosmo- solvent
          ---------------
 Cosmo: York-Karplus, doi: 10.1021/jp992097l
 dielectric constant -eps-     =   4.71
 screen = (eps-1)/(eps    )    =   0.78774
 surface charge correction     = lagrangian
 -lineq- algorithm             =   0
 -bem- low  level              =   2
 -bem- from -octahedral-
 gaussian surface charge width =   0.98000
 degree of switching           =   1.00000
 switching function tolerance  =   0.00010
 atomic radii = 
 --------------
    1  8.000  1.720
    2 15.000  2.106
    3  8.000  1.720
    4  8.000  1.720
    5  6.000  2.000
    6  6.000  2.000
    7  6.000  2.000
    8  6.000  2.000
    9  6.000  2.000
   10  6.000  2.000
   11  1.000  1.300
   12  1.000  1.300
   13  1.000  1.300
   14  1.000  1.300
   15  1.000  1.300
   16  1.000  1.300
   17  1.000  1.300
   18  1.000  1.300
   19  1.000  1.300
   20  1.000  1.300
   21  1.000  1.300
   22  1.000  1.300
   23  6.000  2.000
   24  6.000  2.000
   25  7.000  1.830
   26  6.000  2.000
   27  1.000  1.300
   28  1.000  1.300
   29  6.000  2.000
   30  1.000  1.300
   31  1.000  1.300
   32  1.000  1.300
   33  1.000  1.300
   34  1.000  1.300
   35  1.000  1.300
   36  1.000  1.300
   37  1.000  1.300

 solvent accessible surface
 --------------------------

 ---------- ATOMIC COORDINATES (A.U.) ------------ VDWR(ANG.) --
     1    1.10120007   -1.42634881   -0.08661499     1.720
     2   -0.27513263    0.73707276   -1.99189621     2.106
     3    1.86475424    3.08685756   -2.06972232     1.720
     4   -2.04535126    2.20165452    0.21786742     1.720
     5    1.66094893    4.79790938    0.10947346     2.000
     6   -1.24592973    4.81021327    0.69565334     2.000
     7    3.26687541    3.72747389    2.27021006     2.000
     8    2.70651798    7.34773847   -0.73978600     2.000
     9   -2.76121367    6.51858470   -1.08746374     2.000
    10   -1.89551367    5.40156723    3.44347992     2.000
    11    3.40360151    5.08576708    3.83842280     1.300
    12    2.49366674    1.94261002    2.98890927     1.300
    13    5.18652090    3.36297293    1.55966399     1.300
    14    1.81370409    7.99755133   -2.49564950     1.300
    15    2.39977222    8.78066335    0.73771999     1.300
    16    4.75421844    7.19366078   -1.06718747     1.300
    17   -2.45087174    8.52908450   -0.66028231     1.300
    18   -2.25783629    6.18291583   -3.07659885     1.300
    19   -4.78509711    6.10774921   -0.85042464     1.300
    20   -1.19510178    7.29154274    3.96102036     1.300
    21   -3.95956006    5.38951510    3.69400180     1.300
    22   -1.07489646    4.00754973    4.74183220     1.300
    23    1.33620883   -3.97637286   -1.01347387     2.000
    24   -0.40791790   -5.71141288    0.49748551     2.000
    25   -0.20733923   -8.34869019   -0.30785940     1.830
    26    2.05644509   -9.57570724    0.68465408     2.000
    27   -4.14539521   -8.92004524   -0.47695116     1.300
    28    2.19976519  -11.50566736   -0.07947272     1.300
    29   -2.45859707   -9.78640017    0.37773035     2.000
    30    0.84916436   -4.08359577   -3.03979021     1.300
    31    3.33411484   -4.51478473   -0.80617919     1.300
    32   -2.36501329   -5.07635998    0.18081214     1.300
    33   -0.01531753   -5.46998763    2.55114196     1.300
    34   -2.76519606   -9.89564670    2.45787506     1.300
    35    2.04942719   -9.70867187    2.78619305     1.300
    36    3.76536942   -8.53970043    0.11675301     1.300
    37   -2.29095707  -11.73317302   -0.33886522     1.300
 number of segments per atom =         32
 number of   points per atom =         32
 atom (   nspa,  nppa )
 ----------------------
    1 (      9,     0 )       0
    2 (     14,     0 )       0
    3 (     12,     0 )       0
    4 (     11,     0 )       0
    5 (      2,     0 )       0
    6 (      3,     0 )       0
    7 (     12,     0 )       0
    8 (     13,     0 )       0
    9 (     14,     0 )       0
   10 (     14,     0 )       0
   11 (     13,     0 )       0
   12 (     11,     0 )       0
   13 (     13,     0 )       0
   14 (     11,     0 )       0
   15 (     15,     0 )       0
   16 (     16,     0 )       0
   17 (     14,     0 )       0
   18 (     14,     0 )       0
   19 (     15,     0 )       0
   20 (     14,     0 )       0
   21 (     15,     0 )       0
   22 (     13,     0 )       0
   23 (     13,     0 )       0
   24 (     10,     0 )       0
   25 (      5,     0 )       0
   26 (     14,     0 )       0
   27 (     13,     0 )       0
   28 (     14,     0 )       0
   29 (     15,     0 )       0
   30 (     13,     0 )       0
   31 (     13,     0 )       0
   32 (     13,     0 )       0
   33 (     16,     0 )       0
   34 (     16,     0 )       0
   35 (     16,     0 )       0
   36 (     12,     0 )       0
   37 (     15,     0 )       0
 number of -cosmo- surface points =      466
 molecular surface =    282.086 angstrom**2
 molecular volume  =    154.728 angstrom**3
 G(cav/disp)       =      2.270 kcal/mol
 ...... end of -cosmo- initialization ......


 SCF residual:   1.751676992172254E-004

      ----------------------------------
      Indirect Spin-Spin Tensors (in Hz)
      ----------------------------------

      -------------------------------------------------
      Atom    2:  31-P  and Atom   23:  13-C 

      Respective Nuclear g-factors: 2.263200 & 1.404822
      -------------------------------------------------

      Fermi Contact (FC) Term (Hz):
     40.0983      0.0000      0.0000
      0.0000     40.0983      0.0000
      0.0000      0.0000     40.0983
        Isotropic =      40.0983

      Spin-Dipole   (SD) Term (Hz):
      0.1437      0.2223     -0.0822
     -0.0630      0.0222     -0.3115
     -0.1002      0.3227      0.0066
        Isotropic =       0.0575

      FC - SD  Cross Term (Hz):
     -0.6346     -1.2539      2.0108
     -1.2539     -0.5857     -3.9742
      2.0108     -3.9742      1.2203
        Isotropic =      -0.0000

      Paramagnetic Spin-Orbit Term (Hz):
     -1.6045     -0.2072      0.9559
     -0.0525     -1.5119      0.2290
      0.9324     -1.1432     -0.1718
        Isotropic =      -1.0961

      Diamagnetic Spin-Orbit Term (Hz):
     -0.5091     -0.7558      0.2042
     -0.8714      1.3938     -0.6745
      0.1097     -0.3279     -0.7439
        Isotropic =       0.0469

      Total Spin-Spin Coupling Tensor (Hz):
     37.4938     -1.9945      3.0888
     -2.2408     39.4166     -4.7312
      2.9527     -5.1226     40.4094


      Isotropic Spin-Spin Coupling =      39.1066 Hz



      -------------------------------------------------
      Atom    2:  31-P  and Atom   30:   1-H 

      Respective Nuclear g-factors: 2.263200 & 5.585689
      -------------------------------------------------

      Fermi Contact (FC) Term (Hz):
     15.2998      0.0000      0.0000
      0.0000     15.2998      0.0000
      0.0000      0.0000     15.2998
        Isotropic =      15.2998

      Spin-Dipole   (SD) Term (Hz):
      0.0356      0.2281     -0.3393
      0.2738     -0.5249     -0.0906
     -0.3906      0.0281     -0.3710
        Isotropic =      -0.2867

      FC - SD  Cross Term (Hz):
     -1.3615     -3.3666      3.9337
     -3.3666     -2.4022     -6.1733
      3.9337     -6.1733      3.7637
        Isotropic =       0.0000

      Paramagnetic Spin-Orbit Term (Hz):
      1.9383      0.5689      0.2993
      1.5022     -4.9986     -2.2989
      0.6781     -3.8873      0.9234
        Isotropic =      -0.7123

      Diamagnetic Spin-Orbit Term (Hz):
     -1.5190     -1.4267     -0.3052
     -1.9678      5.1929      1.0127
     -0.8555      2.8681     -1.9225
        Isotropic =       0.5838

      Total Spin-Spin Coupling Tensor (Hz):
     14.3933     -3.9964      3.5886
     -3.5584     12.5671     -7.5501
      3.3657     -7.1644     17.6935


      Isotropic Spin-Spin Coupling =      14.8846 Hz



      -------------------------------------------------
      Atom    2:  31-P  and Atom   31:   1-H 

      Respective Nuclear g-factors: 2.263200 & 5.585689
      -------------------------------------------------

      Fermi Contact (FC) Term (Hz):
     11.5263      0.0000      0.0000
      0.0000     11.5263      0.0000
      0.0000      0.0000     11.5263
        Isotropic =      11.5263

      Spin-Dipole   (SD) Term (Hz):
      0.1281      0.0927      0.3989
     -0.1255      0.1476     -0.3247
     -0.3238      0.2890     -0.2292
        Isotropic =       0.0155

      FC - SD  Cross Term (Hz):
      0.8339      1.8388      0.4732
      1.8388     -2.4372     -2.8560
      0.4732     -2.8560      1.6033
        Isotropic =       0.0000

      Paramagnetic Spin-Orbit Term (Hz):
     -0.3584      1.9970      0.6978
      2.3416     -1.7951     -0.2741
     -0.1650     -0.0777      1.2943
        Isotropic =      -0.2864

      Diamagnetic Spin-Orbit Term (Hz):
     -0.1120     -2.7874      0.9372
     -2.1362      0.8937     -1.1074
      0.3780     -0.5076     -1.7403
        Isotropic =      -0.3195

      Total Spin-Spin Coupling Tensor (Hz):
     12.0179      1.1410      2.5071
      1.9187      8.3353     -4.5621
      0.3624     -3.1522     12.4543


      Isotropic Spin-Spin Coupling =      10.9358 Hz




          -----------------------------------------
          Chemical Shielding Tensors (GIAO, in ppm)
          -----------------------------------------

 
 solvent parameters
 solvname_short: chcl3   
 solvname_long:  chloroform                         
 dielec:        4.7113
 dielecinf:     2.0906

          ---------------
          -cosmo- solvent
          ---------------
 Cosmo: York-Karplus, doi: 10.1021/jp992097l
 dielectric constant -eps-     =   4.71
 screen = (eps-1)/(eps    )    =   0.78774
 surface charge correction     = lagrangian
 -lineq- algorithm             =   0
 -bem- low  level              =   2
 -bem- from -octahedral-
 gaussian surface charge width =   0.98000
 degree of switching           =   1.00000
 switching function tolerance  =   0.00010
 atomic radii = 
 --------------
    1  8.000  1.720
    2 15.000  2.106
    3  8.000  1.720
    4  8.000  1.720
    5  6.000  2.000
    6  6.000  2.000
    7  6.000  2.000
    8  6.000  2.000
    9  6.000  2.000
   10  6.000  2.000
   11  1.000  1.300
   12  1.000  1.300
   13  1.000  1.300
   14  1.000  1.300
   15  1.000  1.300
   16  1.000  1.300
   17  1.000  1.300
   18  1.000  1.300
   19  1.000  1.300
   20  1.000  1.300
   21  1.000  1.300
   22  1.000  1.300
   23  6.000  2.000
   24  6.000  2.000
   25  7.000  1.830
   26  6.000  2.000
   27  1.000  1.300
   28  1.000  1.300
   29  6.000  2.000
   30  1.000  1.300
   31  1.000  1.300
   32  1.000  1.300
   33  1.000  1.300
   34  1.000  1.300
   35  1.000  1.300
   36  1.000  1.300
   37  1.000  1.300

 solvent accessible surface
 --------------------------

 ---------- ATOMIC COORDINATES (A.U.) ------------ VDWR(ANG.) --
     1    1.10120007   -1.42634881   -0.08661499     1.720
     2   -0.27513263    0.73707276   -1.99189621     2.106
     3    1.86475424    3.08685756   -2.06972232     1.720
     4   -2.04535126    2.20165452    0.21786742     1.720
     5    1.66094893    4.79790938    0.10947346     2.000
     6   -1.24592973    4.81021327    0.69565334     2.000
     7    3.26687541    3.72747389    2.27021006     2.000
     8    2.70651798    7.34773847   -0.73978600     2.000
     9   -2.76121367    6.51858470   -1.08746374     2.000
    10   -1.89551367    5.40156723    3.44347992     2.000
    11    3.40360151    5.08576708    3.83842280     1.300
    12    2.49366674    1.94261002    2.98890927     1.300
    13    5.18652090    3.36297293    1.55966399     1.300
    14    1.81370409    7.99755133   -2.49564950     1.300
    15    2.39977222    8.78066335    0.73771999     1.300
    16    4.75421844    7.19366078   -1.06718747     1.300
    17   -2.45087174    8.52908450   -0.66028231     1.300
    18   -2.25783629    6.18291583   -3.07659885     1.300
    19   -4.78509711    6.10774921   -0.85042464     1.300
    20   -1.19510178    7.29154274    3.96102036     1.300
    21   -3.95956006    5.38951510    3.69400180     1.300
    22   -1.07489646    4.00754973    4.74183220     1.300
    23    1.33620883   -3.97637286   -1.01347387     2.000
    24   -0.40791790   -5.71141288    0.49748551     2.000
    25   -0.20733923   -8.34869019   -0.30785940     1.830
    26    2.05644509   -9.57570724    0.68465408     2.000
    27   -4.14539521   -8.92004524   -0.47695116     1.300
    28    2.19976519  -11.50566736   -0.07947272     1.300
    29   -2.45859707   -9.78640017    0.37773035     2.000
    30    0.84916436   -4.08359577   -3.03979021     1.300
    31    3.33411484   -4.51478473   -0.80617919     1.300
    32   -2.36501329   -5.07635998    0.18081214     1.300
    33   -0.01531753   -5.46998763    2.55114196     1.300
    34   -2.76519606   -9.89564670    2.45787506     1.300
    35    2.04942719   -9.70867187    2.78619305     1.300
    36    3.76536942   -8.53970043    0.11675301     1.300
    37   -2.29095707  -11.73317302   -0.33886522     1.300
 number of segments per atom =         32
 number of   points per atom =         32
 atom (   nspa,  nppa )
 ----------------------
    1 (      9,     0 )       0
    2 (     14,     0 )       0
    3 (     12,     0 )       0
    4 (     11,     0 )       0
    5 (      2,     0 )       0
    6 (      3,     0 )       0
    7 (     12,     0 )       0
    8 (     13,     0 )       0
    9 (     14,     0 )       0
   10 (     14,     0 )       0
   11 (     13,     0 )       0
   12 (     11,     0 )       0
   13 (     13,     0 )       0
   14 (     11,     0 )       0
   15 (     15,     0 )       0
   16 (     16,     0 )       0
   17 (     14,     0 )       0
   18 (     14,     0 )       0
   19 (     15,     0 )       0
   20 (     14,     0 )       0
   21 (     15,     0 )       0
   22 (     13,     0 )       0
   23 (     13,     0 )       0
   24 (     10,     0 )       0
   25 (      5,     0 )       0
   26 (     14,     0 )       0
   27 (     13,     0 )       0
   28 (     14,     0 )       0
   29 (     15,     0 )       0
   30 (     13,     0 )       0
   31 (     13,     0 )       0
   32 (     13,     0 )       0
   33 (     16,     0 )       0
   34 (     16,     0 )       0
   35 (     16,     0 )       0
   36 (     12,     0 )       0
   37 (     15,     0 )       0
 number of -cosmo- surface points =      466
 molecular surface =    282.086 angstrom**2
 molecular volume  =    154.728 angstrom**3
 G(cav/disp)       =      2.270 kcal/mol
 ...... end of -cosmo- initialization ......


 SCF residual:   1.751676992308690E-004

 Wrote CPHF data to ./molecule.shieldcphf

 Calc. par tensor-> nonrel
      Atom:    1  P 
        Diamagnetic
    968.8883     -1.2786     -0.7364
     -1.2786    979.0067      0.3581
     -0.7364      0.3581    968.2219

        Paramagnetic
   -775.5690     11.1276     68.9861
     11.1276   -845.1912      1.2956
     68.9861      1.2956   -688.4132

        Total Shielding Tensor
    193.3193      9.8490     68.2497
      9.8490    133.8155      1.6537
     68.2497      1.6537    279.8087

           isotropic =     202.3145
          anisotropy =     172.8836

          Principal Components and Axis System
                 1           2           3
              317.5702    158.2527    131.1206

      1         0.4832      0.8294     -0.2805
      2         0.0338      0.3025      0.9526
      3         0.8748     -0.4698      0.1181



 
 
                                NWChem Input Module
                                -------------------
 
 
 
 
                                     CITATION
                                     --------
                Please cite the following reference when publishing
                           results obtained with NWChem:
 
          E. Apra, E. J. Bylaska, W. A. de Jong, N. Govind, K. Kowalski,
       T. P. Straatsma, M. Valiev, H. J. J. van Dam, Y. Alexeev, J. Anchell,
       V. Anisimov, F. W. Aquino, R. Atta-Fynn, J. Autschbach, N. P. Bauman,
     J. C. Becca, D. E. Bernholdt, K. Bhaskaran-Nair, S. Bogatko, P. Borowski,
         J. Boschen, J. Brabec, A. Bruner, E. Cauet, Y. Chen, G. N. Chuev,
      C. J. Cramer, J. Daily, M. J. O. Deegan, T. H. Dunning Jr., M. Dupuis,
   K. G. Dyall, G. I. Fann, S. A. Fischer, A. Fonari, H. Fruchtl, L. Gagliardi,
      J. Garza, N. Gawande, S. Ghosh, K. Glaesemann, A. W. Gotz, J. Hammond,
       V. Helms, E. D. Hermes, K. Hirao, S. Hirata, M. Jacquelin, L. Jensen,
   B. G. Johnson, H. Jonsson, R. A. Kendall, M. Klemm, R. Kobayashi, V. Konkov,
      S. Krishnamoorthy, M. Krishnan, Z. Lin, R. D. Lins, R. J. Littlefield,
      A. J. Logsdail, K. Lopata, W. Ma, A. V. Marenich, J. Martin del Campo,
   D. Mejia-Rodriguez, J. E. Moore, J. M. Mullin, T. Nakajima, D. R. Nascimento,
    J. A. Nichols, P. J. Nichols, J. Nieplocha, A. Otero-de-la-Roza, B. Palmer,
    A. Panyala, T. Pirojsirikul, B. Peng, R. Peverati, J. Pittner, L. Pollack,
   R. M. Richard, P. Sadayappan, G. C. Schatz, W. A. Shelton, D. W. Silverstein,
   D. M. A. Smith, T. A. Soares, D. Song, M. Swart, H. L. Taylor, G. S. Thomas,
            V. Tipparaju, D. G. Truhlar, K. Tsemekhman, T. Van Voorhis,
      A. Vazquez-Mayagoitia, P. Verma, O. Villa, A. Vishnu, K. D. Vogiatzis,
        D. Wang, J. H. Weare, M. J. Williamson, T. L. Windus, K. Wolinski,
        A. T. Wong, Q. Wu, C. Yang, Q. Yu, M. Zacharias, Z. Zhang, Y. Zhao,
                                and R. J. Harrison
                        "NWChem: Past, present, and future
                         J. Chem. Phys. 152, 184102 (2020)
                               doi:10.1063/5.0004997
 
                                      AUTHORS
                                      -------
     E. Apra, E. J. Bylaska, N. Govind, K. Kowalski, M. Valiev, W. A. de Jong,
      T. P. Straatsma, H. J. J. van Dam, D. Wang, T. L. Windus, N. P. Bauman,
       A. Panyala, J. Hammond, J. Autschbach, K. Bhaskaran-Nair, J. Brabec,
    K. Lopata, S. A. Fischer, S. Krishnamoorthy, M. Jacquelin, W. Ma, M. Klemm,
       O. Villa, Y. Chen, V. Anisimov, F. Aquino, S. Hirata, M. T. Hackler,
           Eric Hermes, L. Jensen, J. E. Moore, J. C. Becca, V. Konjkov,
            D. Mejia-Rodriguez, T. Risthaus, M. Malagoli, A. Marenich,
   A. Otero-de-la-Roza, J. Mullin, P. Nichols, R. Peverati, J. Pittner, Y. Zhao,
        P.-D. Fan, A. Fonari, M. J. Williamson, R. J. Harrison, J. R. Rehr,
      M. Dupuis, D. Silverstein, D. M. A. Smith, J. Nieplocha, V. Tipparaju,
      M. Krishnan, B. E. Van Kuiken, A. Vazquez-Mayagoitia, M. Swart, Q. Wu,
   T. Van Voorhis, A. A. Auer, M. Nooijen, L. D. Crosby, E. Brown, G. Cisneros,
     G. I. Fann, H. Fruchtl, J. Garza, K. Hirao, R. A. Kendall, J. A. Nichols,
       K. Tsemekhman, K. Wolinski, J. Anchell, D. E. Bernholdt, P. Borowski,
       T. Clark, D. Clerc, H. Dachsel, M. J. O. Deegan, K. Dyall, D. Elwood,
      E. Glendening, M. Gutowski, A. C. Hess, J. Jaffe, B. G. Johnson, J. Ju,
        R. Kobayashi, R. Kutteh, Z. Lin, R. Littlefield, X. Long, B. Meng,
      T. Nakajima, S. Niu, L. Pollack, M. Rosing, K. Glaesemann, G. Sandrone,
      M. Stave, H. Taylor, G. Thomas, J. H. van Lenthe, A. T. Wong, Z. Zhang.

 Total times  cpu:    98567.4s     wall:    99717.5s
