ITEM: TIMESTEP
0
ITEM: NUMBER OF ATOMS
576
ITEM: BOX BOUNDS pp pp pp
-3.1662119372314077e+00 2.3751789648828723e+01
2.4397297797306008e+00 1.8145847931862118e+01
1.5469184683713184e+00 1.9038659243222867e+01
ITEM: ATOMS id type q x y z
366 2 -0.965983 0.607867 4.41596 5.38715
470 1 1.8525 2.70071 7.96002 5.95622
315 2 -0.984294 -0.605011 6.50308 4.56756
290 1 1.9739 -2.09717 6.03166 4.90153
474 2 -0.930865 2.15657 9.19111 4.96514
175 2 -0.936155 1.48058 6.88593 6.00446
377 2 -0.955256 0.318674 8.9799 3.08445
75 1 1.94972 0.824408 5.93773 4.90461
402 2 -0.938603 -1.12579 4.30689 8.51578
488 1 1.96332 -2.02274 5.48894 7.90656
360 2 -0.993084 1.89439 5.87854 3.74678
220 2 -0.91009 1.47118 4.40196 8.24468
408 1 1.87206 2.83688 5.26113 2.59149
46 1 1.91305 0.253768 3.61959 8.9227
124 2 -1.01304 -2.22609 5.37825 6.31794
210 1 1.88252 -1.88956 8.27211 8.91226
38 1 1.91074 2.16016 8.87596 8.73827
314 2 -0.918201 3.03582 8.48857 7.40879
419 2 -0.982745 -1.38525 6.88961 8.25876
306 2 -0.887278 -1.76074 9.3524 7.71013
401 2 -0.913647 1.77439 7.61259 9.66296
118 1 1.85048 0.747635 9.73945 4.41702
201 1 1.78424 3.09504 4.16025 8.16133
364 2 -0.947288 0.819009 9.54249 8.10662
231 2 -0.900494 -0.324572 9.52348 5.57055
60 2 -0.928163 -0.174887 3.04437 3.23029
352 1 1.81825 0.547077 2.99718 4.67253
168 2 -0.939105 3.05586 9.79544 9.61052
536 2 -0.917137 -2.55106 4.74127 4.00981
123 2 -0.897849 1.82896 4.22043 1.84469
380 1 1.81342 -0.392677 9.99556 7.12856
300 1 1.80116 0.31412 3.56916 1.78016
432 2 -0.94208 -0.0984643 6.92899 1.69351
484 2 -0.865981 3.5388 3.32865 6.8575
249 2 -0.990239 2.03926 2.61236 4.35997
40 2 -0.951592 3.49694 3.47465 9.55587
199 1 1.8564 0.325131 8.49333 1.56927
50 2 -0.904787 3.30745 6.53119 1.62591
404 2 -0.924487 -2.89613 7.4 4.81827
392 2 -0.915027 -1.09241 8.64567 10.282
550 1 1.87666 6.8961 3.9958 9.65574
311 2 -0.879485 9.32988 8.08926 4.97001
173 1 1.89273 5.71078 4.65003 3.55218
228 1 1.79327 5.24622 9.87046 2.14623
464 2 -0.916888 8.75481 6.15359 2.14524
553 2 -0.955202 5.87356 6.89112 6.88583
289 1 1.84177 9.71501 8.93781 3.67791
186 2 -0.936763 8.76451 2.52231 4.45409
57 1 1.91876 9.68624 7.9787 6.60706
558 2 -0.939594 8.48675 4.00486 9.91933
131 2 -0.941597 8.2062 4.26425 6.22047
498 1 1.98643 5.54449 7.13985 5.35693
111 1 1.78565 7.82646 9.60063 8.63134
324 2 -0.90439 3.903 9.00591 2.44332
381 1 1.89512 10.0565 3.82357 9.58545
422 2 -0.949464 6.32671 4.99224 8.55929
273 1 1.97229 9.46954 5.07217 6.79678
476 2 -0.873777 3.82939 5.60845 7.96634
411 2 -0.972102 3.92276 7.21853 5.30551
180 2 -0.957175 6.14843 8.62926 5.14153
107 2 -0.970922 9.12848 6.55568 7.09504
278 2 -0.974239 5.13463 7.22273 9.46409
239 2 -0.928001 4.14734 4.52155 3.14142
227 1 1.88428 7.58197 2.98821 5.43213
493 2 -0.875225 6.26361 3.51162 4.58576
256 2 -0.949505 6.05559 6.08128 4.30508
373 2 -0.975115 6.57376 4.63789 2.21085
35 2 -0.943356 8.54338 9.19692 2.59164
236 1 1.87535 5.32082 6.22996 8.23241
501 2 -0.898058 8.92314 9.06019 7.48433
420 2 -0.924989 7.36494 8.38242 9.58885
163 1 1.76938 6.22498 10.1706 5.03321
27 2 -0.922552 6.48739 2.46435 9.41678
13 2 -0.989068 10.0587 4.27436 8.03297
497 1 1.7687 10.278 6.64913 1.86954
529 2 -0.94652 6.33173 8.84189 1.57616
570 1 1.90337 12.8671 5.60971 2.64221
91 1 1.93665 12.4031 7.74224 7.92905
162 2 -0.917055 12.824 5.45146 4.19688
370 1 1.81137 11.9202 4.41855 5.09301
170 2 -0.954922 13.5881 6.89905 7.32485
296 2 -0.902046 15.0883 5.35733 5.86388
405 2 -0.917685 15.7866 7.95511 6.33075
136 1 1.84833 15.1403 6.64526 6.89563
357 2 -0.888175 15.921 6.0185 8.13689
295 2 -0.873154 15.7354 8.0306 3.71768
45 2 -0.934842 12.8943 9.10844 8.622
479 1 1.88268 14.4591 3.85435 6.24925
171 2 -0.940606 12.8732 3.9046 6.23515
382 2 -0.985789 11.2279 8.0992 6.87373
112 2 -0.948168 11.6854 6.84817 9.09654
59 2 -0.878745 15.9254 3.94569 3.0889
487 1 1.83163 15.9669 4.48031 8.71769
104 2 -0.962216 15.0593 3.61169 7.72036
320 2 -0.926813 11.3195 3.19154 4.21698
43 2 -0.954942 13.3289 7.0987 2.28156
55 1 1.76233 16.2271 7.88441 2.17727
155 1 1.79797 16.6867 8.3003 5.06521
284 2 -0.900159 11.3268 5.42712 2.11986
49 2 -0.934665 16.4837 6.32449 1.82169
5 2 -0.94391 10.6084 5.18987 5.6482
446 2 -0.907096 10.6031 7.91715 2.82631
468 2 -0.956914 14.8796 2.84392 5.14688
84 1 1.84961 16.0824 2.6985 4.12031
418 2 -0.957276 13.2884 2.81145 9.99218
492 2 -0.95618 13.6314 4.51316 1.79374
549 2 -0.901781 16.9206 9.94997 5.12101
232 2 -0.943254 15.2942 4.51067 10.1777
257 2 -0.935855 19.5005 2.5268 2.93536
179 2 -0.829306 20.4735 4.60192 1.65758
198 2 -0.945559 22.8978 8.50854 2.748
126 2 -0.910031 21.9553 4.25868 4.36547
342 2 -0.916835 17.5523 2.64671 4.81103
330 2 -0.881121 23.6576 10.2303 4.59791
48 1 1.7927 20.3207 6.30268 1.64124
302 2 -0.891889 20.9381 9.09398 9.12399
268 2 -0.877288 19.9394 5.59136 5.45514
417 1 1.70617 18.8928 9.66028 2.63235
374 2 -0.920015 21.7161 8.61279 5.26438
4 2 -0.910727 21.6461 4.42516 7.00763
36 2 -0.994922 21.1121 4.85967 9.49178
237 1 1.70389 17.0621 4.93076 2.36947
137 1 1.8974 21.8581 5.4722 8.26043
120 1 1.82148 23.3354 3.53906 3.8013
509 2 -0.930411 17.9633 7.33077 4.9681
214 2 -0.918508 19.0713 7.35229 8.96904
331 2 -0.565119 20.0712 9.22851 1.67454
260 2 -0.952612 21.3719 6.93793 7.81424
61 2 -0.93075 23.4453 5.43513 8.63921
530 2 -0.913905 17.5158 8.89722 2.20945
158 2 -0.957827 18.1325 5.10382 3.61768
436 2 -0.911058 19.7839 8.97002 6.83864
574 2 -0.895756 19.3708 9.24794 4.14233
159 2 -0.972542 23.5187 8.28429 9.35808
354 1 1.88379 20.3572 9.49098 5.43185
425 1 1.86779 20.9183 4.25491 5.62284
110 1 1.88087 20.2463 8.07827 8.09927
542 1 1.88053 22.336 9.03778 10.102
16 2 -0.939625 19.9691 3.00997 5.54753
242 2 -0.964248 19.9905 6.73394 3.13749
332 2 -0.848186 23.1369 2.92848 2.23657
146 1 1.79186 19.017 6.27154 4.31471
531 2 -0.929483 17.3979 3.84028 8.68824
507 1 1.76892 23.068 8.6767 4.41836
391 2 -0.945756 1.81833 13.2155 8.53902
274 2 -0.912835 0.336749 15.3085 7.59281
156 1 1.90949 1.78673 12.0438 2.92246
575 2 -0.909367 -0.337847 14.3903 4.51312
299 1 1.85709 0.55778 16.8457 7.14084
554 2 -0.929626 2.20128 16.8315 6.93504
3 1 1.86252 -1.52516 12.6957 7.59341
250 2 -0.903894 -0.768542 13.3611 8.85355
29 1 1.95345 -1.87701 13.9764 4.84264
53 2 -1.03538 1.9308 15.7877 4.0641
307 1 1.9468 0.762142 14.9339 3.44192
140 2 -0.998453 -1.94373 13.6745 6.40047
144 2 -0.919319 0.81443 11.3021 3.92682
386 2 -0.904686 -0.523124 11.6105 6.99216
190 1 1.85419 0.572796 14.2254 8.81087
350 2 -0.928892 1.33242 13.6082 2.77813
208 1 1.97489 2.88891 17.031 3.94339
211 2 -0.882662 2.97868 12.8866 6.14815
94 2 -0.941621 -0.158104 15.6934 2.32925
70 2 -0.958692 3.20877 11.9328 3.59696
442 1 1.89826 3.16193 13.1242 7.72728
189 2 -0.873493 0.0144163 17.4989 5.7598
221 2 -0.944322 -2.18904 12.632 3.98406
224 2 -0.972651 -2.30983 10.703 2.22034
86 2 -0.93888 -2.83055 15.1733 4.45254
116 2 -0.940469 -2.55243 16.6806 9.31359
196 2 -0.942792 -2.94654 12.1574 8.01703
212 2 -0.953489 0.201579 17.8453 8.31971
481 2 -0.94654 0.819066 15.0467 10.1444
76 2 -0.925337 -3.02554 16.3794 6.76301
344 1 1.84888 -3.01002 11.3591 3.47465
448 2 -1.00914 3.54273 17.1755 2.51969
197 2 -0.909658 -3.12851 17.9254 4.60987
517 2 -0.924749 6.45056 10.3357 8.18737
106 2 -0.932753 3.97121 16.9513 5.13937
176 2 -0.948562 6.35052 15.1893 7.28802
439 2 -0.876733 5.99845 10.5641 3.45557
226 1 1.87651 5.15888 15.5036 8.30017
523 1 1.8115 3.6681 17.3793 6.63479
414 2 -0.990026 5.02011 13.4596 4.79405
277 2 -0.949349 8.66531 10.6494 9.54302
65 1 1.85842 5.87152 11.8564 8.32088
413 2 -0.947897 6.64836 15.4639 4.68016
526 2 -0.877547 7.61344 10.8144 5.58345
73 1 1.76311 7.56862 16.1231 1.97628
252 2 -0.897937 8.66147 15.2396 6.37482
166 2 -0.96222 3.91944 14.5463 7.92335
337 2 -0.932555 7.4584 13.1288 4.64579
34 2 -0.928057 9.13592 14.2156 8.86207
540 2 -0.926252 8.39614 14.9217 2.6332
71 2 -0.940774 5.77276 15.6423 9.77666
496 1 1.77754 10.1395 11.1269 9.96454
499 2 -0.920873 6.14897 16.8708 2.25581
365 2 -0.934678 4.5924 16.956 7.88455
453 1 1.76652 7.86243 12.3773 6.02761
431 2 -0.895032 9.28136 12.8784 6.60254
491 2 -0.909606 10.1109 12.9264 3.2664
449 2 -0.960116 5.99555 13.8118 2.4772
438 2 -0.876952 4.8241 10.9578 5.55598
14 2 -0.929897 4.30609 12.0384 8.10311
335 1 1.94617 6.2682 13.9846 4.03386
506 1 1.7949 3.99537 12.2592 4.9868
336 1 1.88187 7.17787 15.8605 6.11323
421 2 -0.960177 7.14822 17.4573 6.31003
26 2 -0.910888 6.17124 12.492 9.83894
410 2 -0.939237 6.81821 12.59 7.25934
460 1 1.88161 9.56505 13.9109 2.11263
11 1 1.79381 9.64171 14.2699 7.30528
72 2 -0.900987 15.3686 15.7746 6.29921
191 1 1.88314 14.2221 14.9312 5.60386
304 2 -0.941979 13.8801 13.5587 6.36381
67 2 -0.900539 12.8596 15.7909 5.62653
384 2 -0.920204 12.1855 12.3765 4.80887
533 1 1.89315 13.4217 12.136 5.82177
238 2 -0.947908 14.5553 14.4244 4.09694
12 1 1.77245 11.8137 16.3226 6.74531
58 2 -0.939822 12.534 17.237 7.84266
235 1 1.85181 14.1981 14.5129 2.54577
451 1 1.84578 16.2795 11.4175 5.2175
423 2 -0.922654 14.6666 11.4308 5.07583
412 2 -0.892991 16.1077 15.0451 8.79454
200 1 1.92451 11.4519 16.1252 2.35256
167 2 -0.881768 11.1195 14.9302 7.35442
327 1 1.75172 11.2183 11.7573 3.68618
372 1 1.88144 12.2536 17.4725 9.34784
387 2 -0.954409 16.1277 17.1251 3.12826
80 2 -0.932084 12.9288 15.5533 2.59398
441 2 -0.921083 12.1168 11.3394 2.31846
103 2 -0.958419 13.3974 11.5673 9.69821
303 2 -0.894218 13.1801 11.2009 7.15299
2 1 1.81468 16.6357 15.6738 7.37931
456 2 -0.890587 10.6354 17.2915 6.12209
532 1 1.81408 16.6711 13.8905 9.90238
426 1 1.83043 12.6352 10.7196 8.57047
403 2 -0.933653 10.6196 16.4057 3.69062
527 2 -0.899262 11.0194 11.0796 8.63901
157 2 -0.908322 16.7015 12.0865 6.64436
473 2 -0.907899 12.4027 16.0336 10.0776
561 1 1.90584 15.7679 16.7917 1.62277
400 2 -0.9301 15.3333 15.2371 1.6494
471 1 1.80496 10.3117 17.7116 4.56642
6 2 -0.939068 13.7875 13.2521 1.59616
482 2 -0.965393 10.7387 14.909 1.65076
188 2 -0.936241 16.9137 12.3946 4.04908
216 2 -0.912721 10.7161 18.0583 9.55936
477 2 -0.877138 10.5425 10.344 4.14685
169 2 -0.876555 18.3672 14.0033 2.35389
465 2 -0.902881 19.2443 12.4326 6.96517
282 1 1.89253 17.7989 13.0093 7.40994
390 1 1.87102 19.0575 17.9265 4.48079
495 2 -0.916719 17.5779 14.4722 6.82802
182 1 1.76255 20.4155 15.2827 4.45883
555 2 -0.932154 17.3555 17.0619 7.66671
275 2 -0.876394 19.2681 16.3275 4.75122
301 2 -0.990598 23.0047 14.6032 8.3841
485 2 -0.958939 20.6437 11.0341 5.39248
165 1 1.85373 22.7026 13.097 7.88147
122 2 -0.913681 20.602 15.2286 2.82738
192 1 1.78365 23.3684 16.454 5.20294
93 1 1.82519 19.7812 14.5235 1.64133
443 1 1.89868 20.483 12.5578 5.94331
203 2 -0.86628 21.6455 12.3053 8.83616
557 2 -0.890861 22.4478 11.9006 2.77507
271 1 1.90366 23.3275 16.1793 8.21909
77 2 -0.57546 19.9666 15.257 8.31027
132 2 -0.943253 17.6152 13.035 8.98527
490 2 -0.909218 20.0568 13.7502 4.89113
33 2 -0.931216 21.9392 16.9493 8.42315
461 1 1.85169 17.6254 12.5768 2.64535
92 1 1.72084 20.5175 16.59 9.0005
347 2 -0.964784 21.8824 13.0666 6.48609
69 2 -0.823995 19.6428 17.9175 8.61563
494 2 -0.88545 21.807 16.0869 5.08601
564 2 -0.88444 18.6972 11.3047 2.47753
525 1 1.80898 18.0165 18.0334 8.76538
385 2 -0.954057 17.7509 17.5828 10.2839
269 2 -1.00528 -0.524821 7.00165 14.6375
95 2 -0.953027 1.41111 6.20936 16.2422
287 2 -0.967588 -0.085409 4.55234 15.3742
345 1 1.84161 1.97694 7.32272 11.2825
83 1 2.00306 -0.129344 6.07015 15.7889
101 1 1.883 -0.924428 7.80291 11.6246
288 2 -1.01441 -1.20309 6.3667 16.935
195 2 -0.980534 0.490475 7.17228 11.802
230 2 -0.923647 2.85536 5.99736 11.5147
397 1 1.85122 2.66745 5.43831 15.6153
285 2 -0.916931 -1.26951 8.76453 12.8834
321 2 -0.968977 -2.10594 4.01261 11.9154
152 2 -0.92755 2.42945 5.31925 13.9911
563 2 -0.958839 2.78117 8.5842 11.8894
569 1 1.93428 -0.905766 8.54922 14.4385
328 2 -0.917157 -2.09269 6.62734 11.4836
41 2 -0.94687 -2.2187 8.93163 15.3058
264 1 1.91143 -0.738959 3.1281 11.7156
524 1 1.87065 -1.30761 6.09891 18.5006
281 1 1.90811 -0.353085 3.05332 14.6933
369 2 -0.951218 0.337007 9.38098 14.9347
98 2 -0.944462 -0.727655 9.33802 18.2115
409 2 -0.870236 3.06025 4.04586 16.3704
322 2 -0.920957 -0.0430743 3.27228 13.163
521 2 -0.926092 0.228142 3.67877 10.5552
100 1 1.86653 -2.86031 5.39244 12.1548
516 1 1.86085 3.33244 5.03105 12.7203
151 2 -0.895105 1.76888 8.54224 18.3361
375 2 -0.916114 -0.863592 4.58596 18.8375
145 1 1.78749 3.28777 8.105 18.7495
455 2 -0.919226 -2.01385 2.80397 14.9021
463 2 -0.916665 3.09251 3.53007 12.186
363 1 1.80518 -2.12273 10.0958 18.2546
309 1 1.84331 3.38446 2.60524 10.9357
202 2 -0.91917 0.457451 2.44474 18.0731
396 2 -0.951922 -2.94794 5.83129 13.7254
472 2 -0.920656 -2.84771 2.58198 17.3687
187 2 -0.945753 -2.76169 6.54364 18.9791
359 2 -0.95226 7.19652 5.97388 17.5215
399 1 1.91088 8.73726 5.34182 14.447
486 2 -0.901332 5.16538 9.29336 10.959
248 2 -0.954401 6.29965 7.6195 15.8264
9 2 -0.901506 10.2451 5.0467 13.9002
139 2 -0.910756 4.92249 5.36731 12.9983
318 1 1.93535 6.3804 5.65324 12.31
183 1 1.9573 7.63098 7.19252 16.5281
243 2 -0.954861 8.2421 8.38054 17.4062
512 2 -0.925469 3.96723 6.36662 15.7388
245 1 1.81937 9.8259 8.73196 11.7894
545 2 -0.941918 8.63758 3.96082 18.2591
447 2 -0.956546 7.62758 5.3547 13.3029
291 1 1.80469 4.35878 3.03036 16.4416
206 2 -0.908805 5.73073 3.75347 15.9371
215 2 -1.00036 8.34356 4.11088 15.3531
559 1 1.90995 6.10077 7.99476 10.4871
266 2 -0.946039 8.55204 6.67741 15.3284
30 1 1.80706 7.11221 3.10723 15.4685
21 1 1.90347 7.73102 5.20215 18.8212
24 2 -0.944525 8.35431 9.2471 11.976
133 2 -0.97499 4.4644 8.94744 14.8521
388 1 1.8725 4.69723 7.78023 15.9292
8 2 -0.92996 9.97889 7.32804 11.0611
88 2 -0.949825 6.295 4.58813 11.0789
44 2 -0.986689 6.84044 9.85316 13.9969
367 2 -1.00628 6.45482 7.10707 11.7094
406 1 1.84025 3.61425 9.74523 11.1236
254 1 1.86343 7.78448 9.30543 18.6703
457 2 -0.899715 4.24505 8.30681 17.4505
343 1 1.91253 8.81937 2.48347 17.6913
415 1 1.98208 5.47371 10.1413 14.6879
121 2 -0.998571 6.98669 2.46789 14.0017
358 2 -0.956434 15.2504 4.27475 17.2163
222 2 -0.981314 12.9019 8.44505 13.528
475 2 -0.876813 13.1384 6.90997 17.2723
528 2 -0.906471 14.6412 6.50462 12.9958
294 2 -0.967139 11.4661 7.30364 15.3484
82 1 1.93772 11.5686 8.51413 14.4044
572 2 -0.943321 15.527 4.59491 14.5091
568 1 1.89935 14.3276 5.01106 13.5939
556 2 -0.971524 12.9552 5.06595 14.4104
469 1 1.89982 11.5285 4.43357 14.7256
308 1 1.91454 16.2783 4.23579 15.9102
148 2 -0.915584 11.2551 4.98615 16.2399
147 1 1.92806 14.1147 3.5566 18.0884
181 1 1.89374 13.6024 7.57452 12.3861
54 2 -0.902701 13.9693 3.94509 12.3757
233 2 -0.949647 14.353 8.35884 11.2151
259 2 -0.966445 12.4707 6.69305 11.6328
244 1 1.86085 14.4404 3.37431 10.9392
519 2 -0.978693 11.5589 2.90144 14.3837
246 1 1.82374 11.6029 6.47148 16.7059
543 1 1.89257 15.8239 8.95053 11.1023
429 2 -0.974304 12.8927 3.11952 17.1537
47 1 1.78316 13.5451 7.95799 18.4637
548 2 -0.919772 12.6 9.29062 18.259
394 2 -0.981816 16.3351 9.20291 12.62
18 2 -0.904195 11.5965 9.80528 15.493
319 2 -0.833018 15.1067 8.41059 18.6068
164 1 1.84371 11.2463 6.41899 10.6228
483 2 -0.937335 10.5487 6.99256 17.8107
89 2 -0.937078 10.6057 9.92134 11.0251
520 2 -0.886417 16.7337 2.6984 15.6988
503 2 -0.922499 10.8154 4.86195 10.5388
177 2 -0.926096 10.3515 8.57077 13.3785
539 2 -0.899671 16.9161 8.07403 10.3452
15 2 -0.938296 22.3266 2.62226 15.3124
505 1 1.92399 18.6379 4.81111 12.1515
79 2 -0.912991 17.544 7.96775 16.57
292 2 -0.959978 21.4776 5.42453 14.403
64 1 1.81854 23.0392 7.71781 18.9069
142 2 -0.899957 23.3856 4.77024 16.1054
204 2 -0.963251 19.5502 6.57818 15.782
316 1 1.84748 23.3433 8.71574 16.0904
262 1 1.97025 21.4286 4.33214 10.9476
338 2 -1.11767 23.6773 8.85844 17.774
160 2 -0.948376 22.7839 7.26647 15.6549
96 2 -0.985112 18.1423 5.90512 11.0549
323 2 -0.953224 17.5616 3.59673 12.2968
313 2 -0.93795 18.9212 5.61033 13.5247
334 1 1.97819 20.6368 8.612 12.3852
229 2 -0.939376 22.5558 5.36406 11.4694
379 1 1.86185 18.1558 9.43318 16.2413
356 2 -0.952373 18.9867 6.51912 18.2249
440 2 -1.01425 20.5207 10.0436 12.9777
267 2 -0.959538 22.0574 2.87811 11.0813
81 2 -0.962224 20.603 7.68817 13.6662
74 1 1.95202 18.304 6.55613 16.7578
108 2 -0.917979 22.1771 9.77674 15.7544
279 2 -0.941687 18.0249 9.61027 14.5993
97 2 -0.92541 19.7019 9.4756 16.6377
37 1 1.93862 20.1472 6.28829 14.3729
538 2 -0.889104 21.6606 6.93087 18.5337
149 2 -0.968133 19.3527 8.19172 11.4484
346 2 -0.935452 17.4285 5.25634 16.2794
371 1 1.85673 22.9233 5.83643 14.9874
310 2 -1.03587 20.0753 4.25939 11.751
51 2 -1.02254 21.8787 8.41264 11.4456
349 2 -0.898929 17.8668 3.93081 18.9197
511 2 -0.901229 19.621 2.44696 17.6894
280 1 1.88951 18.3677 7.30571 10.4194
552 1 1.80657 23.695 3.20094 15.906
272 1 1.87178 17.188 10.2664 13.4356
424 1 1.75417 19.4133 3.31689 18.9951
135 2 -0.932434 1.82692 13.6152 17.3857
138 1 1.85601 2.08164 14.7683 16.2337
544 2 -0.577133 -0.996693 15.6826 13.9812
393 2 -0.962161 1.81685 16.209 16.9615
66 1 1.77479 -0.522037 12.1349 12.5227
19 1 1.89024 1.94901 12.0597 17.4574
428 2 -0.935647 1.16596 14.4835 14.9696
389 1 1.73717 0.378291 14.9439 13.5882
459 2 -0.909797 1.28342 15.8926 12.5952
153 2 -0.965972 -0.652207 16.0475 17.2513
115 2 -0.853998 -2.15803 11.4213 17.2874
407 1 1.88104 1.85752 15.7894 11.1034
105 2 -0.884667 0.111272 13.6427 12.6378
466 2 -0.906955 -2.02763 12.302 11.967
462 1 1.98103 0.534632 17.0448 16.9094
351 2 -0.899854 0.89783 11.3932 16.3857
573 2 -0.524276 0.419899 11.2758 11.5749
398 1 1.78133 -2.47827 13.072 17.3703
547 2 -0.948744 -0.420211 11.5849 14.0251
340 2 -0.97756 -1.13484 17.3028 11.4075
427 2 -0.984411 2.1014 11.2517 14.066
263 1 1.96744 0.768853 10.9425 14.8528
433 1 1.91454 -2.25975 16.3205 10.8805
22 2 -0.946321 -2.15248 14.7126 11.0833
508 2 -0.863894 -1.4573 13.9299 18.3757
161 2 -0.934312 -2.53104 13.7046 15.8839
435 1 1.96352 3.40612 11.8426 13.2722
141 2 -0.953318 3.26784 14.9879 11.252
513 2 -0.967134 3.36396 13.4543 13.2298
317 1 1.98237 -2.94947 13.577 11.8843
150 2 -0.930007 2.24834 17.2404 10.5102
489 1 1.84116 -1.26757 15.52 18.6612
90 2 -1.00706 0.46858 17.6948 15.4619
500 2 -0.958262 1.70241 11.469 18.922
333 2 -0.966924 3.36484 11.7141 16.749
7 2 -0.939842 3.41111 11.1622 11.8298
576 2 -0.923365 -2.68638 16.2308 18.9835
255 1 1.94445 9.08699 11.6093 17.5868
329 2 -0.958858 4.82118 18.0038 17.7897
378 2 -0.922679 10.2575 15.0687 11.2115
454 2 -0.953339 3.58699 14.924 15.7698
562 2 -1.23611 7.59786 17.6832 16.6222
56 1 1.84265 6.09969 17.0444 10.5141
416 1 1.91087 9.39995 13.963 10.456
518 2 -0.977777 9.02615 11.9197 16.0048
368 2 -0.924078 5.76204 10.7173 16.1684
541 1 1.98935 6.70354 12.9336 11.3248
445 2 -0.947071 10.2367 17.9942 17.0256
355 2 -0.958637 7.31828 17.0875 11.5216
480 1 1.9308 7.88064 17.3994 12.9609
560 1 1.90078 7.24433 16.0584 16.5835
23 2 -1.02413 9.04938 11.1951 13.6163
185 2 -0.965546 9.28415 13.721 14.1029
261 2 -1.02451 4.73358 11.3267 13.9308
253 1 1.99888 9.69916 12.2457 14.6051
114 2 -0.958772 9.37494 17.9588 12.964
341 2 -0.976241 7.02881 11.571 12.0958
305 2 -0.932562 4.84228 11.0426 18.625
376 2 -0.94502 8.01506 13.8027 11.244
434 1 1.96894 9.10476 15.2117 14.5454
437 2 -0.974982 8.59832 17.1874 18.8912
87 2 -1.00142 4.5329 15.7601 13.4687
478 1 2.02096 7.84484 10.4458 12.9316
225 2 -0.872362 5.68317 13.1487 17.3157
193 2 -0.982453 7.89247 10.8331 18.2148
99 2 -0.942819 9.18843 13.0524 18.2818
129 1 1.82919 4.91778 11.6775 17.16
134 2 -0.994351 5.90298 15.8518 15.7728
219 1 1.92166 4.47105 16.012 15.0107
113 2 -0.977085 5.53363 13.819 12.0166
207 2 -0.917337 4.77941 17.5353 11.3052
293 2 -0.987215 8.51194 15.3767 16.0011
361 1 1.96873 4.23309 14.57 12.4616
205 2 -0.9526 4.58453 15.4103 18.4326
571 2 -0.952242 8.03397 15.9081 13.6273
247 2 -1.13139 7.08899 15.3243 18.0418
326 1 1.70916 5.74334 14.3201 18.4096
42 2 -0.904381 3.99838 17.5389 15.4183
348 2 -0.9554 10.1744 12.5716 10.6482
154 1 1.89982 4.69168 16.9049 18.9931
217 1 1.93916 13.947 14.6777 13.1759
184 2 -1.0034 14.4194 13.3516 13.9068
218 1 1.87825 13.6453 15.5859 16.0039
209 1 1.92503 14.6084 11.7872 13.7035
130 2 -0.902394 12.3408 16.3323 16.7523
125 2 -0.979276 15.2093 15.284 12.4664
143 2 -0.961793 12.6606 14.4928 12.2873
223 2 -0.937314 13.5582 15.6603 14.4095
339 2 -0.971522 15.0652 16.3155 16.3359
502 2 -0.930259 11.7664 16.9632 12.3192
537 2 -0.977525 13.5835 14.1164 16.5891
467 2 -0.982927 15.0371 12.0574 17.114
362 1 1.93729 13.7397 12.803 17.5337
20 1 1.77889 12.3121 11.2516 15.5414
52 2 -0.951143 13.6665 11.0473 14.7338
504 2 -1.20519 12.5621 11.7528 17.1783
128 1 1.85469 11.7763 15.5759 11.4933
240 2 -0.994125 14.1797 11.4367 12.169
286 2 -0.965473 11.2979 12.2618 14.8174
172 1 1.88069 10.8348 17.4539 13.5434
62 2 -0.955934 16.1627 11.3793 13.958
514 1 1.80032 16.5904 16.9363 16.4369
109 1 1.97497 16.6152 12.1133 17.3043
298 1 1.8676 11.9438 10.7331 18.3578
444 1 1.90896 11.777 17.7032 17.4196
127 1 1.91994 14.6463 11.6223 10.6697
258 2 -0.973777 10.3937 16.1768 14.414
458 2 -0.922216 16.9053 16.9078 18.0219
241 2 -0.996301 14.6523 17.8857 18.7382
452 1 1.81461 16.7994 15.205 12.6205
117 2 -0.928764 15.5101 17.9283 11.3055
25 2 -0.963467 16.6682 12.3664 18.8897
265 2 -0.922066 15.3899 13.054 10.4899
17 2 -0.930176 15.6625 10.4074 10.4154
31 2 -0.977606 11.5773 17.4717 18.9456
68 2 -0.985643 10.3657 10.7062 17.9776
194 2 -1.0011 23.4919 13.9915 13.35
534 1 1.89962 20.4565 16.8128 17.3147
353 1 1.80122 21.7343 17.1155 11.6273
174 1 1.90362 17.0829 17.9129 11.7246
213 2 -0.960798 21.6286 10.9664 17.9574
28 1 2.06845 20.5072 12.9976 14.9094
325 1 1.87142 21.8692 12.2905 18.7855
32 2 -0.884626 20.6472 16.4347 10.6185
78 2 -0.917586 20.3423 11.6966 11.0489
39 1 1.90829 20.9538 10.4642 16.5568
251 2 -1.03145 22.8576 15.8462 15.0086
276 2 -1.02651 20.3022 11.7135 15.7977
546 2 -0.887942 17.6623 15.9439 15.7958
1 1 1.93152 17.8195 14.3914 15.4105
567 2 -0.979928 21.9017 16.9249 18.0239
297 2 -0.946497 17.3509 10.7298 16.8322
85 2 -0.913942 19.6868 15.5135 17.8977
551 1 1.84142 23.3183 17.4922 18.5384
522 2 -0.957399 23.2506 16.5149 11.6123
270 2 -0.968108 23.0261 13.1735 18.0312
312 2 -0.903751 17.3941 16.6823 12.6885
383 2 -0.88284 20.5583 16.6795 15.7258
10 1 1.89988 21.7614 16.9432 14.7129
119 1 1.89193 21.8027 11.9388 10.4077
178 2 -0.936636 17.1873 14.3056 13.9232
102 1 2.00833 23.2816 14.3191 14.8925
283 2 -1.04894 20.2989 12.5886 13.4068
535 2 -0.951772 22.6638 13.089 11.083
510 2 -0.968449 19.3742 14.0422 15.3168
234 2 -0.995025 17.1144 13.3946 16.4779
395 2 -0.890112 21.2085 17.0791 13.1867
515 1 1.94583 19.8144 11.3973 12.5352
450 2 -0.864024 17.3732 14.5151 11.1902
565 2 -0.933961 18.2536 11.0735 12.4655
430 2 -0.953281 20.5656 13.188 18.6922
63 2 -1.01363 21.9948 13.4326 15.2046
566 2 -0.917787 22.6627 10.5814 10.452
ITEM: TIMESTEP
100
ITEM: NUMBER OF ATOMS
576
ITEM: BOX BOUNDS pp pp pp
-3.4986017674101966e+00 2.4084179479007506e+01
2.2351966247090811e+00 1.8350381086883647e+01
1.3217239915229300e+00 1.9263853720071236e+01
ITEM: ATOMS id type q x y z
366 2 -0.930798 0.390224 4.16461 5.266
470 1 1.73726 2.50477 7.84369 5.78678
315 2 -0.812993 -0.884582 6.11202 4.35216
290 1 1.80222 -2.50247 5.78114 4.75094
474 2 -0.827337 2.10703 9.19807 4.76224
175 2 -0.892686 1.19133 6.8961 5.90141
377 2 -0.948676 0.152946 8.89951 2.856
75 1 1.67957 0.657753 5.71578 4.8685
402 2 -0.881491 -1.51088 4.02788 8.268
488 1 1.82101 -2.39986 5.33802 7.90663
360 2 -0.954944 1.74197 5.81748 3.62719
220 2 -0.996061 1.25328 4.12979 8.57597
408 1 1.85433 2.59432 5.0783 2.52475
46 1 1.88042 -0.0928214 3.38227 8.8357
124 2 -0.891102 -2.47129 5.26014 6.26668
210 1 1.81721 -2.177 8.20245 8.85197
38 1 1.7998 2.04003 8.69089 8.597
314 2 -0.88934 2.85793 8.35226 7.26205
419 2 -0.964283 -1.75474 6.75512 8.43366
306 2 -0.900846 -1.85676 9.34747 7.8275
401 2 -0.912621 1.65343 7.42874 9.57557
118 1 1.73693 0.678351 9.65487 4.15223
201 1 1.76157 2.8338 4.10969 8.43344
364 2 -0.862941 0.75927 9.45307 7.90361
231 2 -0.842058 -0.344025 9.42344 5.43197
60 2 -0.871336 -0.590261 2.86868 3.08462
352 1 1.78019 0.236816 2.72823 4.53649
168 2 -0.878798 2.87293 9.74794 9.5681
536 2 -0.909993 -3.03985 4.54236 3.89024
123 2 -0.887608 1.4524 4.15581 1.82265
380 1 1.74005 -0.5301 9.95559 7.03636
300 1 1.77947 0.00816777 3.42308 1.66052
432 2 -0.891167 -0.522549 6.99796 1.37375
484 2 -0.893091 3.31403 3.11866 7.10573
249 2 -1.00504 1.63516 18.2922 3.95017
40 2 -0.959573 3.51886 3.46153 9.70826
199 1 1.6877 -0.0638136 8.53682 19.2611
50 2 -0.855238 2.97558 6.0599 19.1627
404 2 -0.844819 -3.33839 7.19503 4.85726
392 2 -0.829957 -1.46314 8.60396 10.2573
550 1 1.83528 6.97637 4.07145 9.76789
311 2 -0.931108 9.37283 8.33929 5.07344
173 1 1.84027 5.58206 4.47538 3.35059
228 1 2.03927 4.93944 9.63961 2.24156
464 2 -0.836748 8.61391 6.19846 2.02384
553 2 -0.826752 5.73553 6.72003 6.88762
289 1 1.74346 9.7582 8.88977 3.68766
186 2 -0.794743 8.59425 2.26528 4.15008
57 1 1.90223 9.67864 8.09715 6.62988
558 2 -0.953896 8.52567 4.0531 10.0778
131 2 -0.905837 8.00014 4.09719 6.19157
498 1 1.75044 5.28497 7.02072 5.26652
111 1 1.81892 7.7549 9.60187 8.54957
324 2 -1.00581 3.69352 8.69956 1.88421
381 1 1.75338 9.95932 3.64553 9.48641
422 2 -0.951972 6.44949 5.12825 8.61671
273 1 1.85743 9.21976 4.9527 6.80316
476 2 -0.846096 3.63608 5.52193 8.11618
411 2 -0.960062 3.75128 7.20933 5.05307
180 2 -0.847491 5.8928 8.54937 5.06551
107 2 -0.860829 9.09758 6.6222 7.11365
278 2 -0.903302 5.04103 7.20061 9.39903
239 2 -0.944014 3.9753 4.4718 3.01938
227 1 1.75023 7.3976 2.85972 5.21184
493 2 -0.922511 6.14406 3.34906 4.36972
256 2 -0.874638 5.80111 5.92215 4.12911
373 2 -0.916415 6.53662 4.46145 2.06607
35 2 -0.860726 8.58366 9.04688 2.41996
236 1 1.78696 5.25553 6.05883 8.31459
501 2 -0.919403 8.84483 9.17456 7.46406
420 2 -0.833926 7.32438 8.37469 9.51362
163 1 1.69922 5.92391 10.1672 5.01038
27 2 -0.837815 6.38051 2.50059 9.67126
13 2 -0.968608 9.84345 4.22649 8.00412
497 1 1.66748 10.188 6.64429 1.73871
529 2 -0.93672 6.20886 9.1508 1.40825
570 1 1.66624 13.1192 5.42407 2.40578
91 1 1.85473 12.4976 7.85398 7.80584
162 2 -0.847109 12.6365 4.90422 3.85921
370 1 1.78939 11.8651 4.18442 5.16474
170 2 -0.944987 13.6827 7.00882 7.26791
296 2 -0.80481 15.2286 5.29277 5.91085
405 2 -0.831077 15.8547 7.95515 6.1973
136 1 1.62187 15.1982 6.64956 6.94982
357 2 -0.734403 15.9823 6.09289 8.42359
295 2 -0.817622 16.1926 8.0471 3.5224
45 2 -0.922739 12.9613 9.20835 8.52084
479 1 1.60775 14.6256 3.77981 6.34099
171 2 -0.860255 12.9639 3.84508 6.33017
382 2 -0.9473 11.2674 8.17286 6.7659
112 2 -0.815156 11.7752 6.86387 9.02213
59 2 -0.876679 16.1854 3.83528 3.08329
487 1 1.47493 16.1202 4.50219 8.93379
104 2 -0.809612 15.2922 3.56542 7.84259
320 2 -0.913078 11.2115 3.02461 4.37511
43 2 -0.766444 13.5242 7.0248 2.03956
55 1 1.63896 16.5689 7.97482 1.80583
155 1 1.84503 16.9231 8.35651 4.99942
284 2 -0.736402 11.4305 5.49813 1.8824
49 2 -0.788666 16.6394 6.34036 1.64626
5 2 -0.889751 10.4887 4.87463 5.76349
446 2 -0.892537 10.5994 7.82618 2.71959
468 2 -0.833753 15.2475 2.70925 5.17417
84 1 1.84986 16.3407 2.55394 4.03452
418 2 -0.879752 13.2225 2.77755 10.2738
492 2 -0.887359 13.9212 4.42143 1.44237
549 2 -0.90707 17.0307 9.96676 5.00643
232 2 -0.79548 15.3285 4.42408 10.3511
257 2 -1.01147 19.5364 2.44366 2.91235
179 2 -0.911618 20.4822 4.42554 19.2447
198 2 -0.870653 22.9643 8.06715 2.86766
126 2 -0.847833 22.0573 3.99978 4.0435
342 2 -0.893915 17.8524 2.57025 4.70688
330 2 -0.84454 23.9395 10.1369 4.22755
48 1 1.69271 20.42 5.97688 1.47711
302 2 -0.793989 21.2504 9.11745 8.92627
268 2 -0.920744 19.9484 5.44341 5.38838
417 1 1.76999 19.1273 9.67329 2.46945
374 2 -0.756696 21.7951 8.57162 4.99044
4 2 -0.945761 22.0235 4.44469 6.70235
36 2 -0.97625 21.5403 4.81625 9.50892
237 1 1.60083 17.2741 4.84809 2.36891
137 1 1.9219 22.0782 5.25974 8.05177
120 1 1.78882 23.4947 3.36649 3.62262
509 2 -0.987479 18.125 7.393 4.9042
214 2 -0.885498 19.3323 7.49431 9.00206
331 2 -0.529814 20.3864 9.31393 1.5341
260 2 -0.965007 21.3795 6.70509 7.6883
61 2 -0.92007 23.6318 5.31655 8.4296
530 2 -0.868738 18.0533 8.63154 1.75793
158 2 -0.965858 18.17 5.20586 3.65404
436 2 -0.855229 19.9327 8.92608 6.79902
574 2 -0.871681 19.5076 9.23631 3.9951
159 2 -0.89762 23.7296 8.23303 9.24069
354 1 1.56412 20.4858 9.47508 5.28903
425 1 1.77544 21.1105 4.28298 5.40935
110 1 1.82605 20.4715 7.97541 7.94633
542 1 1.65119 22.5706 8.97142 9.9849
16 2 -0.923207 20.3982 2.7947 5.36158
242 2 -0.849866 20.1977 6.46625 3.10576
332 2 -0.820557 23.4525 2.78498 1.99191
146 1 1.86491 19.1017 6.26255 4.30908
531 2 -0.672931 17.756 3.67912 8.73007
507 1 1.64148 23.4049 8.56563 4.24004
391 2 -0.783479 1.69205 13.2684 8.40742
274 2 -0.894519 0.32514 15.5801 7.43354
156 1 1.8036 1.70111 12.1805 2.85277
575 2 -0.915447 -0.741306 14.5471 4.06585
299 1 1.78357 0.441501 17.115 6.94493
554 2 -0.973755 2.07615 17.1852 7.0294
3 1 1.97395 -1.77144 12.948 7.45195
250 2 -0.834904 -0.940915 13.642 8.58545
29 1 1.78055 -2.21009 14.0887 4.63946
53 2 -0.91836 1.77848 15.806 3.60378
307 1 1.93667 0.470654 14.9665 3.10494
140 2 -1.06468 -1.93875 13.5993 6.15774
144 2 -0.905287 0.86222 11.2723 3.8715
386 2 -0.823653 -0.833595 11.5711 7.20007
190 1 1.62802 0.515891 14.5648 8.63893
350 2 -0.959453 1.15364 13.7032 2.58455
208 1 1.83396 2.62768 17.2289 3.52639
211 2 -0.882643 2.79164 12.6712 6.05011
94 2 -0.891014 -0.375032 15.7493 1.96731
70 2 -0.905416 3.16182 12.1222 3.44642
442 1 1.7792 3.0754 13.0501 7.63558
189 2 -0.922513 -0.251498 17.7609 5.58908
221 2 -0.823531 -2.65544 12.7386 3.85035
224 2 -0.98385 -2.5649 10.8543 1.90698
86 2 -0.853166 -3.24175 15.3479 4.10968
116 2 -0.922343 -2.8063 16.6568 9.32406
196 2 -0.951819 -3.35531 12.7304 7.96505
212 2 -0.873154 -0.0744157 17.9835 8.20593
481 2 -0.79233 0.701462 15.3945 10.0972
76 2 -0.826042 -3.42536 16.5941 6.51824
344 1 1.75688 -3.45535 11.4012 3.08736
448 2 -0.839581 3.42564 17.4579 2.16891
197 2 -0.856963 23.5767 18.1198 4.52038
517 2 -0.918157 6.36941 10.3672 8.21565
106 2 -0.842778 3.47588 17.3446 5.05686
176 2 -0.916723 6.23366 15.3433 7.19967
439 2 -1.03462 5.48355 10.2717 3.43362
226 1 1.88961 5.04484 15.5364 8.17783