

 Parallel Execution: Process Information
 ==============================================================================
 Rank   Node Name                              NodeID   MyNodeRank  NodeMaster
    0   adf1                                      0          0          0
    1   adf1                                      0          1         -1
    2   adf1                                      0          2         -1
    3   adf1                                      0          3         -1
    4   adf1                                      0          4         -1
    5   adf1                                      0          5         -1
    6   adf1                                      1          0          1
    7   adf1                                      1          1         -1
    8   adf1                                      1          2         -1
    9   adf1                                      1          3         -1
   10   adf1                                      1          4         -1
   11   adf1                                      1          5         -1
 ==============================================================================


May use up to 11697MB of RAM as shared memory on node 0
May use up to 11718MB of RAM as shared memory on node 1

 *******************************************************************************
 *                                                                             *
 *  --------------------------------                                           *
 *   Amsterdam Modeling Suite (AMS)              2021.105                      *
 *  --------------------------------                                           *
 *                                               r97261 2021-09-16             *
 *                                                                             *
 *                                                                             *
 *                              =================                              *
 *                              |               |                              *
 *                              |     A M S     |                              *
 *                              |               |                              *
 *                              =================                              *
 *                                                                             *
 *                                                                             *
 *   Online information and documentation:  https://www.scm.com/support/       *
 *   E-mail:  support@scm.com   info@scm.com                                   *
 *                                                                             *
 *   Scientific publications using AMS results must be properly referenced     *
 *   See the User Manuals (or the web site) for recommended citations          *
 *   The terms and conditions of the End User License Agreement apply to       *
 *   the use of AMS, https://www.scm.com/license-terms/                        *
 *                                                                             *
 **********************  x86_64_linux_intel / intelmpi  ************************
 
 Licensed to: Dr. Miroslav Ilias / Matej Bel University, Department Chemistry, Fac. Natural Sciences / Banska Bystrica / SLOVAKIA
 SCM User ID: u17848
  
 AMS 2021.105  RunTime: Nov04-2021 21:12:01  ShM Nodes: 2  Procs: 12

 AMS jobname: ams
 AMS jobid  : 183705070

 Start   directory: /home/milias/Work/projects/open-collection/theoretical_chemistry/projects/lead_water_complexes/adf/Pb_1H2O/srzora/sozora/tmp.milias.27517.0.noindex/
 Results directory: /home/milias/Work/projects/open-collection/theoretical_chemistry/projects/lead_water_complexes/adf/Pb_1H2O/srzora/sozora/Pb-1H2O_2p.geoptfreq_sozora_bp86_dzp_sc.results/
 Scratch directory: /tmp/amstmp_ams_kid0.183705070/


 Communication costs MPI_COMM_WORLD:      2.915 usec per message,   0.0272 usec per 8-byte item
 Communication costs for intra-node:      1.586 usec per message,   0.0130 usec per 8-byte item

 RNG seed: -1417918367 2128106900 -1820241191 383851475 701122822 1715107009 -202656040 1022239019



                     *************************************************************************
                     *  ADF 2021.105  RunTime: Nov04-2021 21:12:02  ShM Nodes: 2  Procs: 12  *
                     *************************************************************************
  
       ***************************
       *  GEOMETRY OPTIMIZATION  *
       ***************************

Optimization Method                    Quasi Newton
Optimization Coordinates               Delocalized Coordinates
Optimize lattice                       F
 
 ------------------------------------------------------
 Convergence criteria (Hartree,Angstrom)
 ------------------------------------------------------
 Maximum gradient               0.001000000000
 Maximum rms gradient           0.000666666667
 Maximum step allowed           0.010000000000
 Maximum rms step allowed       0.006666666667
 Maximum energy change allowe   0.000040000000
 Maximum stress energy allowe   0.000500000000
 
Initial model Hessian                  Automatic Hessian
 
------------------------------------
Quasi-Newton Optimizer Parameters
------------------------------------
Hessian Update Method                  BFGS
Maximum number of steps                  250
First GDIIS cycle                          0
Maximum GDIIS vectors                      0
Trust radius (bohr)                        0.200000
Trust radius varies                        T
Constraints converged at all steps         T
Use projector                              T
 
 Rigid motions settings for: old optimizer
 Atomic rotations (x,y,z):     T T T
 Atomic translations (x,y,z):  T T T
 Tolerance:                   1.000000000000000E-006
 
--------
Geometry
--------
Formula: H2OPb
Atoms
  Index Symbol   x (angstrom)   y (angstrom)   z (angstrom)
      1     Pb     0.00000000     0.00000000     2.06464720
      2      H     0.00000000    -0.79902879    -0.88857026
      3      H    -0.00000000     0.79902879    -0.88857026
      4      O     0.00000000    -0.00000000    -0.28750669
 
Total System Charge             2.00000
Bonding info available!
 
 
----------------
ADF Engine Input
----------------
 
 Basis
 Type DZP
 Core Small
 End
 XC
 GGA BP86
 End
 Relativity
 Level Spin-Orbit
 End
 

 Title: *** (NO TITLE) ***

Number of symmetry operators: 4
Schoenflies symbol:           C(2V)
 Using automatic Hessian for delocalized coordinates.
 *** GOStep1 ***



 ==============================
 Double group spinor symmetries  ***  (Spin-Orbit)  ***
 ==============================
  

 The double group Lowdins are spinors adapted to the irreducible representations
 of the double group. These double group Lowdins are linear combinations of
 products of the single group Lowdins and the spinfunctions. The single group
 Lowdins are  orthonormalized symmetrized fragment orbitals (SFOs).
 The complex coefficients that are used in the linear combinations are also
 known as Clebsch-Gordan coefficients.
 The spin functions (alpha,beta) span irrep e1/2


 Double-group Lowdins

         A1 * e 1/2 :      E1/2

  E1/2:1      = ( 1.0000+0.0000i) alpha + ( 0.0000+0.0000i) beta  A1
  E1/2:2      = ( 0.0000+0.0000i) alpha + ( 1.0000+0.0000i) beta  A1

         A2 * e 1/2 :      E1/2

  E1/2:1      = ( 1.0000+0.0000i) alpha + ( 0.0000+0.0000i) beta  A2
  E1/2:2      = ( 0.0000+0.0000i) alpha + (-1.0000+0.0000i) beta  A2

         B1 * e 1/2 :      E1/2

  E1/2:1      = ( 0.0000+0.0000i) alpha + (-1.0000+0.0000i) beta  B1
  E1/2:2      = ( 1.0000+0.0000i) alpha + ( 0.0000+0.0000i) beta  B1

         B2 * e 1/2 :      E1/2

  E1/2:1      = ( 0.0000+0.0000i) alpha + ( 1.0000-0.0000i) beta  B2
  E1/2:2      = ( 1.0000+0.0000i) alpha + ( 0.0000+0.0000i) beta  B2

 The table summarizes which one-electron orbital irreps (single group) couple
 with spin to which spinor irreps (double group).
 The Clebsch-Gordan series for each direct product: orbital irrep times e1/2.
                 A1      A2      B1      B2
            ------- ------- ------- -------
  E1/2           X       X       X       X


 dimension (equal to the max. nr. of electrons per spinor) of the double group irreps
 ------------------------------------------------------------------------------------
  E1/2           2

 Energy gradients wrt nuclear displacements
 ==========================================

     Atom      Cartesian (a.u./angstrom)
                 X         Y         Z
 ----------------------------------------
     1 Pb    0.000000  0.000000  0.000570
     2 H     0.000000  0.000560 -0.000022
     3 H     0.000000 -0.000560 -0.000022
     4 O     0.000000  0.000000 -0.000525
 ----------------------------------------
 Mulliken charges used for AMS results%charges...
 
----------------------------------------------------------------------
Geometry Convergence after Step   1       (Hartree/Angstrom,Angstrom)
----------------------------------------------------------------------
current energy                                0.03753116 Hartree
energy change                       0.03753116     0.00004000    F
constrained gradient max            0.00056964     0.00100000    T
constrained gradient rms            0.00031986     0.00066667    T
gradient max                        0.00056964
gradient rms                        0.00031986
cart. step max                      0.00051987     0.01000000    T
cart. step rms                      0.00026242     0.00666667    T
 
 
--------
Geometry
--------
Formula: H2OPb
Atoms
  Index Symbol   x (angstrom)   y (angstrom)   z (angstrom)
      1     Pb     0.00000000     0.00000000     2.06423781
      2      H    -0.00000000    -0.79954866    -0.88833181
      3      H     0.00000000     0.79954866    -0.88833181
      4      O     0.00000000    -0.00000000    -0.28757420
 
Total System Charge             2.00000
Bonding info available!
 
 *** GOStep2 ***

 Energy gradients wrt nuclear displacements
 ==========================================

     Atom      Cartesian (a.u./angstrom)
                 X         Y         Z
 ----------------------------------------
     1 Pb    0.000000  0.000000  0.000488
     2 H     0.000000  0.000125 -0.000094
     3 H     0.000000 -0.000125 -0.000094
     4 O     0.000000  0.000000 -0.000300
 ----------------------------------------
 Mulliken charges used for AMS results%charges...
 
---------------------------------------------------------
Geometry Convergence after Step   2       ** CONVERGED **
---------------------------------------------------------
current energy                                0.03753045 Hartree
energy change                      -0.00000071     0.00004000    T
constrained gradient max            0.00048782     0.00100000    T
constrained gradient rms            0.00017722     0.00066667    T
gradient max                        0.00048782
gradient rms                        0.00017722
cart. step max                      0.00065334     0.01000000    T
cart. step rms                      0.00029049     0.00666667    T
 
Geometry optimization converged

Optimized geometry:
 
--------
Geometry
--------
Formula: H2OPb
Atoms
  Index Symbol   x (angstrom)   y (angstrom)   z (angstrom)
      1     Pb     0.00000000     0.00000000     2.06423781
      2      H    -0.00000000    -0.79954866    -0.88833181
      3      H     0.00000000     0.79954866    -0.88833181
      4      O     0.00000000    -0.00000000    -0.28757420
 
Total System Charge             2.00000
Bonding info available!
 
Performing a single point calculation on the final geometry ...

 *** adf ***



 ===========================
 A T T A C H E D   F I L E S
 ===========================
  
 Restart/tmp/amstmp_ams_kid0.183705070/GOStep2.rkf*** GOStep2 ***



 ===============================
 M O D E L   P A R A M E T E R S
 ===============================
  
 DENSITY FUNCTIONAL POTENTIAL (scf)
    LDA:                               VWN                                      
    Gradient Corrections:              Becke88 Perdew86                        == Not Default ==

 SPIN  (restricted / unrestr.)
    Molecule:                          Restricted
    Fragments:                         Restricted                               

 OTHER ASPECTS
    Relativistic Corrections:          Spin-Orbit (ZORA,MAPA)                  == Not Default ==

    Nuclear Charge Density Model:      Point Charge Nuclei                      
    Core Treatment:                    Frozen Orbital(s)                        

    Hyperfine or Zeeman Interaction:   ---                                      



 ===============
 G E O M E T R Y  ***  Planar Molecule  ***
 ===============
  

 ATOMS
 =====                            X Y Z                    CHARGE
                                (Angstrom)             Nucl     +Core       At.Mass
                       --------------------------    ----------------       -------
    1  Pb              0.0000    0.0000    2.0642     82.00     36.00      207.9766
    2  H              -0.0000   -0.7995   -0.8883      1.00      1.00        1.0078
    3  H               0.0000    0.7995   -0.8883      1.00      1.00        1.0078
    4  O               0.0000   -0.0000   -0.2876      8.00      6.00       15.9949


 FRAGMENTS
 =========                                     Atoms in this Fragment     Cart. coord.s (Angstrom)
                                               -------------------------------------------------------
    1  Pb                                                1  Pb           0.0000    0.0000    2.0642
    2  H                                                 2  H           -0.0000   -0.7995   -0.8883
    3  H                                                 3  H            0.0000    0.7995   -0.8883
    4  O                                                 4  O            0.0000   -0.0000   -0.2876


 Interatomic Distance Matrix (Angstrom)
 --------------------------------------

   1)     0.000
   2)     3.059   0.000
   3)     3.059   1.599   0.000
   4)     2.352   1.000   1.000   0.000

 Min. Distance =    1.0001
 Max. Distance =    3.0589



 =====================================
 S Y M M E T R Y ,   E L E C T R O N S
 =====================================
  
 Symmetry: C(2V)

 Double Group Irreducible Representations (spinor symmetry)
 -----------------------------------------------------------
 E1/2


 Configuration of Valence Electrons
 ==================================
 ( determined in the SCF procedure )

 Total:   42

 Net Charge: 2 (Nuclei minus Electrons)

 Aufbau principle for MO occupations will be applied through SCF cycle no.     150
 Thereafter, the program will assign electrons to MOs that are spatially
 similar to the occupied MOs in a "reference" cycle ("KeepOrbitals").
 The reference cycle is always the PREVIOUS cycle: it will evolve with
 the SCF procedure.
1
 ***************************************************************************************************



                                      ****************************************
                                      *  B U I L D : (Fragments, Functions)  *
                                      ****************************************
  



 =======
 S F O s  ***  (Symmetrized Fragment Orbitals)  ***
 =======
  
 SFOs are linear combinations of (valence) Fragment Orbitals (FOs), such that the SFOs transform as the
 irreducible representations of the (molecular) symmetry group. Each SFO is therefore characterized by
 an irrep of the molecule and by a few (or only one) generating FOs.
 The SFOs constitute a symmetry-adapted basis for the Fock matrix. The MO eigenvector coefficients in
 this basis provide a direct interpretation of the MOs in terms of Frontier Orbital Theory.

 The SFOs are combined with auxiliary Core Functions (CFs) to ensure orthogonalization on the (frozen)
 Core Orbitals (COs). The Core-orthogonalized SFOs (CSFOs) constitute the true Fock basis.

 The FOs, and hence also the (C)SFOs are combinations of the elementary basis functions (BAS). The basis
 functions that participate in the description of the SFOs depend on the irrep. The indices of the
 involved functions are printed below for each irrep.
 (The complete list of primitive basis functions is printed in another section)

 Total nr. of (C)SFOs (summation over all irreps) :    80

 NOTE: a (C)SFO that is defined as a combination of more than one FO is usually NOT normalized.

 NOTE: the (C)SFOs are single group symmetry adapted orbitals.



                                       === A1 ===
 Nr. of SFOs :   33
 Cartesian basis functions that participate in this irrep (total number =    58) :
      1     2     3     4     7    10    13    19    25    14
     17    20    23   105    26    27    28    29    30    31
     34    37    40    43    46    52    58    64    47    50
     53    56    59    62    74    84    94    67    72    77
     82    87    92    95   100    96   101    99   104    98
    103   106   107   110   113   119   114   117

    SFO  (index         Fragment          Generating    Expansion in Fragment Orbitals
  indx  incl.CFs)   Occup   Orb.Energy   FragmentType  Coeff.   Orbital     on Fragment
 --------------------------------------------------------------------------------------
     1      15      2.000      -5.257 au  Pb            1.00      1 S               1
                        (    -143.049 eV)
     2      16      2.000      -0.444 au  Pb            1.00      2 S               1
                        (     -12.093 eV)
     3      17       --         0.063 au  Pb            1.00      3 S               1
                        (       1.706 eV)
     4      18       --         0.955 au  Pb            1.00      4 S               1
                        (      25.999 eV)
     5      19       --         5.713 au  Pb            1.00      5 S               1
                        (     155.468 eV)
     6      20       --      3692.882 au  Pb            1.00      6 S               1
                        (  100488.432 eV)
     7      21      2.000      -3.139 au  Pb            1.00      1 P:z             1
                        (     -85.422 eV)
     8      22      0.667      -0.133 au  Pb            1.00      2 P:z             1
                        (      -3.632 eV)
     9      23       --         0.045 au  Pb            1.00      3 P:z             1
                        (       1.212 eV)
    10      24       --         0.426 au  Pb            1.00      4 P:z             1
                        (      11.596 eV)
    11      25       --         3.056 au  Pb            1.00      5 P:z             1
                        (      83.146 eV)
    12      26      2.000      -0.786 au  Pb            1.00      1 D:z2            1
                        (     -21.381 eV)
    13      27       --         0.427 au  Pb            1.00      2 D:z2            1
                        (      11.626 eV)
    14      28       --         3.399 au  Pb            1.00      3 D:z2            1
                        (      92.482 eV)
    15      29      2.000      -0.786 au  Pb            1.00      1 D:x2-y2         1
                        (     -21.381 eV)
    16      30       --         0.427 au  Pb            1.00      2 D:x2-y2         1
                        (      11.626 eV)
    17      31       --         3.399 au  Pb            1.00      3 D:x2-y2         1
                        (      92.482 eV)
    18      32      2.000      -4.933 au  Pb            1.00      1 F:z3            1
                        (    -134.237 eV)
    19      33       --         4.295 au  Pb            1.00      2 F:z3            1
                        (     116.866 eV)
    20      34       --        36.958 au  Pb            1.00      3 F:z3            1
                        (    1005.677 eV)
    21      35      2.000      -4.933 au  Pb            1.00      1 F:z             1
                        (    -134.237 eV)
    22      36       --         4.295 au  Pb            1.00      2 F:z             1
                        (     116.866 eV)
    23      37       --        36.958 au  Pb            1.00      3 F:z             1
                        (    1005.677 eV)
    24      38      1.000      -0.245 au  H             0.71      1 S               2
                        (      -6.661 eV)               0.71      1 S               3
    25      39       --         0.387 au  H             0.71      2 S               2
                        (      10.544 eV)               0.71      2 S               3
    26      40       --         0.398 au  H             0.71      1 P:y             2
                        (      10.843 eV)              -0.71      1 P:y             3
    27      41       --         0.398 au  H             0.71      1 P:z             2
                        (      10.843 eV)               0.71      1 P:z             3
    28      42      2.000      -0.896 au  O             1.00      1 S               4
                        (     -24.370 eV)
    29      43       --         0.998 au  O             1.00      2 S               4
                        (      27.170 eV)
    30      44      1.333      -0.347 au  O             1.00      1 P:z             4
                        (      -9.441 eV)
    31      45       --         0.813 au  O             1.00      2 P:z             4
                        (      22.121 eV)
    32      46       --         1.051 au  O             1.00      1 D:z2            4
                        (      28.612 eV)
    33      47       --         1.051 au  O             1.00      1 D:x2-y2         4
                        (      28.612 eV)



                                       === A2 ===
 Nr. of SFOs :    8
 Cartesian basis functions that participate in this irrep (total number =    11) :
     15    21    48    54    60    69    79    89    97   102
    115

    SFO  (index         Fragment          Generating    Expansion in Fragment Orbitals
  indx  incl.CFs)   Occup   Orb.Energy   FragmentType  Coeff.   Orbital     on Fragment
 --------------------------------------------------------------------------------------
     1       3      2.000      -0.786 au  Pb            1.00      1 D:xy            1
                        (     -21.381 eV)
     2       4       --         0.427 au  Pb            1.00      2 D:xy            1
                        (      11.626 eV)
     3       5       --         3.399 au  Pb            1.00      3 D:xy            1
                        (      92.482 eV)
     4       6      2.000      -4.933 au  Pb            1.00      1 F:xyz           1
                        (    -134.237 eV)
     5       7       --         4.295 au  Pb            1.00      2 F:xyz           1
                        (     116.866 eV)
     6       8       --        36.958 au  Pb            1.00      3 F:xyz           1
                        (    1005.677 eV)
     7       9       --         0.398 au  H             0.71      1 P:x             2
                        (      10.843 eV)              -0.71      1 P:x             3
     8      10       --         1.051 au  O             1.00      1 D:xy            4
                        (      28.612 eV)



                                       === B1 ===
 Nr. of SFOs :   18
 Cartesian basis functions that participate in this irrep (total number =    27) :
      5     8    11    16    22    32    35    38    41    44
     49    55    61    70    80    90    65    68    75    78
     85    88    97   102   108   111   116

    SFO  (index         Fragment          Generating    Expansion in Fragment Orbitals
  indx  incl.CFs)   Occup   Orb.Energy   FragmentType  Coeff.   Orbital     on Fragment
 --------------------------------------------------------------------------------------
     1       6      2.000      -3.139 au  Pb            1.00      1 P:x             1
                        (     -85.422 eV)
     2       7      0.667      -0.133 au  Pb            1.00      2 P:x             1
                        (      -3.632 eV)
     3       8       --         0.045 au  Pb            1.00      3 P:x             1
                        (       1.212 eV)
     4       9       --         0.426 au  Pb            1.00      4 P:x             1
                        (      11.596 eV)
     5      10       --         3.056 au  Pb            1.00      5 P:x             1
                        (      83.146 eV)
     6      11      2.000      -0.786 au  Pb            1.00      1 D:xz            1
                        (     -21.381 eV)
     7      12       --         0.427 au  Pb            1.00      2 D:xz            1
                        (      11.626 eV)
     8      13       --         3.399 au  Pb            1.00      3 D:xz            1
                        (      92.482 eV)
     9      14      2.000      -4.933 au  Pb            1.00      1 F:z2x           1
                        (    -134.237 eV)
    10      15       --         4.295 au  Pb            1.00      2 F:z2x           1
                        (     116.866 eV)
    11      16       --        36.958 au  Pb            1.00      3 F:z2x           1
                        (    1005.677 eV)
    12      17      2.000      -4.933 au  Pb            1.00      1 F:x             1
                        (    -134.237 eV)
    13      18       --         4.295 au  Pb            1.00      2 F:x             1
                        (     116.866 eV)
    14      19       --        36.958 au  Pb            1.00      3 F:x             1
                        (    1005.677 eV)
    15      20       --         0.398 au  H             0.71      1 P:x             2
                        (      10.843 eV)               0.71      1 P:x             3
    16      21      1.333      -0.347 au  O             1.00      1 P:x             4
                        (      -9.441 eV)
    17      22       --         0.813 au  O             1.00      2 P:x             4
                        (      22.121 eV)
    18      23       --         1.051 au  O             1.00      1 D:xz            4
                        (      28.612 eV)



                                       === B2 ===
 Nr. of SFOs :   21
 Cartesian basis functions that participate in this irrep (total number =    33) :
      6     9    12    18    24    33    36    39    42    45
     51    57    63    73    83    93    66    71    76    81
     86    91    95   100    96   101    99   104    98   103
    109   112   118

    SFO  (index         Fragment          Generating    Expansion in Fragment Orbitals
  indx  incl.CFs)   Occup   Orb.Energy   FragmentType  Coeff.   Orbital     on Fragment
 --------------------------------------------------------------------------------------
     1       6      2.000      -3.139 au  Pb            1.00      1 P:y             1
                        (     -85.422 eV)
     2       7      0.667      -0.133 au  Pb            1.00      2 P:y             1
                        (      -3.632 eV)
     3       8       --         0.045 au  Pb            1.00      3 P:y             1
                        (       1.212 eV)
     4       9       --         0.426 au  Pb            1.00      4 P:y             1
                        (      11.596 eV)
     5      10       --         3.056 au  Pb            1.00      5 P:y             1
                        (      83.146 eV)
     6      11      2.000      -0.786 au  Pb            1.00      1 D:yz            1
                        (     -21.381 eV)
     7      12       --         0.427 au  Pb            1.00      2 D:yz            1
                        (      11.626 eV)
     8      13       --         3.399 au  Pb            1.00      3 D:yz            1
                        (      92.482 eV)
     9      14      2.000      -4.933 au  Pb            1.00      1 F:z2y           1
                        (    -134.237 eV)
    10      15       --         4.295 au  Pb            1.00      2 F:z2y           1
                        (     116.866 eV)
    11      16       --        36.958 au  Pb            1.00      3 F:z2y           1
                        (    1005.677 eV)
    12      17      2.000      -4.933 au  Pb            1.00      1 F:y             1
                        (    -134.237 eV)
    13      18       --         4.295 au  Pb            1.00      2 F:y             1
                        (     116.866 eV)
    14      19       --        36.958 au  Pb            1.00      3 F:y             1
                        (    1005.677 eV)
    15      20      1.000      -0.245 au  H             0.71      1 S               2
                        (      -6.661 eV)              -0.71      1 S               3
    16      21       --         0.387 au  H             0.71      2 S               2
                        (      10.544 eV)              -0.71      2 S               3
    17      22       --         0.398 au  H             0.71      1 P:y             2
                        (      10.843 eV)               0.71      1 P:y             3
    18      23       --         0.398 au  H             0.71      1 P:z             2
                        (      10.843 eV)              -0.71      1 P:z             3
    19      24      1.333      -0.347 au  O             1.00      1 P:y             4
                        (      -9.441 eV)
    20      25       --         0.813 au  O             1.00      2 P:y             4
                        (      22.121 eV)
    21      26       --         1.051 au  O             1.00      1 D:yz            4
                        (      28.612 eV)



 ================================
 (Slater-type)  F U N C T I O N S  ***  (Basis and Fit)  ***
 ================================
  

 Atom Type    1  (Pb)
 ==============

 Valence Basis Sets:  26
 -----------------------
   1 S   60.000000
   2 S   37.900000
   3 S   22.100000
   4 S   13.150000
   2 P   38.650000
   3 P   20.600000
   4 P   12.450000
   3 D   23.450000
   4 D   11.600000
   1 S  196.000000
   5 S    7.650000
   5 S    5.200000
   6 S    3.700000
   6 S    2.400000
   6 S    1.580000
   5 P    6.600000
   5 P    4.200000
   6 P    2.700000
   6 P    1.600000
   6 P    0.960000
   5 D    6.000000
   5 D    3.650000
   5 D    2.200000
   4 F   17.560000
   4 F    9.950000
   4 F    5.750000

 Frozen Core Shells
 ------------------
    S:  4
    P:  3
    D:  2

 Atom Type    2  (H)
 ==============

 Valence Basis Sets:   3
 -----------------------
   1 S    0.760000
   1 S    1.280000
   2 P    1.250000

 Atom Type    3  (O)
 ==============

 Valence Basis Sets:   6
 -----------------------
   1 S    7.360000
   2 S    1.700000
   2 S    2.820000
   2 P    1.300000
   2 P    3.060000
   3 D    2.000000

 Frozen Core Shells
 ------------------
    S:  1


 BAS: List of all Elementary Cartesian Basis Functions
 =====================================================

 The numbering in the list below (to the right of the function characteristics) is referred
 to in print-outs of MO eigenvectors and Mulliken populations in the BAS representation
 (as contrasted to the SFO representation).

 Notes:
 1. The functions are characterized by a polynomial prefactor (powers of x,y,z and r) and
    an exponential decay factor alpha.
 2. Since the basis sets are specific for an atom TYPE, the individual functions occur on
    all atoms of that type.
 3. The word 'Core' in the left margin signals that it is a Core Function (CF) : not a
    degree of freedom in the valence set, but only used to ensure orthogonalization of
    the other valence basis functions on the frozen Core Orbitals.


 (power of) X  Y  Z  R     Alpha  on Atom
            ==========     =====     ==========

 Pb                                   1
                                  ---------------------------------------------------------------------------
    Core    0  0  0  0    60.000      1
    Core    0  0  0  1    37.900      2
    Core    0  0  0  2    22.100      3
    Core    0  0  0  3    13.150      4
    Core    1  0  0  0    38.650      5
    Core    0  1  0  0    38.650      6
    Core    0  0  1  0    38.650      7
    Core    1  0  0  1    20.600      8
    Core    0  1  0  1    20.600      9
    Core    0  0  1  1    20.600     10
    Core    1  0  0  2    12.450     11
    Core    0  1  0  2    12.450     12
    Core    0  0  1  2    12.450     13
    Core    2  0  0  0    23.450     14
    Core    1  1  0  0    23.450     15
    Core    1  0  1  0    23.450     16
    Core    0  2  0  0    23.450     17
    Core    0  1  1  0    23.450     18
    Core    0  0  2  0    23.450     19
    Core    2  0  0  1    11.600     20
    Core    1  1  0  1    11.600     21
    Core    1  0  1  1    11.600     22
    Core    0  2  0  1    11.600     23
    Core    0  1  1  1    11.600     24
    Core    0  0  2  1    11.600     25
            0  0  0  0   196.000     26
            0  0  0  4     7.650     27
            0  0  0  4     5.200     28
            0  0  0  5     3.700     29
            0  0  0  5     2.400     30
            0  0  0  5     1.580     31
            1  0  0  3     6.600     32
            0  1  0  3     6.600     33
            0  0  1  3     6.600     34
            1  0  0  3     4.200     35
            0  1  0  3     4.200     36
            0  0  1  3     4.200     37
            1  0  0  4     2.700     38
            0  1  0  4     2.700     39
            0  0  1  4     2.700     40
            1  0  0  4     1.600     41
            0  1  0  4     1.600     42
            0  0  1  4     1.600     43
            1  0  0  4     0.960     44
            0  1  0  4     0.960     45
            0  0  1  4     0.960     46
            2  0  0  2     6.000     47
            1  1  0  2     6.000     48
            1  0  1  2     6.000     49
            0  2  0  2     6.000     50
            0  1  1  2     6.000     51
            0  0  2  2     6.000     52
            2  0  0  2     3.650     53
            1  1  0  2     3.650     54
            1  0  1  2     3.650     55
            0  2  0  2     3.650     56
            0  1  1  2     3.650     57
            0  0  2  2     3.650     58
            2  0  0  2     2.200     59
            1  1  0  2     2.200     60
            1  0  1  2     2.200     61
            0  2  0  2     2.200     62
            0  1  1  2     2.200     63
            0  0  2  2     2.200     64
            3  0  0  0    17.560     65
            2  1  0  0    17.560     66
            2  0  1  0    17.560     67
            1  2  0  0    17.560     68
            1  1  1  0    17.560     69
            1  0  2  0    17.560     70
            0  3  0  0    17.560     71
            0  2  1  0    17.560     72
            0  1  2  0    17.560     73
            0  0  3  0    17.560     74
            3  0  0  0     9.950     75
            2  1  0  0     9.950     76
            2  0  1  0     9.950     77
            1  2  0  0     9.950     78
            1  1  1  0     9.950     79
            1  0  2  0     9.950     80
            0  3  0  0     9.950     81
            0  2  1  0     9.950     82
            0  1  2  0     9.950     83
            0  0  3  0     9.950     84
            3  0  0  0     5.750     85
            2  1  0  0     5.750     86
            2  0  1  0     5.750     87
            1  2  0  0     5.750     88
            1  1  1  0     5.750     89
            1  0  2  0     5.750     90
            0  3  0  0     5.750     91
            0  2  1  0     5.750     92
            0  1  2  0     5.750     93
            0  0  3  0     5.750     94

 H                                    2    3
                                  ---------------------------------------------------------------------------
            0  0  0  0     0.760     95  100
            0  0  0  0     1.280     96  101
            1  0  0  0     1.250     97  102
            0  1  0  0     1.250     98  103
            0  0  1  0     1.250     99  104

 O                                    4
                                  ---------------------------------------------------------------------------
    Core    0  0  0  0     7.360    105
            0  0  0  1     1.700    106
            0  0  0  1     2.820    107
            1  0  0  0     1.300    108
            0  1  0  0     1.300    109
            0  0  1  0     1.300    110
            1  0  0  0     3.060    111
            0  1  0  0     3.060    112
            0  0  1  0     3.060    113
            2  0  0  0     2.000    114
            1  1  0  0     2.000    115
            1  0  1  0     2.000    116
            0  2  0  0     2.000    117
            0  1  1  0     2.000    118
            0  0  2  0     2.000    119

 Total number of charge fitting functions (nprimf)       524
 Total number of Cartesian basis functions (naos)        119
 Total number of Cartesian core functions  (ncos)         26

1
 ***************************************************************************************************



                                              ***********************
                                              *  T E C H N I C A L  *
                                              ***********************
  



 =============================================================
 P A R A L L E L I Z A T I O N  and  V E C T O R I Z A T I O N
 =============================================================
  
 Nr of parallel processes:                               12
 Maximum vector length in NumInt loops:                 128



 =====================
 S C F   U P D A T E S
 =====================
  
 Max. nr. of cycles:                               300
 Convergence criterion:                              0.0000010000
   secondary criterion:                              0.0010000000

 Mix parameter (when DIIS does not apply):           0.2000000000
 Mixed ADIIS+SDIIS will be used                  
    Max number of expansion vectors:                10
    Pure ADIIS when Max([F,P]) is above              0.1000000000
    Pure SDIIS when Max([F,P]) is below              0.0010000000
 Automatic ElectronSmearing (in case of problematic SCF convergence) disabled



 =================
 P R E C I S I O N  ***  (General: NumInt, NeglectFunctionTails, ...)  ***
 =================
  

 NumInt:           Target precision:                 4.0000000000
 -------           Initial precision:                4.0000000000
                   Min. precision (optimization):    4.0000000000

 Neglect Functions:          Basis functions:        0.1000000000E-05
 ------------------          Fit functions:          0.1000000000E-05



 ===========================
 L I N E A R   S C A L I N G
 ===========================
  

 Cut-off radii density fit:                        0.1000000000E-07
 Overlap cut-off criterion AO matrix elements:     0.1000000000E-05
 Cut-offs for Coulomb potential and fitted density:0.1000000000E-07
 Cut-off criterion for Coulomb multipole terms:    0.1000000000E-07
 Progressive Convergence parameter:                 0.000000000    

 Number of elements of the density matrix on this node (used, total):      4465      7140



 ===========================================
 Numerical Integration : Fuzzy Cells (Becke)
 ===========================================
  
 Becke grid quality: NORMAL         
  
 Lebedev angular grid order:             min:  11 max:  23
 Nr. of radial points:                   min:  46 max: 123

 Total nr. of points:      10154
 Nr. of blocks:               80
 Block length:               127
 Nr. of dummy points:          6


 Test of Precision of the Numerical Integration Grid
 ===================================================

 Integral of the Total Core Density:                  47.99999748068844
 Relative Error:                                      -5.249E-08



 ========================
 Density Fitting (zlmFit)
 ========================
  
 ZlmFit Fit Quality: NORMAL         
  
 Max L-expansion:                        min:   5 max:   7
 Nr. of radial interpolation points:     min:  36 max: 114



 =====
 S C F  ***  ScaSCF  ***
 =====
  
 Initial density matrix is taken from previous geometry

 CYCLE    1
 SCF Error: norm([F,P])=      3.748596995093, max([F,P])=      0.718996201646
 orbitals (Q,E):
 ---------------
 E1/2 :12...31       ( 2.00    -1.3912)  ( 2.00    -1.3679)  ( 2.00    -1.3609)  ( 2.00    -1.2896)
                     ( 2.00    -1.2862)  ( 2.00    -1.2834)  ( 2.00    -0.9598)  ( 2.00    -0.9346)
                     ( 2.00    -0.8239)  ( 2.00    -0.7347)  ( 0.00    -0.5977)  ( 0.00    -0.5574)
                     ( 0.00    -0.5130)  ( 0.00    -0.3555)  ( 0.00    -0.2915)  ( 0.00    -0.2662)
                     ( 0.00    -0.2271)  ( 0.00    -0.2157)  ( 0.00    -0.2108)  ( 0.00    -0.1043)

 CYCLE    2
   MIX coefficients:  0.8000  0.2000
 SCF Error: norm([F,P])=      0.000000158861, max([F,P])=      0.000000023522
 orbitals (Q,E):
 ---------------
 E1/2 :12...31       ( 2.00    -1.3912)  ( 2.00    -1.3679)  ( 2.00    -1.3609)  ( 2.00    -1.2896)
                     ( 2.00    -1.2862)  ( 2.00    -1.2834)  ( 2.00    -0.9598)  ( 2.00    -0.9346)
                     ( 2.00    -0.8239)  ( 2.00    -0.7347)  ( 0.00    -0.5977)  ( 0.00    -0.5574)
                     ( 0.00    -0.5130)  ( 0.00    -0.3555)  ( 0.00    -0.2915)  ( 0.00    -0.2662)
                     ( 0.00    -0.2271)  ( 0.00    -0.2157)  ( 0.00    -0.2108)  ( 0.00    -0.1043)

 SCF CONVERGED

 CYCLE    3
1
 ***************************************************************************************************



                                                *******************
                                                *  R E S U L T S  *
                                                *******************
  
 *** Using FIT density in Focky
  SDIIS (wt  0.000): -1.1362  2.1362
 A-DIIS (wt  1.000):  0.0000  1.0000
  DIIS coefficients:  0.0000  1.0000
 SCF Error: norm([F,P])=      0.000000086315, max([F,P])=      0.000000012969

 Scaled ZORA Orbital Energies, per Irrep and Spin:
 =================================================
                        Occup              E (au)              E (eV)       Diff (eV) with prev. cycle
                        -----      --------------------        ------       --------------------------
 E1/2
              12        2.000     -0.13911504648727E+01       -37.855              -2.51E-08
              13        2.000     -0.13678838728203E+01       -37.222               5.16E-07
              14        2.000     -0.13608697874187E+01       -37.031               4.51E-07
              15        2.000     -0.12895704352910E+01       -35.091               4.98E-07
              16        2.000     -0.12861693341104E+01       -34.998               5.00E-07
              17        2.000     -0.12833787077545E+01       -34.923               4.91E-07
              18        2.000     -0.95981061742024E+00       -26.118               2.15E-07
              19        2.000     -0.93456432016602E+00       -25.431              -9.20E-08
              20        2.000     -0.82386855132065E+00       -22.419               5.41E-08
              21        2.000     -0.73468599865119E+00       -19.992              -5.06E-08
              22        0.000     -0.59772783648546E+00       -16.265
              23        0.000     -0.55740180915984E+00       -15.168
              24        0.000     -0.51299443818557E+00       -13.959
              25        0.000     -0.35547205699054E+00        -9.673
              26        0.000     -0.29154643691423E+00        -7.933
              27        0.000     -0.26615476114438E+00        -7.242
              28        0.000     -0.22714402136352E+00        -6.181
              29        0.000     -0.21567389360888E+00        -5.869
              30        0.000     -0.21083529060478E+00        -5.737
              31        0.000     -0.10426150394640E+00        -2.837
  
 HOMO :       21 E1/2             -0.73468599865119E+00
 LUMO :       22 E1/2             -0.59772783648546E+00
  


 Scaled ZORA Orbital Energies of the Core Orbitals:
 ==================================================

 (Note that the atoms are grouped by atomtype, see the labels, and may hence NOT be in input order)

 AtomType  Orbital  Atom                   E (au)                        E (eV)
 --------  -------  ----           --------------------        ----------------
 Pb          1S        1          -0.32300775117637E+04              -87894.881
             2S        1          -0.57785809613823E+03              -15724.319
             3S        1          -0.13917982203186E+03               -3787.276
             4S        1          -0.31950895310545E+02                -869.428
             2P        1          -0.49540973806120E+03              -13480.785
             3P        1          -0.11553362620842E+03               -3143.830
             4P        1          -0.24221011636140E+02                -659.087
             3D        1          -0.91665489305391E+02               -2494.345
             4D        1          -0.15329189822903E+02                -417.128
 O           1S        4          -0.19303024520541E+02                -525.262


 Fit test: (difference of exact and fit density, squared integrated, result summed over spins)
         Sum-of-Fragments:                             0.00000000008040
         Orthogonalized Fragments:                     0.00002866493259
         SCF:                                          0.00009095190573



 ==========================
 Electron Density at Nuclei
 ==========================
  
 The electron density is calculated at points on a small sphere around the center of a nucleus.
 The printed electron density is the average electron density on these points.
 The radius of the sphere is the printed approximate finite nuclear radius.
 Note: ZORA-4 density is used, which includes small component density

         Atom        Nuclear Radius (Angstrom)             Electron Density (a.u.)
         ----        -------------------------             -----------------------
     1)   Pb                0.0000713054                          2606419.28237
     2)   H                 0.0000181514                                0.39936
     3)   H                 0.0000181514                                0.39936
     4)   O                 0.0000345546                              317.65627



 =======================================
 M U L L I K E N   P O P U L A T I O N S
 =======================================
  
 The survey below gives for each atom:
 a) the total charge (Z minus electrons)
 b) the net spin polarization (nr of electrons spin-A minus spin-B)
 c) for each spin the atomic electron valence density (integrated) per L-value.

 Atom              Charge    Spin density          S         P         D         F
 ----              ------    ------------       ------    ------    ------    ------
 1 Pb              1.7782                       3.9872    6.2168   10.0178   14.0000
 2 H               0.4535                       0.4987    0.0479    0.0000    0.0000
 3 H               0.4535                       0.4987    0.0479    0.0000    0.0000
 4 O              -0.6851                       1.8475    4.8209    0.0167    0.0000

 Populations of individual BAS functions
 ----------------------------------------
 1 Pb          -0.0030 -0.0024  0.0031  0.0614 -0.0017 -0.0017 -0.0017 -0.0032 -0.0032 -0.0032
                0.0733  0.0732  0.0738  0.0046  0.0069  0.0069  0.0046  0.0069  0.0046  0.0371
                0.0557  0.0558  0.0371  0.0557  0.0375  0.0004  1.3247  0.6851  0.9695  0.9185
                0.0299  1.3298  1.3283  1.3366  0.6083  0.6086  0.6060  0.0266 -0.0005  0.1394
                0.0163 -0.0014  0.0014 -0.0042  0.0009  0.0150  0.4864  0.7284  0.7308  0.4862
                0.7296  0.4898  0.7231  1.0880  1.0868  0.7220  1.0866  0.7322  0.0865  0.1211
                0.1264  0.0909  0.1221  0.0677  0.1599  0.3198  0.3198  0.3198  0.3997  0.3198
                0.1599  0.3198  0.3198  0.1599  0.4921  0.9842  0.9842  0.9841  1.2303  0.9844
                0.4920  0.9842  0.9844  0.4923  0.1483  0.2961  0.2963  0.2963  0.3700  0.2954
                0.1485  0.2965  0.2954  0.1470
 2 H           -0.2200  0.7187  0.0277  0.0035  0.0167
 3 H           -0.2200  0.7187  0.0277  0.0035  0.0167
 4 O            0.0004  0.9539  0.8932  1.0021  0.6314  0.8178  0.8905  0.7318  0.7473 -0.0301
                0.0000  0.0004  0.0207  0.0089  0.0168

 Gross Charges per Atom (Z minus electrons)
 ==========================================
             1.7782    0.4535    0.4535   -0.6851
 Net Total:  2.00000000


 Atom-Atom Population Matrix (off-diagonal elements not doubled)
 ===============================================================

     1 :    34.1603
     2 :     0.0017    0.2845
     3 :     0.0017   -0.0322    0.2845
     4 :     0.0580    0.2925    0.2925    6.0421



 =================================================
 H I R S H F E L D   C H A R G E   A N A L Y S I S
 =================================================
  
 For each fragment: the (numerical) integral of rho(scf) * rho(fragment)/rho(sum-of-fragments)
 (nuclear charges are included, electrons are counted negative)

 The fragments and their ordering are defined in the early G E O M E T R Y output section.
 If you use single-atom fragments, this usually implies that all atoms of the same
 chemical type are grouped together. This may not be the order in which you listed them
 in the input file!

    1  Pb                        1.6161
    2  H                         0.2631
    3  H                         0.2631
    4  O                        -0.1422

 Sum of these charges (accuracy NumInt/Tails) =           2.00001825



 =============================
 V O R O N O I   C H A R G E S
 =============================
  
 For each atom: the (numerical) integral of the total electronic charge density in its Voronoi cell,
 i.e. the region of space that is closer to that atom than to any other atom.
 (cf. Wigner-Seitz cells in crystals)

 Within the Voronoi cell the subintegrals over the atomic sphere and the remaining part are evaluated
 separately to give the numbers of electrons (negative charge) in these regions.
 The net total charge in the cell (including the nuclear charge) is also given.

 Values are provided for
    a) the Initial (sum-of-fragments) density
    b) the Orthogonalized-Fragments density
    c) the SCF density
    d) the Voronoi Deformation Density (VDD): the difference SCF-Initial for the complete atomic cell


  Atom                Initial                    OrthFrag                   SCF
             Sphere RestCell NetTotal   Sphere RestCell NetTotal   Sphere RestCell NetTotal      VDD
 -----       ------------------------   ------------------------   ------------------------    -----
    1 Pb    -72.853   -8.759    0.388  -72.866   -8.826    0.307  -72.874   -7.250    1.877    1.489
    2 H      -0.079   -1.442   -0.521   -0.086   -1.316   -0.402   -0.089   -1.101   -0.190    0.331
    3 H      -0.079   -1.442   -0.521   -0.086   -1.316   -0.402   -0.089   -1.101   -0.190    0.331
    4 O      -2.819   -4.528    0.653   -2.998   -4.505    0.497   -2.841   -4.657    0.502   -0.151
 ---------------------------------------------------------------------------------------------------
 Total NetCharge:               0.000                      0.000                      2.000    2.000
 (accuracy NumInt/Tails)

 Remark: the 'NetTotal' Voronoi charges often do not match the Mulliken and/or Hirshfeld charges very
 well. This is caused by the fact that chemically different atoms are not treated in accordance with
 their relative sizes. (Voronoi cells are defined by boundary planes halfway between the atoms.)
 However, the CHANGES in charge, comparing 'Initial' to 'SCF' for instance, do give a fair indication
 of the flow of charge caused by the relaxation from sum-of-fragments to self-consistency.

 Warning: the absolute accuracy of the VDD charges obtained using the Fuzzy Cells (Becke) integration
 scheme is much poorer than the one obtained with an 'equivalent' Voronoi integration grid. 



 =================================================================
 M U L T I P O L E   D E R I V E D   C H A R G E   A N A L Y S I S
 =================================================================

 This charge analysis uses the atomic multipoles (obtained from the fitted density) up to some level X,
 and reconstructs these multipoles exactly (up to level X) by distributing charges over all atoms.
 This is achieved by using Lagrange multipliers and a weight function to keep the multipoles local.

 Dummy atoms can be included (by setting INCDUM in MDC-block to 1) to obtain a fractional charge.
 This is generally useful and necessary only for small symmetrical molecules, when there are not
 enough degrees of freedom to reconstruct the multipoles.

 Since the atomic multipoles are reconstructed up to level X,
 the molecular multipoles are represented also up to level X.
 The recommended level is to reconstruct up to quadrupole : -> MDC-q charges.

 See: M. Swart, P.Th. van Duijnen, J.G. Snijders, J.Comput.Chem., (2001), p. 79-88.

 ------------------------------------------------------------- 
 Atomic electronic multipole moments from SCF equations (a.u.)
 ------------------------------------------------------------- 

   atom        charge        dip-x     dip-y     dip-z      quad-xx   quad-xy   quad-xz   quad-yy   quad-yz   quad-zz
 --------------------------------------------------------------------------------------------------------------------
    1 Pb     1.811074    -0.000000 -0.000000 -0.291609    -0.099916 -0.000000 -0.000000  0.120530  0.000000 -0.020614
    2 H      0.207054     0.000000 -0.103053 -0.094776    -0.138394  0.000000  0.000000  0.122436  0.061638  0.015958
    3 H      0.207054     0.000000  0.103053 -0.094776    -0.138394 -0.000000  0.000000  0.122436 -0.061638  0.015958
    4 O     -0.225181    -0.000000 -0.000000 -0.587786    -0.928651 -0.000000 -0.000000  0.790060 -0.000000  0.138591

 --------------------------------------- 
 Multipole derived atomic charges (a.u.)
 --------------------------------------- 

 The MDC-m charges are just the Monopole terms in the multipole expansion, while for the MDC-d charges
 also the Dipoles are reconstructed. The usually preferred charges are the MDC-q charges.
 These reconstruct the Monopoles, Dipoles and Quadrupoles (both atomic AND molecular).

        Atom    Level:     MDC-m        MDC-d        MDC-q
 ---------------------------------------------------------
     1     Pb           1.811074     1.730965     1.823530
     2     H            0.207054     0.521042     0.475318
     3     H            0.207054     0.521042     0.475318
     4     O           -0.225181    -0.773049    -0.774166

 ------------------------------------------------ 
 Average absolute deviations in atomic multipoles
 ------------------------------------------------ 

 Stated here are the average differences between the atomic multipoles
 and the reconstructed atomic multipoles (from the distributed charges).
 If these values are not zero, this means there are not enough degrees of freedom,
 to be able to reconstruct the atomic multipoles. (This usually happens only
 for small and/or highly symmetric molecules). If this is the case, one could add
 dummy atoms as extra point charges (and setting INCDUM in MDC-block to 1).

 Level:                                 MDC-d        MDC-q
 ---------------------------------------------------------
 Charge   (a.u.)                       0.0000       0.0000
 Dipole   (Debye)                      0.0000       0.1686
 Quad.    (a.u.)                       0.2200       0.0182

 --------------------------------------- 
 Represented molecular multipole moments
 --------------------------------------- 

 Given here are the Molecular multipole moments from the atomic charges, and from the Fit Density.
 Note that the atomic charges represent the latter, NOT the ones from the Exact density.

            Q (a.u.)             Dipole moment (Debye)                                          Quadrupole moment (a.u.)
                                 x         y         z              xx        xy        xz        yy        yz        zz
------------------------------------------------------------------------------------------------------------------------
MDC-m         2.0000        0.0000    0.0000   16.5008        -14.8021    0.0000   -0.0000  -13.3840   -0.0000   28.1861
MDC-d         2.0000       -0.0000   -0.0000   13.7838        -15.7133    0.0000    0.0000  -12.1449    0.0000   27.8582
MDC-q         2.0000       -0.0000   -0.0000   15.0933        -16.1842    0.0000    0.0000  -12.9289    0.0000   29.1131
 
Fit.Dens.     2.0000       -0.0000   -0.0000   13.7838        -15.9190   -0.0000   -0.0000  -11.1059   -0.0000   27.0248



 =============
 Dipole Moment  ***  (Debye)  ***
 =============
  
 Vector   :         0.00000000     -0.00000000     13.78553863
 Magnitude:        13.78553863

 This molecular dipole moment is calculated with analytic integration
 ************************************************************************************
 Since the molecule is NOT NEUTRAL, the dipole moment depends on the choice of origin
 ************************************************************************************



 =========================================
 Quadrupole Moment (Buckingham convention)  ***  (a.u.)  ***
 =========================================
  
      quad-xx        quad-xy        quad-xz        quad-yy        quad-yz        quad-zz
    -15.92208928     0.00000000     0.00000000   -11.10622658     0.00000000    27.02831586

 This molecular quadrupole moment is calculated with analytic integration
1



 ===========================
 B O N D I N G   E N E R G Y  ***  (decomposition)  ***
 ===========================
  
*** IMPORTANT NOTE ***

The bond energy is computed as an energy difference between molecule and
fragments. In particular when the fragments are single atoms, they are usually
computed as SPHERICALLY SYMMETRIC and SPIN-RESTRICTED. Obviously, this usually
does NOT represent the true atomic groundstate.

To obtain the 'real' bond energy, (atomic) correction terms must be applied
for the true (multiplet) fragment ground state. See ref: E.J.Baerends,
V.Branchadell, M.Sodupe, Chem.Phys.Lett.265 (1997) 481

General theoretical background on the bond energy decomposition scheme used
here (Morokuma-Ziegler) can be found in the review paper:
F.M. Bickelhaupt and E.J. Baerends,
"Kohn-Sham Density Functional Theory: Predicting and Understanding Chemistry"
In: Rev. Comput. Chem.; Lipkowitz, K. B. and Boyd, D. B., Eds.;
Wiley-VCH: New York, 2000, Vol. 15, 1-86.

Symbols used in the Bickelhaupt-Baerends (BB) paper are given below to make
the direct connection to that paper, where detailed explanations can be found
on the meaning of the various terms.
The Spin-Orbit term is calculated as the expectation value of the spin-orbit
 operator summed over all occupied spinors.


                                                   hartree              eV         kcal/mol           kJ/mol
                                      --------------------     -----------       ----------      -----------

Pauli Repulsion
  Kinetic (Delta T^0):                   5.375067782716082        146.2630          3372.91         14112.24
  Delta V^Pauli Coulomb:                -3.356068857545114        -91.3233         -2105.97         -8811.36
  Delta V^Pauli LDA-XC:                 -0.653208492703096        -17.7747          -409.89         -1715.00
  Delta V^Pauli GGA-Exchange:            0.038654979664301          1.0519            24.26           101.49
  Delta V^Pauli GGA-Correlation:        -0.013287123186937         -0.3616            -8.34           -34.89
                                      --------------------     -----------       ----------      -----------
  Total Pauli Repulsion:                 1.391158288945236         37.8553           872.97          3652.49
 (Total Pauli Repulsion =
  Delta E^Pauli in BB paper)

Steric Interaction
  Pauli Repulsion (Delta E^Pauli):       1.391158288945236         37.8553           872.97          3652.49
  Electrostatic Interaction:            -0.303701400128867         -8.2641          -190.58          -797.37
 (Electrostatic Interaction =
  Delta V_elstat in the BB paper)
                                      --------------------     -----------       ----------      -----------
  Total Steric Interaction:              1.087456888816369         29.5912           682.39          2855.12
 (Total Steric Interaction =
  Delta E^0 in the BB paper)

Orbital Interactions
  A1:                                   -0.426429428308203        -11.6037          -267.59         -1119.59
  A2:                                    0.004180571877209          0.1138             2.62            10.98
  B1:                                   -0.113087946452414         -3.0773           -70.96          -296.91
  B2:                                   -0.302888843043498         -8.2420          -190.07          -795.23
  Spin-Orbit:                           -0.211667018443943         -5.7598          -132.82          -555.73
                                      --------------------     -----------       ----------      -----------
  Total Orbital Interactions:           -1.049892664371033        -28.5690          -658.82         -2756.49

Alternative Decomposition Orb.Int.
  Kinetic:                              -5.380463988048375       -146.4099         -3376.29        -14126.41
  Coulomb:                               3.932649005302515        107.0128          2467.77         10325.17
  XC:                                    0.609589336818768         16.5878           382.52          1600.48
  Spin-Orbit:                           -0.211667018443943         -5.7598          -132.82          -555.73
                                      --------------------     -----------       ----------      -----------
  Total Orbital Interactions:           -1.049892664371034        -28.5690          -658.82         -2756.49

  Residu (E=Steric+OrbInt+Res):         -0.000033772563135         -0.0009            -0.02            -0.09

Total Bonding Energy:                    0.037530451882201          1.0213            23.55            98.54


Summary of Bonding Energy (energy terms are taken from the energy decomposition above)
======================================================================================

  Electrostatic Energy:                 -0.303701400128867         -8.2641          -190.58          -797.37
  Kinetic Energy:                       -0.005396205332294         -0.1468            -3.39           -14.17
  Coulomb (Steric+OrbInt) Energy:        0.576546375194267         15.6886           361.79          1513.72
  XC Energy:                            -0.018251299406964         -0.4966           -11.45           -47.92
  Spin-Orbit:                           -0.211667018443943         -5.7598          -132.82          -555.73
                                      --------------------     -----------       ----------      -----------
  Total Bonding Energy:                  0.037530451882200          1.0213            23.55            98.54


Correction terms (incorporated in energies above; only for test purposes):

1. Indication of fit-quality: 1st-order fit-correction used in the energy (hartree):  -0.0003344450
2. Electrostatic (Fit correction):   0.0000000000

Scaled ZORA energy correction, not included in bonding energy (hartree):            0.0001622091
 NOTE: This scaled ZORA energy correction should only be used to compare two calculations
 in which the only difference in the calculation is the electron configuration.
 Then the difference in energy of this term should be added to the difference in energy of
 the two electron configurations.
 This term should not be used otherwise.
 In practice it is useful only for core excitation energy calculations.



 =========================================
 F R A G M E N T   E N E R G Y   T E R M S  ***  (summed over all fragments)  ***
 =========================================
  

The energy terms below are (parts of) the Total Energy of the fragments from which the molecule
 is built.

Exchange and Correlation
  Exchange LDA:                       -377.633879420584208     -10275.9407       -236968.86       -991477.61
  Exchange GGA:                        -17.425101802017696       -474.1611        -10934.42        -45749.60
  Correlation LDA:                      -9.264782091791984       -252.1075         -5813.74        -24324.68
  Correlation GGA:                       3.212665300597481         87.4211          2015.98          8434.85
                                      --------------------     -----------       ----------      -----------
  Total XC:                           -401.111098013796379     -10914.7883       -251701.04      -1053117.04

 Energy gradients wrt nuclear displacements
 ==========================================

     Atom      Cartesian (a.u./angstrom)
                 X         Y         Z
 ----------------------------------------
     1 Pb    0.000000  0.000000  0.000488
     2 H     0.000000  0.000125 -0.000094
     3 H     0.000000 -0.000125 -0.000094
     4 O     0.000000  0.000000 -0.000300
 ----------------------------------------



 =======================================================================
 Electrostatic potential at the Nuclei due to electrons and other nuclei
 =======================================================================
  
         Atom                  Potential
         ----                  ---------
     1)   Pb                644.98514286
     2)   H                   0.51550221
     3)   H                   0.51550221
     4)   O                  21.83573990
 Mulliken charges used for AMS results%charges...
 Continuous PES requested. Disabling symmetry...
 *** adf_CentralGeo ***



 ===========================
 A T T A C H E D   F I L E S
 ===========================
  
 Restart/tmp/amstmp_ams_kid0.183705070/adf.rkf*** adf ***



 ===============================
 M O D E L   P A R A M E T E R S
 ===============================
  
 DENSITY FUNCTIONAL POTENTIAL (scf)
    LDA:                               VWN                                      
    Gradient Corrections:              Becke88 Perdew86                        == Not Default ==

 SPIN  (restricted / unrestr.)
    Molecule:                          Restricted
    Fragments:                         Restricted                               

 OTHER ASPECTS
    Relativistic Corrections:          Spin-Orbit (ZORA,MAPA)                  == Not Default ==

    Nuclear Charge Density Model:      Point Charge Nuclei                      
    Core Treatment:                    Frozen Orbital(s)                        

    Hyperfine or Zeeman Interaction:   ---                                      



 ===============
 G E O M E T R Y  ***  Planar Molecule  ***
 ===============
  

 ATOMS
 =====                            X Y Z                    CHARGE
                                (Angstrom)             Nucl     +Core       At.Mass
                       --------------------------    ----------------       -------
    1  Pb              0.0000    0.0000    2.0642     82.00     36.00      207.9766
    2  H              -0.0000   -0.7995   -0.8883      1.00      1.00        1.0078
    3  H               0.0000    0.7995   -0.8883      1.00      1.00        1.0078
    4  O               0.0000   -0.0000   -0.2876      8.00      6.00       15.9949


 FRAGMENTS
 =========                                     Atoms in this Fragment     Cart. coord.s (Angstrom)
                                               -------------------------------------------------------
    1  Pb                                                1  Pb           0.0000    0.0000    2.0642
    2  H                                                 2  H           -0.0000   -0.7995   -0.8883
    3  H                                                 3  H            0.0000    0.7995   -0.8883
    4  O                                                 4  O            0.0000   -0.0000   -0.2876


 Interatomic Distance Matrix (Angstrom)
 --------------------------------------

   1)     0.000
   2)     3.059   0.000
   3)     3.059   1.599   0.000
   4)     2.352   1.000   1.000   0.000

 Min. Distance =    1.0001
 Max. Distance =    3.0589



 =====================================
 S Y M M E T R Y ,   E L E C T R O N S
 =====================================
  
 Symmetry: NOSYM

 Double Group Irreducible Representations (spinor symmetry)
 -----------------------------------------------------------
 A1/2


 Configuration of Valence Electrons
 ==================================
 ( determined in the SCF procedure )

 Total:   42

 Net Charge: 2 (Nuclei minus Electrons)

 Aufbau principle for MO occupations will be applied through SCF cycle no.     150
 Thereafter, the program will assign electrons to MOs that are spatially
 similar to the occupied MOs in a "reference" cycle ("KeepOrbitals").
 The reference cycle is always the PREVIOUS cycle: it will evolve with
 the SCF procedure.
1
 ***************************************************************************************************



                                      ****************************************
                                      *  B U I L D : (Fragments, Functions)  *
                                      ****************************************
  

 Total nr. of (C)SFOs (summation over all irreps) :    80

 Specify PRINT SFO in the input file to get a full list

 Nr. of SFOs for ir.rep.           A :    80



 ================================
 (Slater-type)  F U N C T I O N S  ***  (Basis and Fit)  ***
 ================================
  

 Atom Type    1  (Pb)
 ==============

 Valence Basis Sets:  26
 -----------------------
   1 S   60.000000
   2 S   37.900000
   3 S   22.100000
   4 S   13.150000
   2 P   38.650000
   3 P   20.600000
   4 P   12.450000
   3 D   23.450000
   4 D   11.600000
   1 S  196.000000
   5 S    7.650000
   5 S    5.200000
   6 S    3.700000
   6 S    2.400000
   6 S    1.580000
   5 P    6.600000
   5 P    4.200000
   6 P    2.700000
   6 P    1.600000
   6 P    0.960000
   5 D    6.000000
   5 D    3.650000
   5 D    2.200000
   4 F   17.560000
   4 F    9.950000
   4 F    5.750000

 Frozen Core Shells
 ------------------
    S:  4
    P:  3
    D:  2

 Atom Type    2  (H)
 ==============

 Valence Basis Sets:   3
 -----------------------
   1 S    0.760000
   1 S    1.280000
   2 P    1.250000

 Atom Type    3  (O)
 ==============

 Valence Basis Sets:   6
 -----------------------
   1 S    7.360000
   2 S    1.700000
   2 S    2.820000
   2 P    1.300000
   2 P    3.060000
   3 D    2.000000

 Frozen Core Shells
 ------------------
    S:  1


 BAS: List of all Elementary Cartesian Basis Functions
 =====================================================

 The numbering in the list below (to the right of the function characteristics) is referred
 to in print-outs of MO eigenvectors and Mulliken populations in the BAS representation
 (as contrasted to the SFO representation).

 Notes:
 1. The functions are characterized by a polynomial prefactor (powers of x,y,z and r) and
    an exponential decay factor alpha.
 2. Since the basis sets are specific for an atom TYPE, the individual functions occur on
    all atoms of that type.
 3. The word 'Core' in the left margin signals that it is a Core Function (CF) : not a
    degree of freedom in the valence set, but only used to ensure orthogonalization of
    the other valence basis functions on the frozen Core Orbitals.


 (power of) X  Y  Z  R     Alpha  on Atom
            ==========     =====     ==========

 Pb                                   1
                                  ---------------------------------------------------------------------------
    Core    0  0  0  0    60.000      1
    Core    0  0  0  1    37.900      2
    Core    0  0  0  2    22.100      3
    Core    0  0  0  3    13.150      4
    Core    1  0  0  0    38.650      5
    Core    0  1  0  0    38.650      6
    Core    0  0  1  0    38.650      7
    Core    1  0  0  1    20.600      8
    Core    0  1  0  1    20.600      9
    Core    0  0  1  1    20.600     10
    Core    1  0  0  2    12.450     11
    Core    0  1  0  2    12.450     12
    Core    0  0  1  2    12.450     13
    Core    2  0  0  0    23.450     14
    Core    1  1  0  0    23.450     15
    Core    1  0  1  0    23.450     16
    Core    0  2  0  0    23.450     17
    Core    0  1  1  0    23.450     18
    Core    0  0  2  0    23.450     19
    Core    2  0  0  1    11.600     20
    Core    1  1  0  1    11.600     21
    Core    1  0  1  1    11.600     22
    Core    0  2  0  1    11.600     23
    Core    0  1  1  1    11.600     24
    Core    0  0  2  1    11.600     25
            0  0  0  0   196.000     26
            0  0  0  4     7.650     27
            0  0  0  4     5.200     28
            0  0  0  5     3.700     29
            0  0  0  5     2.400     30
            0  0  0  5     1.580     31
            1  0  0  3     6.600     32
            0  1  0  3     6.600     33
            0  0  1  3     6.600     34
            1  0  0  3     4.200     35
            0  1  0  3     4.200     36
            0  0  1  3     4.200     37
            1  0  0  4     2.700     38
            0  1  0  4     2.700     39
            0  0  1  4     2.700     40
            1  0  0  4     1.600     41
            0  1  0  4     1.600     42
            0  0  1  4     1.600     43
            1  0  0  4     0.960     44
            0  1  0  4     0.960     45
            0  0  1  4     0.960     46
            2  0  0  2     6.000     47
            1  1  0  2     6.000     48
            1  0  1  2     6.000     49
            0  2  0  2     6.000     50
            0  1  1  2     6.000     51
            0  0  2  2     6.000     52
            2  0  0  2     3.650     53
            1  1  0  2     3.650     54
            1  0  1  2     3.650     55
            0  2  0  2     3.650     56
            0  1  1  2     3.650     57
            0  0  2  2     3.650     58
            2  0  0  2     2.200     59
            1  1  0  2     2.200     60
            1  0  1  2     2.200     61
            0  2  0  2     2.200     62
            0  1  1  2     2.200     63
            0  0  2  2     2.200     64
            3  0  0  0    17.560     65
            2  1  0  0    17.560     66
            2  0  1  0    17.560     67
            1  2  0  0    17.560     68
            1  1  1  0    17.560     69
            1  0  2  0    17.560     70
            0  3  0  0    17.560     71
            0  2  1  0    17.560     72
            0  1  2  0    17.560     73
            0  0  3  0    17.560     74
            3  0  0  0     9.950     75
            2  1  0  0     9.950     76
            2  0  1  0     9.950     77
            1  2  0  0     9.950     78
            1  1  1  0     9.950     79
            1  0  2  0     9.950     80
            0  3  0  0     9.950     81
            0  2  1  0     9.950     82
            0  1  2  0     9.950     83
            0  0  3  0     9.950     84
            3  0  0  0     5.750     85
            2  1  0  0     5.750     86
            2  0  1  0     5.750     87
            1  2  0  0     5.750     88
            1  1  1  0     5.750     89
            1  0  2  0     5.750     90
            0  3  0  0     5.750     91
            0  2  1  0     5.750     92
            0  1  2  0     5.750     93
            0  0  3  0     5.750     94

 H                                    2    3
                                  ---------------------------------------------------------------------------
            0  0  0  0     0.760     95  100
            0  0  0  0     1.280     96  101
            1  0  0  0     1.250     97  102
            0  1  0  0     1.250     98  103
            0  0  1  0     1.250     99  104

 O                                    4
                                  ---------------------------------------------------------------------------
    Core    0  0  0  0     7.360    105
            0  0  0  1     1.700    106
            0  0  0  1     2.820    107
            1  0  0  0     1.300    108
            0  1  0  0     1.300    109
            0  0  1  0     1.300    110
            1  0  0  0     3.060    111
            0  1  0  0     3.060    112
            0  0  1  0     3.060    113
            2  0  0  0     2.000    114
            1  1  0  0     2.000    115
            1  0  1  0     2.000    116
            0  2  0  0     2.000    117
            0  1  1  0     2.000    118
            0  0  2  0     2.000    119

 Total number of charge fitting functions (nprimf)       524
 Total number of Cartesian basis functions (naos)        119
 Total number of Cartesian core functions  (ncos)         26

1
 ***************************************************************************************************



                                              ***********************
                                              *  T E C H N I C A L  *
                                              ***********************
  



 =============================================================
 P A R A L L E L I Z A T I O N  and  V E C T O R I Z A T I O N
 =============================================================
  
 Nr of parallel processes:                               12
 Maximum vector length in NumInt loops:                 128



 =====================
 S C F   U P D A T E S
 =====================
  
 Max. nr. of cycles:                               300
 Convergence criterion:                              0.0000010000
   secondary criterion:                              0.0010000000

 Mix parameter (when DIIS does not apply):           0.2000000000
 Mixed ADIIS+SDIIS will be used                  
    Max number of expansion vectors:                10
    Pure ADIIS when Max([F,P]) is above              0.1000000000
    Pure SDIIS when Max([F,P]) is below              0.0010000000
 Automatic ElectronSmearing (in case of problematic SCF convergence) disabled



 =================
 P R E C I S I O N  ***  (General: NumInt, NeglectFunctionTails, ...)  ***
 =================
  

 NumInt:           Target precision:                 4.0000000000
 -------           Initial precision:                4.0000000000
                   Min. precision (optimization):    4.0000000000

 Neglect Functions:          Basis functions:        0.1000000000E-05
 ------------------          Fit functions:          0.1000000000E-05



 ===========================
 L I N E A R   S C A L I N G
 ===========================
  

 Cut-off radii density fit:                        0.1000000000E-07
 Overlap cut-off criterion AO matrix elements:     0.1000000000E-05
 Cut-offs for Coulomb potential and fitted density:0.1000000000E-07
 Cut-off criterion for Coulomb multipole terms:    0.1000000000E-07
 Progressive Convergence parameter:                 0.000000000    

          A * e 1/2 :      A1/2

  A1/2:1 = A.alpha
  A1/2:1 = A.beta

 Number of elements of the density matrix on this node (used, total):      4465      7140



 ===========================================
 Numerical Integration : Fuzzy Cells (Becke)
 ===========================================
  
 Becke grid quality: NORMAL         
  
 Lebedev angular grid order:             min:  11 max:  23
 Nr. of radial points:                   min:  46 max: 123

 Total nr. of points:      34861
 Nr. of blocks:              273
 Block length:               128
 Nr. of dummy points:         83


 Test of Precision of the Numerical Integration Grid
 ===================================================

 Integral of the Total Core Density:                  47.99999748068827
 Relative Error:                                      -5.249E-08



 ========================
 Density Fitting (zlmFit)
 ========================
  
 ZlmFit Fit Quality: NORMAL         
  
 Max L-expansion:                        min:   5 max:   7
 Nr. of radial interpolation points:     min:  36 max: 114



 =====
 S C F  ***  ScaSCF  ***
 =====
  
 Initial density matrix is taken from previous geometry

 CYCLE    1
 SCF Error: norm([F,P])=      1.874298521880, max([F,P])=      0.359498100840
 orbitals (Q,E):
 ---------------
 A1/2 :33...52       ( 1.00    -1.2834)  ( 1.00    -1.2834)  ( 1.00    -0.9598)  ( 1.00    -0.9598)
                     ( 1.00    -0.9346)  ( 1.00    -0.9346)  ( 1.00    -0.8239)  ( 1.00    -0.8239)
                     ( 1.00    -0.7347)  ( 1.00    -0.7347)  ( 0.00    -0.5977)  ( 0.00    -0.5977)
                     ( 0.00    -0.5574)  ( 0.00    -0.5574)  ( 0.00    -0.5130)  ( 0.00    -0.5130)
                     ( 0.00    -0.3555)  ( 0.00    -0.3555)  ( 0.00    -0.2915)  ( 0.00    -0.2915)

 CYCLE    2
   MIX coefficients:  0.8000  0.2000
 SCF Error: norm([F,P])=      0.000001796803, max([F,P])=      0.000000361837
 orbitals (Q,E):
 ---------------
 A1/2 :33...52       ( 1.00    -1.2834)  ( 1.00    -1.2834)  ( 1.00    -0.9598)  ( 1.00    -0.9598)
                     ( 1.00    -0.9346)  ( 1.00    -0.9346)  ( 1.00    -0.8239)  ( 1.00    -0.8239)
                     ( 1.00    -0.7347)  ( 1.00    -0.7347)  ( 0.00    -0.5977)  ( 0.00    -0.5977)
                     ( 0.00    -0.5574)  ( 0.00    -0.5574)  ( 0.00    -0.5130)  ( 0.00    -0.5130)
                     ( 0.00    -0.3555)  ( 0.00    -0.3555)  ( 0.00    -0.2915)  ( 0.00    -0.2915)

 SCF CONVERGED

 CYCLE    3
 *** Using FIT density in Focky
  SDIIS (wt  0.000): -1.5845  2.5845
 A-DIIS (wt  1.000):  0.0000  1.0000
  DIIS coefficients:  0.0000  1.0000
 SCF Error: norm([F,P])=      0.000001112443, max([F,P])=      0.000000226943
 orbitals (Q,E):
 ---------------
 A1/2 :33...52       ( 1.00    -1.2834)  ( 1.00    -1.2834)  ( 1.00    -0.9598)  ( 1.00    -0.9598)
                     ( 1.00    -0.9346)  ( 1.00    -0.9346)  ( 1.00    -0.8239)  ( 1.00    -0.8239)
                     ( 1.00    -0.7347)  ( 1.00    -0.7347)  ( 0.00    -0.5977)  ( 0.00    -0.5977)
                     ( 0.00    -0.5574)  ( 0.00    -0.5574)  ( 0.00    -0.5130)  ( 0.00    -0.5130)
                     ( 0.00    -0.3555)  ( 0.00    -0.3555)  ( 0.00    -0.2915)  ( 0.00    -0.2915)


 Fit test: (difference of exact and fit density, squared integrated, result summed over spins)
         SCF:                                          0.00009095203982

 Gross Charges per Atom (Z minus electrons)
 ==========================================
             1.7782    0.4535    0.4535   -0.6851
 Net Total:  2.00000000



 =================================================================
 M U L T I P O L E   D E R I V E D   C H A R G E   A N A L Y S I S
 =================================================================

 See: M. Swart, P.Th. van Duijnen, J.G. Snijders, J.Comput.Chem., (2001), p. 79-88.

 --------------------------------------- 
 Multipole derived atomic charges (a.u.)
 --------------------------------------- 

        Atom    Level:     MDC-m        MDC-d        MDC-q
 ---------------------------------------------------------
     1     Pb           1.811074     1.730965     1.823530
     2     H            0.207054     0.521042     0.475318
     3     H            0.207054     0.521042     0.475318
     4     O           -0.225181    -0.773049    -0.774166



 =======================================================================
 Electrostatic potential at the Nuclei due to electrons and other nuclei
 =======================================================================
  
         Atom                  Potential
         ----                  ---------
     1)   Pb                644.98514245
     2)   H                   0.51550220
     3)   H                   0.51550220
     4)   O                  21.83573987
 Mulliken charges used for AMS results%charges...
 Continuous PES requested. Disabling symmetry...
 *** adf-NumNuclDerivs_displ1 ***
 WARNING: Atom coordinates do not satisfy full symmetry (probably due to orienta
 tion).

          A * e 1/2 :      A1/2

  A1/2:1 = A.alpha
  A1/2:1 = A.beta

 Energy gradients wrt nuclear displacements
 ==========================================

     Atom      Cartesian (a.u./angstrom)
                 X         Y         Z
 ----------------------------------------
     1 Pb    0.000005 -0.000000  0.000488
     2 H     0.000004  0.000129 -0.000091
     3 H     0.000004 -0.000129 -0.000091
     4 O    -0.000012  0.000000 -0.000306
 ----------------------------------------
 Mulliken charges used for AMS results%charges...
 Continuous PES requested. Disabling symmetry...
 *** adf-NumNuclDerivs_displ7 ***

          A * e 1/2 :      A1/2

  A1/2:1 = A.alpha
  A1/2:1 = A.beta

 Energy gradients wrt nuclear displacements
 ==========================================

     Atom      Cartesian (a.u./angstrom)
                 X         Y         Z
 ----------------------------------------
     1 Pb    0.000002 -0.000000  0.000488
     2 H     0.000008  0.000125 -0.000094
     3 H     0.000008 -0.000129 -0.000091
     4 O    -0.000019  0.000004 -0.000303
 ----------------------------------------
 Mulliken charges used for AMS results%charges...
 Continuous PES requested. Disabling symmetry...
 *** adf-NumNuclDerivs_displ19 ***

          A * e 1/2 :      A1/2

  A1/2:1 = A.alpha
  A1/2:1 = A.beta

 Energy gradients wrt nuclear displacements
 ==========================================

     Atom      Cartesian (a.u./angstrom)
                 X         Y         Z
 ----------------------------------------
     1 Pb   -0.000010 -0.000000  0.000488
     2 H    -0.000020  0.000126 -0.000094
     3 H    -0.000020 -0.000125 -0.000094
     4 O     0.000050  0.000000 -0.000299
 ----------------------------------------
 Mulliken charges used for AMS results%charges...
Scanning modes in range provided by user.


    =====================
     CALCULATION RESULTS
    =====================

Energy (hartree)             0.03753045

Gradients (hartree/bohr)
  Index   Atom            d/dx            d/dy            d/dz
      1     Pb    0.0000000000    0.0000000000    0.0002581488
      2      H    0.0000000000    0.0000661302   -0.0000496731
      3      H    0.0000000000   -0.0000661302   -0.0000496731
      4      O    0.0000000000    0.0000000000   -0.0001588026

 Symmetry: C(2V)

 -----------------------
 Normal Mode Frequencies
 -----------------------

 Index   Frequency (cm-1)   Intensity (km/mol)   Irrep
     7           229.6064             291.8564      B1
     8           336.7470              18.8407      A1
     9           570.3082              49.5355      B2
    10          1587.5260              60.2179      A1
    11          3401.9504             474.6206      A1
    12          3480.2521             392.1427      B2

 Zero-point energy (Hartree):     0.0219

 ------------
 Normal Modes
 ------------

 Number of removed rigid normal modes: 6
 
 Mode:     7      Frequency (cm-1):      229.6064     Intensity (km/mol):      291.8564     Irrep: B1
 Index  Atom      ---- Displacements (x/y/z) ----
     1    Pb      -0.001740  -0.000000  -0.000000
     2     H      -0.702722   0.000000  -0.000000
     3     H      -0.702722   0.000000  -0.000000
     4     O       0.111177   0.000000  -0.000000
 
 Mode:     8      Frequency (cm-1):      336.7470     Intensity (km/mol):       18.8407     Irrep: A1
 Index  Atom      ---- Displacements (x/y/z) ----
     1    Pb      -0.000000  -0.000000  -0.050093
     2     H      -0.000000  -0.009196   0.575449
     3     H      -0.000000   0.009196   0.575449
     4     O       0.000000   0.000000   0.578826
 
 Mode:     9      Frequency (cm-1):      570.3082     Intensity (km/mol):       49.5355     Irrep: B2
 Index  Atom      ---- Displacements (x/y/z) ----
     1    Pb       0.000000  -0.002887   0.000000
     2     H       0.000000  -0.360594   0.605412
     3     H       0.000000  -0.360594  -0.605412
     4     O      -0.000000   0.082987  -0.000000
 
 Mode:    10      Frequency (cm-1):     1587.5260     Intensity (km/mol):       60.2179     Irrep: A1
 Index  Atom      ---- Displacements (x/y/z) ----
     1    Pb      -0.000000   0.000000  -0.000030
     2     H      -0.000000   0.420604  -0.566144
     3     H      -0.000000  -0.420604  -0.566144
     4     O       0.000000  -0.000000   0.071736
 
 Mode:    11      Frequency (cm-1):     3401.9504     Intensity (km/mol):      474.6206     Irrep: A1
 Index  Atom      ---- Displacements (x/y/z) ----
     1    Pb       0.000000   0.000000   0.000104
     2     H       0.000000  -0.589100  -0.389643
     3     H       0.000000   0.589100  -0.389643
     4     O      -0.000000   0.000000   0.047753
 
 Mode:    12      Frequency (cm-1):     3480.2521     Intensity (km/mol):      392.1427     Irrep: B2
 Index  Atom      ---- Displacements (x/y/z) ----
     1    Pb       0.000000   0.000033  -0.000000
     2     H       0.000000   0.568671   0.417150
     3     H       0.000000   0.568671  -0.417150
     4     O      -0.000000  -0.072097   0.000000

PES point character: Geometry corresponds to a local minimum on the PES.




 ============================
 Statistical Thermal Analysis  ***  ideal gas assumed  ***
 ============================
  
 Pressure:                  1.000000 atm.
 Temperature:             298.150000 K



 Moments of Inertia [amu*bohr^2] and principal axis
 ==================================================

           4.6015        348.6800        353.2815
 ------------------------------------------------
           0.0000          0.0000          1.0000
           0.0000          1.0000          0.0000
           1.0000          0.0000          0.0000


 The rotational contribution to the molecular entropy includes
 a term, dependent on the symmetry number sigma. The results 
 reported below were computed using sigma = 2, determined from
 the point group symmetry of the input geometry (C(2V)). 
 If this is not the correct symmetry, try symmetrizing the molecule before
 running the calculation (note: linear molecules should be aligned along one
 of the Cartesian axes).
 Contributions from frequencies below 20 1/cm are not included in vibrational sums.
 Their contributions, if any, are reported separately.


     Temp                                                        Transl      Rotat     Vibrat     Total
     ----                                                        ------      -----     ------     -----

     298.15   Entropy (cal/mol-K):                               42.148     19.589      3.621     65.358
              Nuclear Internal Energy (kcal/mol):                 0.889      0.889     14.406     16.183
              Constant Volume Heat Capacity (cal/mol-K):          2.981      2.981      4.548     10.510
          (c) Constant Volume Heat Capacity (cal/mol-K):          2.981      2.981      4.516     10.477

       Summary of energy terms
                                                   hartree              eV         kcal/mol           kJ/mol
                                      --------------------     -----------       ----------      -----------
      Energy from Engine:                0.037530451882201          1.0213            23.55            98.54
      Nuclear Internal Energy:           0.025789967723840          0.7018            16.18            67.71
  (c) Nuclear Internal Energy:           0.025764095193232          0.7011            16.17            67.64
      Internal Energy U:                 0.063320419606041          1.7230            39.73           166.25
      pV/n = RT:                         0.000944186013486          0.0257             0.59             2.48
      Enthalpy H:                        0.064264605619527          1.7487            40.33           168.73
      -T*S:                             -0.031053791317447         -0.8450           -19.49           -81.53
  (c) -T*S:                             -0.031058038982191         -0.8451           -19.49           -81.54
      Gibbs free energy:                 0.033210814302080          0.9037            20.84            87.19
 
 
 
  (c) The properties marked with this symbol have been corrected using 'low vibrational frequency free rotor
      interpolation corrections'. For those terms all positive frequencies are used (also ones below 20 1/cm),
      but the contribution to the partition function of small vibrational frequencies is modified as described
      in the following paper:
      S. Grimme, 'Supramolecular Binding Thermodynamics by Dispersion-Corrected Density Functional Theory'
      (Chem. Eur. J. 2012, 18, 9955-9964)
      Configuration: Dampener Frequency          :   100.000 1/cm
                     Dampener Alpha              :     4.000
                     Averaging Moment of Inertia : 1.000E-44 kg m2

--------------
Atomic charges
--------------
  Index   Atom    Charge
      1     Pb    1.7782
      2      H    0.4535
      3      H    0.4535
      4      O   -0.6851


Dipole moment vector    (Debye):     0.00000000   -0.00000000   13.78553863
              magnitude (Debye):    13.78553863


Final PES point is a local minimum. Geometry optimization successful!


AMS application finished. Exiting.
NORMAL TERMINATION
     Total cpu time:      28.92
  Total system time:       1.91
 Total elapsed time:      31.92
