

 Parallel Execution: Process Information
 ==============================================================================
 Rank   Node Name                              NodeID   MyNodeRank  NodeMaster
    0   ubuntu-kch                                0          0          0
    1   ubuntu-kch                                0          1         -1
    2   ubuntu-kch                                0          2         -1
    3   ubuntu-kch                                0          3         -1
 ==============================================================================


May use up to 7570MB of RAM as shared memory on node 0

 *******************************************************************************
 *                                                                             *
 *  --------------------------------                                           *
 *   Amsterdam Modeling Suite (AMS)              2020.202                      *
 *  --------------------------------                                           *
 *                                               r90167 2020-12-05             *
 *                                                                             *
 *                                                                             *
 *                              =================                              *
 *                              |               |                              *
 *                              |     A M S     |                              *
 *                              |               |                              *
 *                              =================                              *
 *                                                                             *
 *                                                                             *
 *   Online information and documentation:  https://www.scm.com/support/       *
 *   E-mail:  support@scm.com   info@scm.com                                   *
 *                                                                             *
 *   Scientific publications using AMS results must be properly referenced     *
 *   See the User Manuals (or the web site) for recommended citations          *
 *   The terms and conditions of the End User License Agreement apply to       *
 *   the use of AMS, https://www.scm.com/license-terms/                        *
 *                                                                             *
 **********************  x86_64_linux_intel / intelmpi  ************************
 
 Licensed to: Dr. Miroslav Ilias / Matej Bel University, Department Chemistry, Fac. Natural Sciences / Banska Bystrica / SLOVAKIA
 SCM User ID: u17848
  
 AMS 2020.202  RunTime: Feb22-2021 18:33:36  Nodes: 1  Procs: 4

 AMS jobname: ams
 AMS jobid  : 531810576

 Start   directory: /home/milias/work/projects/open-collection/theoretical_chemistry/projects/nmr_diplomovky/reference_compounds/chloroform/ams/pbe0_tz2p_good/cosmo-chcl3/tmp.milias.1203931.0.noindex/
 Results directory: /home/milias/work/projects/open-collection/theoretical_chemistry/projects/nmr_diplomovky/reference_compounds/chloroform/ams/pbe0_tz2p_good/cosmo-chcl3/chloroform.geopt_freq_nmrshield_pbe0_tz2p_good_cosmo-chcl3.results/
 Scratch directory: /tmp/amstmp_ams_kid0.531810576/


 Communication costs MPI_COMM_WORLD:      0.276 usec per message,   0.0034 usec per 8-byte item
 Communication costs for intra-node:      0.269 usec per message,   0.0034 usec per 8-byte item

 RNG seed: -2093531603 -435634195 -1540816671 -1636346936 1093795167 1972337085 1572868620 220377850



                        ********************************************************************
                        *  ADF 2020.202  RunTime: Feb22-2021 18:33:36  Nodes: 1  Procs: 4  *
                        ********************************************************************
  
       ***************************
       *  GEOMETRY OPTIMIZATION  *
       ***************************

Optimization Method                    Quasi Newton
Optimization Coordinates               Delocalized Coordinates
Optimize lattice                       F
 
 ------------------------------------------------------
 Convergence criteria (Hartree,Angstrom)
 ------------------------------------------------------
 Maximum gradient               0.001000000000
 Maximum rms gradient           0.000666666667
 Maximum step allowed           0.010000000000
 Maximum rms step allowed       0.006666666667
 Maximum energy change allowe   0.000050000000
 Maximum stress energy allowe   0.000500000000
 
Initial model Hessian                  Automatic Hessian
 
------------------------------------
Quasi-Newton Optimizer Parameters
------------------------------------
Hessian Update Method                  BFGS
Maximum number of steps                  250
First GDIIS cycle                          0
Maximum GDIIS vectors                      0
Trust radius (bohr)                        0.200000
Trust radius varies                        T
Constraints converged at all steps         T
Use projector                              T
 
 Rigid motions settings for: old optimizer
 Atomic rotations (x,y,z):     T T T
 Atomic translations (x,y,z):  T T T
 Tolerance:                   1.000000000000000E-006
 
--------
Geometry
--------
Atoms
  Index Symbol   x (angstrom)   y (angstrom)   z (angstrom)
      1      C    -1.18549415    -1.77824122    -0.00000000       adf.R=1.70
      2     Cl     0.19125500    -2.64417218     0.69830176       adf.R=1.725000023841858
      3     Cl    -1.65400018    -0.45133126     1.07364429       adf.R=1.725000023841858
      4      H    -0.90840303    -1.37991877    -0.96486255       adf.R=1.350
      5     Cl    -2.54785882    -2.89202645    -0.19064354       adf.R=1.725000023841858
 
Total System Charge             0.00000
Bonding info available!
 
 
----------------
ADF Engine Input
----------------
 
 Basis
 Type TZ2P
 Core None
 End
 Save TAPE10
 XC
 Hybrid PBE0
 End
 Relativity
 Level None
 End
 Solvation
 Surf Delley
 Solv name=Chloroform cav0=0.0 cav1=0.0067639
 Charged method=CONJ
 C-Mat POT
 SCF VAR ALL
 CSMRSP
 End
 NumericalQuality Good
 

 Title: *** (NO TITLE) ***

 Using automatic Hessian for delocalized coordinates.
 *** GOStep1 ***

 SOLVATION
-------------------------------------------

  The Delley construction of COSMO surface surface is calculated

       Division Level for Surface Triangles (NDIV)                  3
       Final Division Level for Triangles (NFDIV)                   1
       Radius of the Solvent (RSOL)                           3.17000 angstr
  Dielectric Constant (EPSL)                                  4.80000

       COSMO equation is solved iteratively-               conjugate-gradient

       Maximun of Iterations for Charges (NCIX)                  1000
       Criterion for Charge convergence (CCNV)                1.0E-08

  COSMO charges included variationally in SCF

       COSMO included at every SCF cycle

  Geometry-dependent empirical factor                         0.00000

  C-Matrix calculated in cspmtx

  In cspmtx, C-Matrix calculated using fitted potential

-------------------------------------------



 -------------------------------------------
  COSMO surface
  Area             =          340.902
  Volume           =          512.162
  Number of Points =          787
 -------------------------------------------



 ======================
 RI Hartree-Fock Scheme
 ======================
  
 Fit Set Quality     : GOOD
 Integration Quality : GOOD
 Threshold Quality   : GOOD
 Response Quality    : DEFAULT
 Is Range Separated  :  F
 
 RIHartreeFock Dependency: number of modified vectors:           4
 cosmo_calcen: 0.5 (esolb+esolc) (Hartrees) =   -0.003976

 Solvation energy (screening term,uncorrected) =     -2.494998 kcal/mol

 Solvation energy (dispersion and cavitation terms) =      0.511177 kcal/mol
 Solvation Energy Contributions (Hartrees)
          esola   esolb+esolc
     0.00397603   -0.00795206
 esol last cycle   -0.00397603
  
 Hartree-Fock exchange energy:   -88.1171424550210     
 cosmo_calcen: 0.5 (esolb+esolc) (Hartrees) =   -0.003976

 Solvation energy (screening term,uncorrected) =     -2.494997 kcal/mol

 Solvation energy (dispersion and cavitation terms) =      0.511177 kcal/mol
 Solvation Energy Contributions (Hartrees)
          esola   esolb+esolc
     0.00397603   -0.00795206
 esol last cycle   -0.00397603
  pauli hf:                              0.647164993546468         17.6103           406.10          1699.13
  elstat hf:                            -0.389767492714096        -10.6061          -244.58         -1023.33

 Energy gradients wrt nuclear displacements
 ==========================================

     Atom      Cartesian (a.u./angstrom)
                 X         Y         Z
 ----------------------------------------
     1 C     0.007455  0.010690 -0.025973
     2 Cl   -0.001154 -0.003728  0.007945
     3 Cl   -0.002456 -0.002087  0.007940
     4 H    -0.000699 -0.001191  0.002789
     5 Cl   -0.003146 -0.003684  0.007299
 ----------------------------------------
 Mulliken charges used for AMS results%charges...
 
----------------------------------------------------------------------
Geometry Convergence after Step   1       (Hartree/Angstrom,Angstrom)
----------------------------------------------------------------------
current energy                               -0.91992740 Hartree
energy change                      -0.91992740     0.00005000    F
constrained gradient max            0.02597155     0.00100000    F
constrained gradient rms            0.00849564     0.00066667    F
gradient max                        0.02597155
gradient rms                        0.00849564
cart. step max                      0.03047713     0.01000000    F
cart. step rms                      0.01728046     0.00666667    F
 
 
--------
Geometry
--------
Atoms
  Index Symbol   x (angstrom)   y (angstrom)   z (angstrom)
      1      C    -1.19353950    -1.79105193     0.03047713       adf.R=1.70
      2     Cl     0.21245129    -2.64270785     0.68063177       adf.R=1.725000023841858
      3     Cl    -1.65180865    -0.42822264     1.05896670       adf.R=1.725000023841858
      4      H    -0.91743344    -1.39164660    -0.93615201       adf.R=1.350
      5     Cl    -2.55417087    -2.89206087    -0.21748362       adf.R=1.725000023841858
 
Total System Charge             0.00000
Bonding info available!
 
 *** GOStep2 ***

 SOLVATION
-------------------------------------------

  The Delley construction of COSMO surface surface is calculated

       Division Level for Surface Triangles (NDIV)                  3
       Final Division Level for Triangles (NFDIV)                   1
       Radius of the Solvent (RSOL)                           3.17000 angstr
  Dielectric Constant (EPSL)                                  4.80000

       COSMO equation is solved iteratively-               conjugate-gradient

       Maximun of Iterations for Charges (NCIX)                  1000
       Criterion for Charge convergence (CCNV)                1.0E-08

  COSMO charges included variationally in SCF

       COSMO included at every SCF cycle

  Geometry-dependent empirical factor                         0.00000

  C-Matrix calculated in cspmtx

  In cspmtx, C-Matrix calculated using fitted potential

-------------------------------------------



 -------------------------------------------
  COSMO surface
  Area             =          341.092
  Volume           =          512.213
  Number of Points =          785
 -------------------------------------------



 ======================
 RI Hartree-Fock Scheme
 ======================
  
 Fit Set Quality     : GOOD
 Integration Quality : GOOD
 Threshold Quality   : GOOD
 Response Quality    : DEFAULT
 Is Range Separated  :  F
 
 RIHartreeFock Dependency: number of modified vectors:           4
 cosmo_calcen: 0.5 (esolb+esolc) (Hartrees) =   -0.003705

 Solvation energy (screening term,uncorrected) =     -2.325052 kcal/mol

 Solvation energy (dispersion and cavitation terms) =      0.511462 kcal/mol
 Solvation Energy Contributions (Hartrees)
          esola   esolb+esolc
     0.00370521   -0.00741041
 esol last cycle   -0.00370521
  
 Hartree-Fock exchange energy:   -88.1165302546306     
 cosmo_calcen: 0.5 (esolb+esolc) (Hartrees) =   -0.003705

 Solvation energy (screening term,uncorrected) =     -2.325052 kcal/mol

 Solvation energy (dispersion and cavitation terms) =      0.511462 kcal/mol
 Solvation Energy Contributions (Hartrees)
          esola   esolb+esolc
     0.00370521   -0.00741041
 esol last cycle   -0.00370521
  pauli hf:                              0.648502726410033         17.6467           406.94          1702.64
  elstat hf:                            -0.390521729817770        -10.6266          -245.06         -1025.31

 Energy gradients wrt nuclear displacements
 ==========================================

     Atom      Cartesian (a.u./angstrom)
                 X         Y         Z
 ----------------------------------------
     1 C     0.000646  0.000296 -0.000886
     2 Cl    0.005196 -0.002356  0.000619
     3 Cl   -0.001328  0.004981  0.001430
     4 H    -0.000535 -0.000360  0.001041
     5 Cl   -0.003979 -0.002560 -0.002204
 ----------------------------------------
 Mulliken charges used for AMS results%charges...

 dE(predicted):    -0.70262E-03, dE(actual):    -0.52116E-03, Trust radius:    0.200000, all in a.u.
 
----------------------------------------------------------------------
Geometry Convergence after Step   2       (Hartree/Angstrom,Angstrom)
----------------------------------------------------------------------
current energy                               -0.92044856 Hartree
energy change                      -0.00052116     0.00005000    F
constrained gradient max            0.00521214     0.00100000    F
constrained gradient rms            0.00247066     0.00066667    F
gradient max                        0.00521214
gradient rms                        0.00247066
cart. step max                      0.00621502     0.01000000    T
cart. step rms                      0.00320764     0.00666667    T
 
 
--------
Geometry
--------
Atoms
  Index Symbol   x (angstrom)   y (angstrom)   z (angstrom)
      1      C    -1.19331275    -1.78924230     0.02643532       adf.R=1.70
      2     Cl     0.20623627    -2.64105328     0.68294818       adf.R=1.725000023841858
      3     Cl    -1.65034735    -0.43365274     1.06079633       adf.R=1.725000023841858
      4      H    -0.91588883    -1.39013262    -0.94063079       adf.R=1.350
      5     Cl    -2.55118851    -2.89160894    -0.21310907       adf.R=1.725000023841858
 
Total System Charge             0.00000
Bonding info available!
 
 *** GOStep3 ***

 SOLVATION
-------------------------------------------

  The Delley construction of COSMO surface surface is calculated

       Division Level for Surface Triangles (NDIV)                  3
       Final Division Level for Triangles (NFDIV)                   1
       Radius of the Solvent (RSOL)                           3.17000 angstr
  Dielectric Constant (EPSL)                                  4.80000

       COSMO equation is solved iteratively-               conjugate-gradient

       Maximun of Iterations for Charges (NCIX)                  1000
       Criterion for Charge convergence (CCNV)                1.0E-08

  COSMO charges included variationally in SCF

       COSMO included at every SCF cycle

  Geometry-dependent empirical factor                         0.00000

  C-Matrix calculated in cspmtx

  In cspmtx, C-Matrix calculated using fitted potential

-------------------------------------------



 -------------------------------------------
  COSMO surface
  Area             =          340.875
  Volume           =          511.763
  Number of Points =          784
 -------------------------------------------



 ======================
 RI Hartree-Fock Scheme
 ======================
  
 Fit Set Quality     : GOOD
 Integration Quality : GOOD
 Threshold Quality   : GOOD
 Response Quality    : DEFAULT
 Is Range Separated  :  F
 
 RIHartreeFock Dependency: number of modified vectors:           4
 cosmo_calcen: 0.5 (esolb+esolc) (Hartrees) =   -0.003729

 Solvation energy (screening term,uncorrected) =     -2.340050 kcal/mol

 Solvation energy (dispersion and cavitation terms) =      0.511137 kcal/mol
 Solvation Energy Contributions (Hartrees)
          esola   esolb+esolc
     0.00372911   -0.00745821
 esol last cycle   -0.00372911
  
 Hartree-Fock exchange energy:   -88.1199643093496     
 cosmo_calcen: 0.5 (esolb+esolc) (Hartrees) =   -0.003729

 Solvation energy (screening term,uncorrected) =     -2.340050 kcal/mol

 Solvation energy (dispersion and cavitation terms) =      0.511137 kcal/mol
 Solvation Energy Contributions (Hartrees)
          esola   esolb+esolc
     0.00372911   -0.00745821
 esol last cycle   -0.00372911
  pauli hf:                              0.650709796227360         17.7067           408.33          1708.44
  elstat hf:                            -0.392485380838007        -10.6801          -246.29         -1030.47

 Energy gradients wrt nuclear displacements
 ==========================================

     Atom      Cartesian (a.u./angstrom)
                 X         Y         Z
 ----------------------------------------
     1 C     0.000539  0.000758 -0.001875
     2 Cl    0.001811 -0.001024  0.000735
     3 Cl   -0.000469  0.001984  0.001162
     4 H    -0.000063 -0.000241  0.000448
     5 Cl   -0.001819 -0.001477 -0.000470
 ----------------------------------------
 Mulliken charges used for AMS results%charges...

 dE(predicted):    -0.42616E-04, dE(actual):    -0.64911E-04, Trust radius:    0.200000, all in a.u.
 
----------------------------------------------------------------------
Geometry Convergence after Step   3       (Hartree/Angstrom,Angstrom)
----------------------------------------------------------------------
current energy                               -0.92051347 Hartree
energy change                      -0.00006491     0.00005000    F
constrained gradient max            0.00192202     0.00100000    F
constrained gradient rms            0.00117479     0.00066667    F
gradient max                        0.00192202
gradient rms                        0.00117479
cart. step max                      0.00232428     0.01000000    T
cart. step rms                      0.00104693     0.00666667    T
 
 
--------
Geometry
--------
Atoms
  Index Symbol   x (angstrom)   y (angstrom)   z (angstrom)
      1      C    -1.19309069    -1.78916327     0.02623527       adf.R=1.70
      2     Cl     0.20431682    -2.64039698     0.68297611       adf.R=1.725000023841858
      3     Cl    -1.65031717    -0.43597701     1.06028700       adf.R=1.725000023841858
      4      H    -0.91570584    -1.38995552    -0.94130833       adf.R=1.350
      5     Cl    -2.54970429    -2.89019710    -0.21175009       adf.R=1.725000023841858
 
Total System Charge             0.00000
Bonding info available!
 
 *** GOStep4 ***

 SOLVATION
-------------------------------------------

  The Delley construction of COSMO surface surface is calculated

       Division Level for Surface Triangles (NDIV)                  3
       Final Division Level for Triangles (NFDIV)                   1
       Radius of the Solvent (RSOL)                           3.17000 angstr
  Dielectric Constant (EPSL)                                  4.80000

       COSMO equation is solved iteratively-               conjugate-gradient

       Maximun of Iterations for Charges (NCIX)                  1000
       Criterion for Charge convergence (CCNV)                1.0E-08

  COSMO charges included variationally in SCF

       COSMO included at every SCF cycle

  Geometry-dependent empirical factor                         0.00000

  C-Matrix calculated in cspmtx

  In cspmtx, C-Matrix calculated using fitted potential

-------------------------------------------



 -------------------------------------------
  COSMO surface
  Area             =          340.665
  Volume           =          511.427
  Number of Points =          784
 -------------------------------------------



 ======================
 RI Hartree-Fock Scheme
 ======================
  
 Fit Set Quality     : GOOD
 Integration Quality : GOOD
 Threshold Quality   : GOOD
 Response Quality    : DEFAULT
 Is Range Separated  :  F
 
 RIHartreeFock Dependency: number of modified vectors:           4
 cosmo_calcen: 0.5 (esolb+esolc) (Hartrees) =   -0.003725

 Solvation energy (screening term,uncorrected) =     -2.337593 kcal/mol

 Solvation energy (dispersion and cavitation terms) =      0.510822 kcal/mol
 Solvation Energy Contributions (Hartrees)
          esola   esolb+esolc
     0.00372519   -0.00745038
 esol last cycle   -0.00372519
  
 Hartree-Fock exchange energy:   -88.1224014644445     
 cosmo_calcen: 0.5 (esolb+esolc) (Hartrees) =   -0.003725

 Solvation energy (screening term,uncorrected) =     -2.337594 kcal/mol

 Solvation energy (dispersion and cavitation terms) =      0.510822 kcal/mol
 Solvation Energy Contributions (Hartrees)
          esola   esolb+esolc
     0.00372519   -0.00745039
 esol last cycle   -0.00372519
  pauli hf:                              0.652405233835264         17.7528           409.39          1712.89
  elstat hf:                            -0.393972144100559        -10.7205          -247.22         -1034.37

 Energy gradients wrt nuclear displacements
 ==========================================

     Atom      Cartesian (a.u./angstrom)
                 X         Y         Z
 ----------------------------------------
     1 C     0.000221  0.000216 -0.000578
     2 Cl    0.000165 -0.000195  0.000265
     3 Cl   -0.000103  0.000241  0.000198
     4 H     0.000017 -0.000082 -0.000003
     5 Cl   -0.000300 -0.000181  0.000118
 ----------------------------------------
 Mulliken charges used for AMS results%charges...

 dE(predicted):    -0.72840E-05, dE(actual):    -0.13943E-04, Trust radius:    0.200000, all in a.u.
 
---------------------------------------------------------
Geometry Convergence after Step   4       ** CONVERGED **
---------------------------------------------------------
current energy                               -0.92052742 Hartree
energy change                      -0.00001394     0.00005000    T
constrained gradient max            0.00057609     0.00100000    T
constrained gradient rms            0.00022961     0.00066667    T
gradient max                        0.00057609
gradient rms                        0.00022961
cart. step max                      0.00039939     0.01000000    T
cart. step rms                      0.00022825     0.00666667    T
 
Geometry optimization converged

Optimized geometry:
 
--------
Geometry
--------
Atoms
  Index Symbol   x (angstrom)   y (angstrom)   z (angstrom)
      1      C    -1.19309069    -1.78916327     0.02623527       adf.R=1.70
      2     Cl     0.20431682    -2.64039698     0.68297611       adf.R=1.725000023841858
      3     Cl    -1.65031717    -0.43597701     1.06028700       adf.R=1.725000023841858
      4      H    -0.91570584    -1.38995552    -0.94130833       adf.R=1.350
      5     Cl    -2.54970429    -2.89019710    -0.21175009       adf.R=1.725000023841858
 
Total System Charge             0.00000
Bonding info available!
 
Performing a single point calculation on the final geometry ...

 *** adf ***



 ===========================
 A T T A C H E D   F I L E S
 ===========================
  
 Restart/tmp/amstmp_ams_kid0.531810576/GOStep4.rkf*** GOStep4 ***



 ===============================
 M O D E L   P A R A M E T E R S
 ===============================
  
 DENSITY FUNCTIONAL POTENTIAL (scf)
    Hybrid:                            PBE0                                    == Not Default ==

 SPIN  (restricted / unrestr.)
    Molecule:                          Restricted                               
    Fragments:                         Restricted                               

 OTHER ASPECTS
    Relativistic Corrections:          ---                                     == Not Default ==

    Nuclear Charge Density Model:      Point Charge Nuclei                      
    Core Treatment:                    Frozen Orbital(s)                        

    Hyperfine or Zeeman Interaction:   ---                                      

 SOLVATION
-------------------------------------------

  The Delley construction of COSMO surface surface is calculated

       Division Level for Surface Triangles (NDIV)                  3
       Final Division Level for Triangles (NFDIV)                   1
       Radius of the Solvent (RSOL)                           3.17000 angstr
  Dielectric Constant (EPSL)                                  4.80000

       COSMO equation is solved iteratively-               conjugate-gradient

       Maximun of Iterations for Charges (NCIX)                  1000
       Criterion for Charge convergence (CCNV)                1.0E-08

  COSMO charges included variationally in SCF

       COSMO included at every SCF cycle

  Geometry-dependent empirical factor                         0.00000

  C-Matrix calculated in cspmtx

  In cspmtx, C-Matrix calculated using fitted potential

-------------------------------------------




 ===============
 G E O M E T R Y  ***  3D  Molecule  ***
 ===============
  

 ATOMS
 =====                            X Y Z                    CHARGE                     RADIUS
                                (Angstrom)             Nucl     +Core       At.Mass (Angstrom)
                       --------------------------    ----------------       ------- ----------
    1  C              -1.1931   -1.7892    0.0262      6.00      6.00       12.0000    1.7000
    2  Cl              0.2043   -2.6404    0.6830     17.00     17.00       34.9689    1.7250
    3  Cl             -1.6503   -0.4360    1.0603     17.00     17.00       34.9689    1.7250
    4  H              -0.9157   -1.3900   -0.9413      1.00      1.00        1.0078    1.3500
    5  Cl             -2.5497   -2.8902   -0.2118     17.00     17.00       34.9689    1.7250


 FRAGMENTS
 =========                                     Atoms in this Fragment     Cart. coord.s (Angstrom)
                                               -------------------------------------------------------
    1  C                                                 1  C           -1.1931   -1.7892    0.0262
    2  Cl                                                2  Cl           0.2043   -2.6404    0.6830
    3  Cl                                                3  Cl          -1.6503   -0.4360    1.0603
    4  Cl                                                5  Cl          -2.5497   -2.8902   -0.2118
    5  H                                                 4  H           -0.9157   -1.3900   -0.9413


 Interatomic Distance Matrix (Angstrom)
 --------------------------------------

   1)     0.000
   2)     1.763   0.000
   3)     1.763   2.905   0.000
   4)     1.083   2.336   2.336   0.000
   5)     1.763   2.906   2.907   2.335   0.000

 Min. Distance =    1.0828
 Max. Distance =    2.9069



 =====================================
 S Y M M E T R Y ,   E L E C T R O N S
 =====================================
  
 Symmetry: NOSYM

 Irreducible Representations, including subspecies
 -------------------------------------------------
 A

 Symmetry is NOT used when fitting density


 Configuration of Valence Electrons
 ==================================
 ( determined in the SCF procedure )

 Total:   58

 Net Charge: 0 (Nuclei minus Electrons)

 Aufbau principle for MO occupations will be applied through SCF cycle no.     150
 Thereafter, the program will assign electrons to MOs that are spatially
 similar to the occupied MOs in a "reference" cycle ("KeepOrbitals").
 The reference cycle is always the PREVIOUS cycle: it will evolve with
 the SCF procedure.
1
 ***************************************************************************************************



                                      ****************************************
                                      *  B U I L D : (Fragments, Functions)  *
                                      ****************************************
  



 =======
 S F O s  ***  (Symmetrized Fragment Orbitals)  ***
 =======
  
 SFOs are linear combinations of (valence) Fragment Orbitals (FOs), such that the SFOs transform as the
 irreducible representations of the (molecular) symmetry group. Each SFO is therefore characterized by
 an irrep of the molecule and by a few (or only one) generating FOs.
 The SFOs constitute a symmetry-adapted basis for the Fock matrix. The MO eigenvector coefficients in
 this basis provide a direct interpretation of the MOs in terms of Frontier Orbital Theory.

 The SFOs are combined with auxiliary Core Functions (CFs) to ensure orthogonalization on the (frozen)
 Core Orbitals (COs). The Core-orthogonalized SFOs (CSFOs) constitute the true Fock basis.

 The FOs, and hence also the (C)SFOs are combinations of the elementary basis functions (BAS). The basis
 functions that participate in the description of the SFOs depend on the irrep. The indices of the
 involved functions are printed below for each irrep.
 (The complete list of primitive basis functions is printed in another section)

 Total nr. of (C)SFOs (summation over all irreps) :   139

 NOTE: a (C)SFO that is defined as a combination of more than one FO is usually NOT normalized.



                                       === A ===
 Nr. of SFOs :  139
 Cartesian basis functions that participate in this irrep (total number =   156) :
      1     2     3     4     5     6     9    12     7    10
     13     8    11    14    15    16    17    18    19    20
     21    22    23    24    25    26    27    28    29    30
     31    32    33    34    41    42    43    35    38    44
     47    50    36    39    45    48    51    37    40    46
     49    52    53    54    55    56    57    58    59    60
     61    62    63    64    65    66    67    68    69    70
     71    72    79    80    81    73    76    82    85    88
     74    77    83    86    89    75    78    84    87    90
     91    92    93    94    95    96    97    98    99   100
    101   102   103   104   105   106   107   108   109   110
    117   118   119   111   114   120   123   126   112   115
    121   124   127   113   116   122   125   128   129   130
    131   132   133   134   135   136   137   138   139   140
    141   142   143   144   145   146   147   148   149   150
    151   152   153   154   155   156

    SFO  (index         Fragment          Generating    Expansion in Fragment Orbitals
  indx  incl.CFs)   Occup   Orb.Energy   FragmentType  Coeff.   Orbital     on Fragment
 --------------------------------------------------------------------------------------
     1       1      2.000     -10.406 au  C             1.00      1 S               1
                        (    -283.169 eV)
     2       2      2.000      -0.583 au  C             1.00      2 S               1
                        (     -15.858 eV)
     3       3       --         0.415 au  C             1.00      3 S               1
                        (      11.281 eV)
     4       4       --         5.555 au  C             1.00      4 S               1
                        (     151.157 eV)
     5       5       --        50.670 au  C             1.00      5 S               1
                        (    1378.798 eV)
     6       6      0.667      -0.186 au  C             1.00      1 P:x             1
                        (      -5.051 eV)
     7       7       --         0.203 au  C             1.00      2 P:x             1
                        (       5.518 eV)
     8       8       --         2.125 au  C             1.00      3 P:x             1
                        (      57.838 eV)
     9       9      0.667      -0.186 au  C             1.00      1 P:y             1
                        (      -5.051 eV)
    10      10       --         0.203 au  C             1.00      2 P:y             1
                        (       5.518 eV)
    11      11       --         2.125 au  C             1.00      3 P:y             1
                        (      57.838 eV)
    12      12      0.667      -0.186 au  C             1.00      1 P:z             1
                        (      -5.051 eV)
    13      13       --         0.203 au  C             1.00      2 P:z             1
                        (       5.518 eV)
    14      14       --         2.125 au  C             1.00      3 P:z             1
                        (      57.838 eV)
    15      15       --         1.300 au  C             1.00      1 D:z2            1
                        (      35.363 eV)
    16      16       --         1.300 au  C             1.00      1 D:x2-y2         1
                        (      35.363 eV)
    17      17       --         1.300 au  C             1.00      1 D:xy            1
                        (      35.363 eV)
    18      18       --         1.300 au  C             1.00      1 D:xz            1
                        (      35.363 eV)
    19      19       --         1.300 au  C             1.00      1 D:yz            1
                        (      35.363 eV)
    20      20       --         4.097 au  C             1.00      1 F:z3            1
                        (     111.488 eV)
    21      21       --         4.097 au  C             1.00      1 F:z             1
                        (     111.488 eV)
    22      22       --         4.097 au  C             1.00      1 F:xyz           1
                        (     111.488 eV)
    23      23       --         4.097 au  C             1.00      1 F:z2x           1
                        (     111.488 eV)
    24      24       --         4.097 au  C             1.00      1 F:z2y           1
                        (     111.488 eV)
    25      25       --         4.097 au  C             1.00      1 F:x             1
                        (     111.488 eV)
    26      26       --         4.097 au  C             1.00      1 F:y             1
                        (     111.488 eV)
    27      27      2.000    -101.760 au  Cl            1.00      1 S               2
                        (   -2769.023 eV)
    28      28      2.000      -9.584 au  Cl            1.00      2 S               2
                        (    -260.807 eV)
    29      29      2.000      -0.848 au  Cl            1.00      3 S               2
                        (     -23.065 eV)
    30      30       --         0.237 au  Cl            1.00      4 S               2
                        (       6.461 eV)
    31      31       --         2.095 au  Cl            1.00      5 S               2
                        (      57.011 eV)
    32      32       --        12.974 au  Cl            1.00      6 S               2
                        (     353.034 eV)
    33      33       --       215.823 au  Cl            1.00      7 S               2
                        (    5872.843 eV)
    34      34      2.000      -7.312 au  Cl            1.00      1 P:x             2
                        (    -198.964 eV)
    35      35      1.667      -0.356 au  Cl            1.00      2 P:x             2
                        (      -9.692 eV)
    36      36       --         0.265 au  Cl            1.00      3 P:x             2
                        (       7.201 eV)
    37      37       --         2.209 au  Cl            1.00      4 P:x             2
                        (      60.097 eV)
    38      38       --        19.178 au  Cl            1.00      5 P:x             2
                        (     521.872 eV)
    39      39      2.000      -7.312 au  Cl            1.00      1 P:y             2
                        (    -198.964 eV)
    40      40      1.667      -0.356 au  Cl            1.00      2 P:y             2
                        (      -9.692 eV)
    41      41       --         0.265 au  Cl            1.00      3 P:y             2
                        (       7.201 eV)
    42      42       --         2.209 au  Cl            1.00      4 P:y             2
                        (      60.097 eV)
    43      43       --        19.178 au  Cl            1.00      5 P:y             2
                        (     521.872 eV)
    44      44      2.000      -7.312 au  Cl            1.00      1 P:z             2
                        (    -198.964 eV)
    45      45      1.667      -0.356 au  Cl            1.00      2 P:z             2
                        (      -9.692 eV)
    46      46       --         0.265 au  Cl            1.00      3 P:z             2
                        (       7.201 eV)
    47      47       --         2.209 au  Cl            1.00      4 P:z             2
                        (      60.097 eV)
    48      48       --        19.178 au  Cl            1.00      5 P:z             2
                        (     521.872 eV)
    49      49       --         0.442 au  Cl            1.00      1 D:z2            2
                        (      12.026 eV)
    50      50       --         0.442 au  Cl            1.00      1 D:x2-y2         2
                        (      12.026 eV)
    51      51       --         0.442 au  Cl            1.00      1 D:xy            2
                        (      12.026 eV)
    52      52       --         0.442 au  Cl            1.00      1 D:xz            2
                        (      12.026 eV)
    53      53       --         0.442 au  Cl            1.00      1 D:yz            2
                        (      12.026 eV)
    54      54       --         1.250 au  Cl            1.00      1 F:z3            2
                        (      34.015 eV)
    55      55       --         1.250 au  Cl            1.00      1 F:z             2
                        (      34.015 eV)
    56      56       --         1.250 au  Cl            1.00      1 F:xyz           2
                        (      34.015 eV)
    57      57       --         1.250 au  Cl            1.00      1 F:z2x           2
                        (      34.015 eV)
    58      58       --         1.250 au  Cl            1.00      1 F:z2y           2
                        (      34.015 eV)
    59      59       --         1.250 au  Cl            1.00      1 F:x             2
                        (      34.015 eV)
    60      60       --         1.250 au  Cl            1.00      1 F:y             2
                        (      34.015 eV)
    61      61      2.000    -101.760 au  Cl            1.00      1 S               3
                        (   -2769.023 eV)
    62      62      2.000      -9.584 au  Cl            1.00      2 S               3
                        (    -260.807 eV)
    63      63      2.000      -0.848 au  Cl            1.00      3 S               3
                        (     -23.065 eV)
    64      64       --         0.237 au  Cl            1.00      4 S               3
                        (       6.461 eV)
    65      65       --         2.095 au  Cl            1.00      5 S               3
                        (      57.011 eV)
    66      66       --        12.974 au  Cl            1.00      6 S               3
                        (     353.034 eV)
    67      67       --       215.823 au  Cl            1.00      7 S               3
                        (    5872.843 eV)
    68      68      2.000      -7.312 au  Cl            1.00      1 P:x             3
                        (    -198.964 eV)
    69      69      1.667      -0.356 au  Cl            1.00      2 P:x             3
                        (      -9.692 eV)
    70      70       --         0.265 au  Cl            1.00      3 P:x             3
                        (       7.201 eV)
    71      71       --         2.209 au  Cl            1.00      4 P:x             3
                        (      60.097 eV)
    72      72       --        19.178 au  Cl            1.00      5 P:x             3
                        (     521.872 eV)
    73      73      2.000      -7.312 au  Cl            1.00      1 P:y             3
                        (    -198.964 eV)
    74      74      1.667      -0.356 au  Cl            1.00      2 P:y             3
                        (      -9.692 eV)
    75      75       --         0.265 au  Cl            1.00      3 P:y             3
                        (       7.201 eV)
    76      76       --         2.209 au  Cl            1.00      4 P:y             3
                        (      60.097 eV)
    77      77       --        19.178 au  Cl            1.00      5 P:y             3
                        (     521.872 eV)
    78      78      2.000      -7.312 au  Cl            1.00      1 P:z             3
                        (    -198.964 eV)
    79      79      1.667      -0.356 au  Cl            1.00      2 P:z             3
                        (      -9.692 eV)
    80      80       --         0.265 au  Cl            1.00      3 P:z             3
                        (       7.201 eV)
    81      81       --         2.209 au  Cl            1.00      4 P:z             3
                        (      60.097 eV)
    82      82       --        19.178 au  Cl            1.00      5 P:z             3
                        (     521.872 eV)
    83      83       --         0.442 au  Cl            1.00      1 D:z2            3
                        (      12.026 eV)
    84      84       --         0.442 au  Cl            1.00      1 D:x2-y2         3
                        (      12.026 eV)
    85      85       --         0.442 au  Cl            1.00      1 D:xy            3
                        (      12.026 eV)
    86      86       --         0.442 au  Cl            1.00      1 D:xz            3
                        (      12.026 eV)
    87      87       --         0.442 au  Cl            1.00      1 D:yz            3
                        (      12.026 eV)
    88      88       --         1.250 au  Cl            1.00      1 F:z3            3
                        (      34.015 eV)
    89      89       --         1.250 au  Cl            1.00      1 F:z             3
                        (      34.015 eV)
    90      90       --         1.250 au  Cl            1.00      1 F:xyz           3
                        (      34.015 eV)
    91      91       --         1.250 au  Cl            1.00      1 F:z2x           3
                        (      34.015 eV)
    92      92       --         1.250 au  Cl            1.00      1 F:z2y           3
                        (      34.015 eV)
    93      93       --         1.250 au  Cl            1.00      1 F:x             3
                        (      34.015 eV)
    94      94       --         1.250 au  Cl            1.00      1 F:y             3
                        (      34.015 eV)
    95      95      2.000    -101.760 au  Cl            1.00      1 S               4
                        (   -2769.023 eV)
    96      96      2.000      -9.584 au  Cl            1.00      2 S               4
                        (    -260.807 eV)
    97      97      2.000      -0.848 au  Cl            1.00      3 S               4
                        (     -23.065 eV)
    98      98       --         0.237 au  Cl            1.00      4 S               4
                        (       6.461 eV)
    99      99       --         2.095 au  Cl            1.00      5 S               4
                        (      57.011 eV)
   100     100       --        12.974 au  Cl            1.00      6 S               4
                        (     353.034 eV)
   101     101       --       215.823 au  Cl            1.00      7 S               4
                        (    5872.843 eV)
   102     102      2.000      -7.312 au  Cl            1.00      1 P:x             4
                        (    -198.964 eV)
   103     103      1.667      -0.356 au  Cl            1.00      2 P:x             4
                        (      -9.692 eV)
   104     104       --         0.265 au  Cl            1.00      3 P:x             4
                        (       7.201 eV)
   105     105       --         2.209 au  Cl            1.00      4 P:x             4
                        (      60.097 eV)
   106     106       --        19.178 au  Cl            1.00      5 P:x             4
                        (     521.872 eV)
   107     107      2.000      -7.312 au  Cl            1.00      1 P:y             4
                        (    -198.964 eV)
   108     108      1.667      -0.356 au  Cl            1.00      2 P:y             4
                        (      -9.692 eV)
   109     109       --         0.265 au  Cl            1.00      3 P:y             4
                        (       7.201 eV)
   110     110       --         2.209 au  Cl            1.00      4 P:y             4
                        (      60.097 eV)
   111     111       --        19.178 au  Cl            1.00      5 P:y             4
                        (     521.872 eV)
   112     112      2.000      -7.312 au  Cl            1.00      1 P:z             4
                        (    -198.964 eV)
   113     113      1.667      -0.356 au  Cl            1.00      2 P:z             4
                        (      -9.692 eV)
   114     114       --         0.265 au  Cl            1.00      3 P:z             4
                        (       7.201 eV)
   115     115       --         2.209 au  Cl            1.00      4 P:z             4
                        (      60.097 eV)
   116     116       --        19.178 au  Cl            1.00      5 P:z             4
                        (     521.872 eV)
   117     117       --         0.442 au  Cl            1.00      1 D:z2            4
                        (      12.026 eV)
   118     118       --         0.442 au  Cl            1.00      1 D:x2-y2         4
                        (      12.026 eV)
   119     119       --         0.442 au  Cl            1.00      1 D:xy            4
                        (      12.026 eV)
   120     120       --         0.442 au  Cl            1.00      1 D:xz            4
                        (      12.026 eV)
   121     121       --         0.442 au  Cl            1.00      1 D:yz            4
                        (      12.026 eV)
   122     122       --         1.250 au  Cl            1.00      1 F:z3            4
                        (      34.015 eV)
   123     123       --         1.250 au  Cl            1.00      1 F:z             4
                        (      34.015 eV)
   124     124       --         1.250 au  Cl            1.00      1 F:xyz           4
                        (      34.015 eV)
   125     125       --         1.250 au  Cl            1.00      1 F:z2x           4
                        (      34.015 eV)
   126     126       --         1.250 au  Cl            1.00      1 F:z2y           4
                        (      34.015 eV)
   127     127       --         1.250 au  Cl            1.00      1 F:x             4
                        (      34.015 eV)
   128     128       --         1.250 au  Cl            1.00      1 F:y             4
                        (      34.015 eV)
   129     129      1.000      -0.242 au  H             1.00      1 S               5
                        (      -6.582 eV)
   130     130       --         0.113 au  H             1.00      2 S               5
                        (       3.073 eV)
   131     131       --         1.599 au  H             1.00      3 S               5
                        (      43.507 eV)
   132     132       --         0.445 au  H             1.00      1 P:x             5
                        (      12.103 eV)
   133     133       --         0.445 au  H             1.00      1 P:y             5
                        (      12.103 eV)
   134     134       --         0.445 au  H             1.00      1 P:z             5
                        (      12.103 eV)
   135     135       --         2.628 au  H             1.00      1 D:z2            5
                        (      71.513 eV)
   136     136       --         2.628 au  H             1.00      1 D:x2-y2         5
                        (      71.513 eV)
   137     137       --         2.628 au  H             1.00      1 D:xy            5
                        (      71.513 eV)
   138     138       --         2.628 au  H             1.00      1 D:xz            5
                        (      71.513 eV)
   139     139       --         2.628 au  H             1.00      1 D:yz            5
                        (      71.513 eV)



 ================================
 (Slater-type)  F U N C T I O N S  ***  (Basis and Fit)  ***
 ================================
  

 Atom Type    1  (C)
 ==============

 Valence Basis Sets:  10
 -----------------------
   1 S    7.680000
   1 S    5.000000
   2 S    1.280000
   2 S    2.100000
   2 S    4.600000
   2 P    0.820000
   2 P    1.480000
   2 P    2.940000
   3 D    2.200000
   4 F    3.300000

 Charge Fitting Sets (for the computation of the Coulomb Potential):  22
 -----------------------------------------------------------------------
   1 S   15.360000
   2 S   17.530000
   2 S   12.070000
   2 S    8.310000
   2 S    5.730000
   3 S    5.780000
   3 S    4.220000
   3 S    3.080000
   3 S    2.250000
   3 S    1.640000
   2 P    9.880000
   2 P    5.800000
   3 P    5.050000
   3 P    3.230000
   3 P    2.060000
   3 D    7.200000
   3 D    4.400000
   3 D    2.690000
   3 D    1.640000
   4 F    5.400000
   4 F    3.550000
   5 G    4.500000

 Atom Type    2  (Cl)
 ==============

 Valence Basis Sets:  14
 -----------------------
   1 S   20.300000
   1 S   15.250000
   2 S    6.250000
   2 S    4.450000
   2 P    8.850000
   2 P    5.050000
   3 S    3.450000
   3 S    2.300000
   3 S    1.600000
   3 P    3.350000
   3 P    2.050000
   3 P    1.200000
   3 D    2.000000
   4 F    2.000000

 Charge Fitting Sets (for the computation of the Coulomb Potential):  30
 -----------------------------------------------------------------------
   1 S   40.600000
   1 S   24.830000
   2 S   28.080000
   2 S   19.200000
   3 S   19.250000
   3 S   13.970000
   3 S   10.130000
   4 S    9.710000
   4 S    7.320000
   4 S    5.510000
   5 S    5.170000
   5 S    4.000000
   5 S    3.100000
   5 S    2.400000
   2 P   29.150000
   3 P   21.740000
   4 P   16.160000
   4 P    9.600000
   5 P    7.180000
   5 P    4.480000
   5 P    2.800000
   3 D   21.950000
   4 D   15.750000
   4 D    9.040000
   5 D    6.550000
   5 D    3.960000
   5 D    2.400000
   4 F    5.000000
   4 F    3.000000
   5 G    3.500000

 Atom Type    3  (H)
 ==============

 Valence Basis Sets:   5
 -----------------------
   1 S    0.690000
   1 S    0.920000
   1 S    1.580000
   2 P    1.250000
   3 D    2.500000

 Charge Fitting Sets (for the computation of the Coulomb Potential):  11
 -----------------------------------------------------------------------
   1 S    3.160000
   1 S    2.090000
   1 S    1.380000
   2 S    1.500000
   2 P    4.000000
   2 P    2.650000
   2 P    1.750000
   3 D    4.000000
   3 D    2.500000
   4 F    3.000000
   5 G    4.000000


 BAS: List of all Elementary Cartesian Basis Functions
 =====================================================

 The numbering in the list below (to the right of the function characteristics) is referred
 to in print-outs of MO eigenvectors and Mulliken populations in the BAS representation
 (as contrasted to the SFO representation).

 Notes:
 1. The functions are characterized by a polynomial prefactor (powers of x,y,z and r) and
    an exponential decay factor alpha.
 2. Since the basis sets are specific for an atom TYPE, the individual functions occur on
    all atoms of that type.
 3. The word 'Core' in the left margin signals that it is a Core Function (CF) : not a
    degree of freedom in the valence set, but only used to ensure orthogonalization of
    the other valence basis functions on the frozen Core Orbitals.


 (power of) X  Y  Z  R     Alpha  on Atom
            ==========     =====     ==========

 C                                    1
                                  ---------------------------------------------------------------------------
            0  0  0  0     7.680      1
            0  0  0  0     5.000      2
            0  0  0  1     1.280      3
            0  0  0  1     2.100      4
            0  0  0  1     4.600      5
            1  0  0  0     0.820      6
            0  1  0  0     0.820      7
            0  0  1  0     0.820      8
            1  0  0  0     1.480      9
            0  1  0  0     1.480     10
            0  0  1  0     1.480     11
            1  0  0  0     2.940     12
            0  1  0  0     2.940     13
            0  0  1  0     2.940     14
            2  0  0  0     2.200     15
            1  1  0  0     2.200     16
            1  0  1  0     2.200     17
            0  2  0  0     2.200     18
            0  1  1  0     2.200     19
            0  0  2  0     2.200     20
            3  0  0  0     3.300     21
            2  1  0  0     3.300     22
            2  0  1  0     3.300     23
            1  2  0  0     3.300     24
            1  1  1  0     3.300     25
            1  0  2  0     3.300     26
            0  3  0  0     3.300     27
            0  2  1  0     3.300     28
            0  1  2  0     3.300     29
            0  0  3  0     3.300     30

 Cl                                   2    3    4
                                  ---------------------------------------------------------------------------
            0  0  0  0    20.300     31   69  107
            0  0  0  0    15.250     32   70  108
            0  0  0  1     6.250     33   71  109
            0  0  0  1     4.450     34   72  110
            1  0  0  0     8.850     35   73  111
            0  1  0  0     8.850     36   74  112
            0  0  1  0     8.850     37   75  113
            1  0  0  0     5.050     38   76  114
            0  1  0  0     5.050     39   77  115
            0  0  1  0     5.050     40   78  116
            0  0  0  2     3.450     41   79  117
            0  0  0  2     2.300     42   80  118
            0  0  0  2     1.600     43   81  119
            1  0  0  1     3.350     44   82  120
            0  1  0  1     3.350     45   83  121
            0  0  1  1     3.350     46   84  122
            1  0  0  1     2.050     47   85  123
            0  1  0  1     2.050     48   86  124
            0  0  1  1     2.050     49   87  125
            1  0  0  1     1.200     50   88  126
            0  1  0  1     1.200     51   89  127
            0  0  1  1     1.200     52   90  128
            2  0  0  0     2.000     53   91  129
            1  1  0  0     2.000     54   92  130
            1  0  1  0     2.000     55   93  131
            0  2  0  0     2.000     56   94  132
            0  1  1  0     2.000     57   95  133
            0  0  2  0     2.000     58   96  134
            3  0  0  0     2.000     59   97  135
            2  1  0  0     2.000     60   98  136
            2  0  1  0     2.000     61   99  137
            1  2  0  0     2.000     62  100  138
            1  1  1  0     2.000     63  101  139
            1  0  2  0     2.000     64  102  140
            0  3  0  0     2.000     65  103  141
            0  2  1  0     2.000     66  104  142
            0  1  2  0     2.000     67  105  143
            0  0  3  0     2.000     68  106  144

 H                                    5
                                  ---------------------------------------------------------------------------
            0  0  0  0     0.690    145
            0  0  0  0     0.920    146
            0  0  0  0     1.580    147
            1  0  0  0     1.250    148
            0  1  0  0     1.250    149
            0  0  1  0     1.250    150
            2  0  0  0     2.500    151
            1  1  0  0     2.500    152
            1  0  1  0     2.500    153
            0  2  0  0     2.500    154
            0  1  1  0     2.500    155
            0  0  2  0     2.500    156

 Total number of charge fitting functions (nprimf)       452
 Total number of Cartesian basis functions (naos)        156
 Total number of Cartesian core functions  (ncos)          0

1
 ***************************************************************************************************



                                              ***********************
                                              *  T E C H N I C A L  *
                                              ***********************
  



 =============================================================
 P A R A L L E L I Z A T I O N  and  V E C T O R I Z A T I O N
 =============================================================
  
 Nr of parallel processes:                                4
 Maximum vector length in NumInt loops:                 128



 =====================
 S C F   U P D A T E S
 =====================
  
 Max. nr. of cycles:                               300
 Convergence criterion:                              0.0000010000
   secondary criterion:                              0.0010000000

 Mix parameter (when DIIS does not apply):           0.2000000000
 Mixed ADIIS+SDIIS will be used                  
    Max number of expansion vectors:                10
    Pure ADIIS when Max([F,P]) is above              0.1000000000
    Pure SDIIS when Max([F,P]) is below              0.0010000000
 Automatic ElectronSmearing (in case of problematic SCF convergence) disabled



 =================
 P R E C I S I O N  ***  (General: NumInt, NeglectFunctionTails, ...)  ***
 =================
  

 NumInt:           Target precision:                 6.0000000000
 -------           Initial precision:                6.0000000000
                   Min. precision (optimization):    6.0000000000

 Neglect Functions:          Basis functions:        0.1000000000E-07
 ------------------          Fit functions:          0.1000000000E-07



 ===========================
 L I N E A R   S C A L I N G
 ===========================
  

 Cut-off radii density fit:                        0.1000000000E-09
 Overlap cut-off criterion AO matrix elements:     0.1000000000E-07
 Cut-offs for Coulomb potential and fitted density:0.1000000000E-09
 Cut-off criterion for Coulomb multipole terms:    0.1000000000E-09
 Progressive Convergence parameter:                 0.000000000    

 Number of elements of the density matrix on this node (used, total):      3097     12246



 ===========================================
 Numerical Integration : Fuzzy Cells (Becke)
 ===========================================
  
 Becke grid quality: GOOD           
  
 Lebedev angular grid order:             min:  11 max:  31
 Nr. of radial points:                   min:  54 max:  80

 Total nr. of points:      76723
 Nr. of blocks:              600
 Block length:               128
 Nr. of dummy points:         77


 Test of Precision of the Numerical Integration Grid
 ===================================================

 Integral of the Total Core Density:                   0.00000000000000


 -------------------------------------------
  COSMO surface
  Area             =          340.665
  Volume           =          511.427
  Number of Points =          784
 -------------------------------------------



 ========================
 Density Fitting (zlmFit)
 ========================
  
 ZlmFit Fit Quality: GOOD           
  
 Max L-expansion:                        min:   8 max:   9
 Nr. of radial interpolation points:     min:  78 max: 120



 ======================
 RI Hartree-Fock Scheme
 ======================
  
 Fit Set Quality     : GOOD
 Integration Quality : GOOD
 Threshold Quality   : GOOD
 Response Quality    : DEFAULT
 Is Range Separated  :  F
 
 RIHartreeFock Dependency: number of modified vectors:           4



 =====
 S C F  ***  ScaSCF  ***
 =====
  
 Initial density matrix is taken from previous geometry

 CYCLE    1
  ***********************************************************
  ** : orbital data taken from :/tmp/amstmp_ams_kid0.531810576/GOStep4.rkf
  ***********************************************************
 SCF Error: norm([F,P])=      0.026613519673, max([F,P])=      0.008403484740
 orbitals (Q,E):
 ---------------
 A :20...39          ( 2.00    -0.6803)  ( 2.00    -0.5356)  ( 2.00    -0.5003)  ( 2.00    -0.5002)
                     ( 2.00    -0.3763)  ( 2.00    -0.3762)  ( 2.00    -0.3465)  ( 2.00    -0.3465)
                     ( 2.00    -0.3436)  ( 2.00    -0.3278)  ( 0.00    -0.0366)  ( 0.00     0.0090)
                     ( 0.00     0.0091)  ( 0.00     0.0165)  ( 0.00     0.1503)  ( 0.00     0.1504)
                     ( 0.00     0.1758)  ( 0.00     0.2090)  ( 0.00     0.2411)  ( 0.00     0.2412)

 CYCLE    2
  SDIIS (wt  0.000):  0.5705  0.4295
 A-DIIS (wt  1.000):  0.5951  0.4049
  DIIS coefficients:  0.5951  0.4049
 SCF Error: norm([F,P])=      0.035080545771, max([F,P])=      0.008441237745
 orbitals (Q,E):
 ---------------
 A :20...30          ( 2.00    -0.6744)  ( 2.00    -0.5299)  ( 2.00    -0.4966)  ( 2.00    -0.4966)
                     ( 2.00    -0.3742)  ( 2.00    -0.3741)  ( 2.00    -0.3445)  ( 2.00    -0.3444)
                     ( 2.00    -0.3401)  ( 2.00    -0.3260)  ( 0.00    -0.0326)

 CYCLE    3
  SDIIS (wt  0.000):  0.4023  0.0939  0.5038
 A-DIIS (wt  1.000):  0.2917  0.0000  0.7083
  DIIS coefficients:  0.2917  0.0000  0.7083
 SCF Error: norm([F,P])=      0.015227230615, max([F,P])=      0.005505608540
 orbitals (Q,E):
 ---------------
 A :20...30          ( 2.00    -0.6712)  ( 2.00    -0.5267)  ( 2.00    -0.4942)  ( 2.00    -0.4941)
                     ( 2.00    -0.3724)  ( 2.00    -0.3723)  ( 2.00    -0.3425)  ( 2.00    -0.3425)
                     ( 2.00    -0.3376)  ( 2.00    -0.3242)  ( 0.00    -0.0299)

 CYCLE    4
  SDIIS (wt  0.992): -0.2271 -0.0095  1.2366
 A-DIIS (wt  0.008):  0.0000  0.0000  1.0000
  DIIS coefficients: -0.2252 -0.0094  1.2346
 SCF Error: norm([F,P])=      0.007827847242, max([F,P])=      0.001816483122
 orbitals (Q,E):
 ---------------
 A :20...30          ( 2.00    -0.6679)  ( 2.00    -0.5231)  ( 2.00    -0.4914)  ( 2.00    -0.4914)
                     ( 2.00    -0.3705)  ( 2.00    -0.3705)  ( 2.00    -0.3406)  ( 2.00    -0.3405)
                     ( 2.00    -0.3353)  ( 2.00    -0.3225)  ( 0.00    -0.0268)

 CYCLE    5
  SDIIS (wt  1.000): -0.0306 -0.2497  0.6144  0.6658
  DIIS coefficients: -0.0306 -0.2497  0.6144  0.6658
 SCF Error: norm([F,P])=      0.003346730565, max([F,P])=      0.000832879285
 orbitals (Q,E):
 ---------------
 A :20...30          ( 2.00    -0.6682)  ( 2.00    -0.5236)  ( 2.00    -0.4918)  ( 2.00    -0.4917)
                     ( 2.00    -0.3707)  ( 2.00    -0.3706)  ( 2.00    -0.3407)  ( 2.00    -0.3407)
                     ( 2.00    -0.3355)  ( 2.00    -0.3226)  ( 0.00    -0.0271)

 CYCLE    6
  SDIIS (wt  1.000): -0.0036 -0.0280  0.0540  0.1691  0.8085
  DIIS coefficients: -0.0036 -0.0280  0.0540  0.1691  0.8085
 SCF Error: norm([F,P])=      0.000548665434, max([F,P])=      0.000087676844
 orbitals (Q,E):
 ---------------
 A :20...30          ( 2.00    -0.6682)  ( 2.00    -0.5235)  ( 2.00    -0.4917)  ( 2.00    -0.4916)
                     ( 2.00    -0.3707)  ( 2.00    -0.3706)  ( 2.00    -0.3407)  ( 2.00    -0.3406)
                     ( 2.00    -0.3354)  ( 2.00    -0.3226)  ( 0.00    -0.0270)

 CYCLE    7
  SDIIS (wt  1.000): -0.0002  0.0045 -0.0129  0.0165  0.2532  0.7389
  DIIS coefficients: -0.0002  0.0045 -0.0129  0.0165  0.2532  0.7389
 SCF Error: norm([F,P])=      0.000118440490, max([F,P])=      0.000015307761
 orbitals (Q,E):
 ---------------
 A :20...30          ( 2.00    -0.6682)  ( 2.00    -0.5235)  ( 2.00    -0.4917)  ( 2.00    -0.4916)
                     ( 2.00    -0.3707)  ( 2.00    -0.3706)  ( 2.00    -0.3407)  ( 2.00    -0.3407)
                     ( 2.00    -0.3354)  ( 2.00    -0.3226)  ( 0.00    -0.0270)

 CYCLE    8
  SDIIS (wt  1.000): -0.0001  0.0013 -0.0027 -0.0014  0.0284  0.1574  0.8171
  DIIS coefficients: -0.0001  0.0013 -0.0027 -0.0014  0.0284  0.1574  0.8171
 SCF Error: norm([F,P])=      0.000014401495, max([F,P])=      0.000002325623
 orbitals (Q,E):
 ---------------
 A :20...30          ( 2.00    -0.6682)  ( 2.00    -0.5235)  ( 2.00    -0.4917)  ( 2.00    -0.4916)
                     ( 2.00    -0.3707)  ( 2.00    -0.3706)  ( 2.00    -0.3407)  ( 2.00    -0.3407)
                     ( 2.00    -0.3354)  ( 2.00    -0.3226)  ( 0.00    -0.0270)

 CYCLE    9
  SDIIS (wt  1.000): -0.0001  0.0003 -0.0003 -0.0006  0.0006  0.0078  0.1353  0.8571
  DIIS coefficients: -0.0001  0.0003 -0.0003 -0.0006  0.0006  0.0078  0.1353  0.8571
 SCF Error: norm([F,P])=      0.000002073851, max([F,P])=      0.000000372841
 orbitals (Q,E):
 ---------------
 A :20...30          ( 2.00    -0.6682)  ( 2.00    -0.5235)  ( 2.00    -0.4917)  ( 2.00    -0.4916)
                     ( 2.00    -0.3707)  ( 2.00    -0.3706)  ( 2.00    -0.3407)  ( 2.00    -0.3407)
                     ( 2.00    -0.3354)  ( 2.00    -0.3226)  ( 0.00    -0.0270)

 SCF CONVERGED
 cosmo_calcen: 0.5 (esolb+esolc) (Hartrees) =   -0.003725

 Solvation energy (screening term,uncorrected) =     -2.337593 kcal/mol

 Solvation energy (dispersion and cavitation terms) =      0.510822 kcal/mol
 Solvation Energy Contributions (Hartrees)
          esola   esolb+esolc
     0.00372519   -0.00745038
 esol last cycle   -0.00372519

 CYCLE   10
1
 ***************************************************************************************************



                                                *******************
                                                *  R E S U L T S  *
                                                *******************
  
  
 Hartree-Fock exchange energy:   -88.1224015740142     
 *** Using FIT density in Focky
  SDIIS (wt  1.000): -0.0000  0.0001 -0.0001 -0.0002 -0.0007 -0.0025  0.0199  0.2490  0.7345
  DIIS coefficients: -0.0000  0.0001 -0.0001 -0.0002 -0.0007 -0.0025  0.0199  0.2490  0.7345
 SCF Error: norm([F,P])=      0.000000504638, max([F,P])=      0.000000070692

 Orbital Energies, per Irrep and Spin:
 ======================================
                        Occup              E (au)              E (eV)       Diff (eV) with prev. cycle
                        -----      --------------------        ------       --------------------------
 A
              20        2.000     -0.66817156404980E+00       -18.182               1.29E-06
              21        2.000     -0.52353174185877E+00       -14.246               7.09E-07
              22        2.000     -0.49170067962281E+00       -13.380               6.12E-07
              23        2.000     -0.49164857151586E+00       -13.378               7.94E-07
              24        2.000     -0.37068042717935E+00       -10.087               1.03E-08
              25        2.000     -0.37059764986741E+00       -10.084              -4.69E-08
              26        2.000     -0.34070640691957E+00        -9.271              -5.64E-08
              27        2.000     -0.34065169905434E+00        -9.270               1.30E-07
              28        2.000     -0.33542473547169E+00        -9.127               2.54E-07
              29        2.000     -0.32260083980092E+00        -8.778               9.60E-08
              30        0.000     -0.27043426308355E-01        -0.736
              31        0.000      0.19527833212560E-01         0.531
              32        0.000      0.19613620733184E-01         0.534
              33        0.000      0.33665487566998E-01         0.916
              34        0.000      0.16105141586210E+00         4.382
              35        0.000      0.16110428880548E+00         4.384
              36        0.000      0.18299890299773E+00         4.980
              37        0.000      0.22140174740964E+00         6.025
              38        0.000      0.25203894682752E+00         6.858
              39        0.000      0.25206191678571E+00         6.859
  
 HOMO :       29 A                -0.32260083980092E+00
 LUMO :       30 A                -0.27043426308355E-01
  
 cosmo_calcen: 0.5 (esolb+esolc) (Hartrees) =   -0.003725

 Solvation energy (screening term,uncorrected) =     -2.337594 kcal/mol

 Solvation energy (dispersion and cavitation terms) =      0.510822 kcal/mol
 Solvation Energy Contributions (Hartrees)
          esola   esolb+esolc
     0.00372519   -0.00745038
 esol last cycle   -0.00372519


 All Electron Calculation, thus no Orbital Energies of the Core Orbitals are calculated


 Fit test: (difference of exact and fit density, squared integrated, result summed over spins)
         Sum-of-Fragments:                             0.00000001628477
         Orthogonalized Fragments:                     0.00000579482834
         SCF:                                          0.00001404088903



 ==========================
 Electron Density at Nuclei
 ==========================
  
 The electron density is calculated at points on a small sphere around the center of a nucleus.
 The printed electron density is the average electron density on these points.
 The radius of the sphere is the printed approximate finite nuclear radius.

         Atom        Nuclear Radius (Angstrom)             Electron Density (a.u.)
         ----        -------------------------             -----------------------
     1)   C                 0.0000320678                              125.98823
     2)   Cl                0.0000426624                             3207.83213
     3)   Cl                0.0000426624                             3207.83217
     4)   H                 0.0000181514                                0.49455
     5)   Cl                0.0000426624                             3207.83228



 =======================================
 M U L L I K E N   P O P U L A T I O N S
 =======================================
  
 The survey below gives for each atom:
 a) the total charge (Z minus electrons)
 b) the net spin polarization (nr of electrons spin-A minus spin-B)
 c) for each spin the atomic electron valence density (integrated) per L-value.

 Atom              Charge    Spin density          S         P         D         F
 ----              ------    ------------       ------    ------    ------    ------
 1 C               0.3271                       3.0843    2.4758    0.1078    0.0050
 2 Cl             -0.1076                       5.9440   11.0825    0.0661    0.0150
 3 Cl             -0.1077                       5.9440   11.0826    0.0661    0.0150
 4 H              -0.0042                       0.9318    0.0667    0.0057    0.0000
 5 Cl             -0.1076                       5.9440   11.0825    0.0661    0.0150

 Populations of individual BAS functions
 ----------------------------------------
 1 C            0.4690  1.5472  0.2476  0.8909 -0.0705 -0.0441 -0.0457 -0.0605  0.6763  0.6890
                0.8087  0.1349  0.1390  0.1782  0.0151  0.0269  0.0183  0.0134  0.0208  0.0134
                0.0008  0.0017  0.0008  0.0016  0.0009 -0.0008 -0.0003  0.0014  0.0001 -0.0012
 2 Cl           0.5023  1.4564  1.7141  0.2618  0.7181  0.7226  0.7237  1.2876  1.2820  1.2805
                0.5590  1.0936  0.3567  0.1984  0.2419  0.2536  1.0293  1.1689  1.2035  0.2296
                0.3540  0.3887  0.0218  0.0214  0.0147  0.0015  0.0081 -0.0014  0.0137  0.0120
                0.0118 -0.0028  0.0030 -0.0062 -0.0041 -0.0001 -0.0035 -0.0088
 3 Cl           0.5023  1.4564  1.7142  0.2618  0.7244  0.7186  0.7215  1.2798  1.2871  1.2833
                0.5590  1.0936  0.3568  0.2595  0.2026  0.2319  1.2241  1.0418  1.1357  0.4056
                0.2425  0.3243 -0.0031  0.0127  0.0068  0.0190  0.0243  0.0064 -0.0102 -0.0079
               -0.0055  0.0103  0.0026  0.0030  0.0115  0.0115  0.0012 -0.0015
 5 Cl           0.5023  1.4564  1.7142  0.2617  0.7187  0.7209  0.7249  1.2869  1.2841  1.2790
                0.5590  1.0937  0.3567  0.2031  0.2251  0.2658  1.0466  1.1160  1.2392  0.2408
                0.3047  0.4268  0.0190  0.0275  0.0092  0.0080  0.0074 -0.0051  0.0117  0.0107
                0.0099  0.0030  0.0026 -0.0099  0.0022  0.0047 -0.0080 -0.0119
 4 H           -0.0749  0.7093  0.2973  0.0173  0.0186  0.0309 -0.0043  0.0008  0.0013 -0.0031
                0.0016  0.0095

 Gross Charges per Atom (Z minus electrons)
 ==========================================
             0.3271   -0.1076   -0.1077   -0.0042   -0.1076
 Net Total: -0.00000000


 Atom-Atom Population Matrix (off-diagonal elements not doubled)
 ===============================================================

     1 :     4.3265
     2 :     0.3177   17.0041
     3 :     0.3176   -0.0696   17.0042
     4 :     0.3937   -0.0752   -0.0752    0.8362
     5 :     0.3176   -0.0694   -0.0693   -0.0753   17.0041



 =================================================
 H I R S H F E L D   C H A R G E   A N A L Y S I S
 =================================================
  
 For each fragment: the (numerical) integral of rho(scf) * rho(fragment)/rho(sum-of-fragments)
 (nuclear charges are included, electrons are counted negative)

 The fragments and their ordering are defined in the early G E O M E T R Y output section.
 If you use single-atom fragments, this usually implies that all atoms of the same
 chemical type are grouped together. This may not be the order in which you listed them
 in the input file!

    1  C                         0.0355
    2  Cl                       -0.0351
    3  Cl                       -0.0352
    4  Cl                       -0.0351
    5  H                         0.0699

 Sum of these charges (accuracy NumInt/Tails) =          -0.00000175



 =============================
 V O R O N O I   C H A R G E S
 =============================
  
 For each atom: the (numerical) integral of the total electronic charge density in its Voronoi cell,
 i.e. the region of space that is closer to that atom than to any other atom.
 (cf. Wigner-Seitz cells in crystals)

 Within the Voronoi cell the subintegrals over the atomic sphere and the remaining part are evaluated
 separately to give the numbers of electrons (negative charge) in these regions.
 The net total charge in the cell (including the nuclear charge) is also given.

 Values are provided for
    a) the Initial (sum-of-fragments) density
    b) the Orthogonalized-Fragments density
    c) the SCF density
    d) the Voronoi Deformation Density (VDD): the difference SCF-Initial for the complete atomic cell


  Atom                Initial                    OrthFrag                   SCF
             Sphere RestCell NetTotal   Sphere RestCell NetTotal   Sphere RestCell NetTotal      VDD
 -----       ------------------------   ------------------------   ------------------------    -----
    1 C      -2.103   -3.760    0.136   -2.205   -3.640    0.156   -2.113   -3.684    0.202    0.066
    2 Cl    -10.762   -6.069    0.168  -10.835   -6.059    0.106  -10.761   -6.128    0.111   -0.058
    3 Cl    -10.762   -6.077    0.161  -10.835   -6.064    0.101  -10.761   -6.136    0.103   -0.058
    4 H      -0.087   -1.543   -0.630   -0.107   -1.359   -0.466   -0.132   -1.390   -0.522    0.108
    5 Cl    -10.762   -6.073    0.164  -10.835   -6.062    0.103  -10.761   -6.133    0.106   -0.058
 ---------------------------------------------------------------------------------------------------
 Total NetCharge:              -0.000                     -0.000                     -0.000    0.000
 (accuracy NumInt/Tails)

 Remark: the 'NetTotal' Voronoi charges often do not match the Mulliken and/or Hirshfeld charges very
 well. This is caused by the fact that chemically different atoms are not treated in accordance with
 their relative sizes. (Voronoi cells are defined by boundary planes halfway between the atoms.)
 However, the CHANGES in charge, comparing 'Initial' to 'SCF' for instance, do give a fair indication
 of the flow of charge caused by the relaxation from sum-of-fragments to self-consistency.

 Warning: the absolute accuracy of the VDD charges obtained using the Fuzzy Cells (Becke) integration
 scheme is much poorer than the one obtained with an 'equivalent' Voronoi integration grid. 



 =================================================================
 M U L T I P O L E   D E R I V E D   C H A R G E   A N A L Y S I S
 =================================================================

 This charge analysis uses the atomic multipoles (obtained from the fitted density) up to some level X,
 and reconstructs these multipoles exactly (up to level X) by distributing charges over all atoms.
 This is achieved by using Lagrange multipliers and a weight function to keep the multipoles local.

 Dummy atoms can be included (by setting INCDUM in MDC-block to 1) to obtain a fractional charge.
 This is generally useful and necessary only for small symmetrical molecules, when there are not
 enough degrees of freedom to reconstruct the multipoles.

 Since the atomic multipoles are reconstructed up to level X,
 the molecular multipoles are represented also up to level X.
 The recommended level is to reconstruct up to quadrupole : -> MDC-q charges.

 See: M. Swart, P.Th. van Duijnen, J.G. Snijders, J.Comput.Chem., (2001), p. 79-88.

 ------------------------------------------------------------- 
 Atomic electronic multipole moments from SCF equations (a.u.)
 ------------------------------------------------------------- 

   atom        charge        dip-x     dip-y     dip-z      quad-xx   quad-xy   quad-xz   quad-yy   quad-yz   quad-zz
 --------------------------------------------------------------------------------------------------------------------
    1 C     -0.442374     0.114584  0.164975 -0.399809    -0.196046  0.046049 -0.111539 -0.144431 -0.160597  0.340477
    2 Cl     0.163890    -0.440976  0.290603 -0.249658     0.808599 -0.747115  0.589605 -0.295037 -0.384765 -0.513562
    3 Cl     0.163707     0.158539 -0.421888 -0.371461    -0.795958 -0.387114 -0.319461  0.688709  0.881120  0.107249
    4 H     -0.049048     0.021126  0.030358 -0.073617    -0.126324  0.029676 -0.072084 -0.093124 -0.103677  0.219448
    5 Cl     0.163825     0.449197  0.371281  0.039387     0.749772  0.955336  0.167540  0.168746  0.131456 -0.918518

 --------------------------------------- 
 Multipole derived atomic charges (a.u.)
 --------------------------------------- 

 The MDC-m charges are just the Monopole terms in the multipole expansion, while for the MDC-d charges
 also the Dipoles are reconstructed. The usually preferred charges are the MDC-q charges.
 These reconstruct the Monopoles, Dipoles and Quadrupoles (both atomic AND molecular).

        Atom    Level:     MDC-m        MDC-d        MDC-q
 ---------------------------------------------------------
     1     C           -0.442374    -0.349671    -0.444156
     2     Cl           0.163890     0.015086     0.078441
     3     Cl           0.163707     0.014926     0.055987
     4     H           -0.049048     0.304636     0.186963
     5     Cl           0.163825     0.015023     0.122765

 ------------------------------------------------ 
 Average absolute deviations in atomic multipoles
 ------------------------------------------------ 

 Stated here are the average differences between the atomic multipoles
 and the reconstructed atomic multipoles (from the distributed charges).
 If these values are not zero, this means there are not enough degrees of freedom,
 to be able to reconstruct the atomic multipoles. (This usually happens only
[...]
 =======================
  
 Lead:
 J. Autschbach, B. Pritchard, Theor. Chem. Acc. 129 (2011), 453
  
 Suggested:
 G. Schreckenbach, T. Ziegler, J. Phys. Chem. A 101, 3388 (1997)
 
################################################################################
 
 
################################################################################
 
 
              <><><><><><><><><><><><><><><><><><><><><><><><><>
 
                 GENERAL ADF INFORMATION:
                 ------------------------
 
                 TITLE:    *** adf ***                                  
 JOB ID:      531810576
                 NONLXC:                                                
                 SYMMETRY: NOSYM                                        
                  
                 IOPREL:   0
                 ------>  non-rel. (Re MOs)
 
              <><><><><><><><><><><><><><><><><><><><><><><><><>
 
              ==================================================
 
                 NUCLEAR COORDINATES (ANGSTROMS):
                 --------------------------------
 
                 C  (  1):      -1.1931     -1.7892      0.0262
                 Cl (  2):       0.2043     -2.6404      0.6830
                 Cl (  3):      -1.6503     -0.4360      1.0603
                 Cl (  4):      -2.5497     -2.8902     -0.2118
                 H  (  5):      -0.9157     -1.3900     -0.9413
 
              ==================================================
 
              <><><><><><><><><><><><><><><><><><><><><><><><><>
 
                 NUMBERS:
                 --------
 
                 number of electrons:     58.00
 
                 ---   AOs   ---          ---   MOs   ---
                 ncor =     0             nocc =    29
                 nval =   156             nvir =   110
                 nbas =   156             nmo  =   139
                 naos =   156             nsot =   139
              ==================================================
                  
                 --------------------------
                     ATOM TYPE: C                        
                 --------------------------
                 === BASIS
                   1S    7.68     VALENCE
                   1S    5.00     VALENCE
                   2S    1.28     VALENCE
                   2S    2.10     VALENCE
                   2S    4.60     VALENCE
                   2P    0.82     VALENCE
                   2P    1.48     VALENCE
                   2P    2.94     VALENCE
                   3D    2.20     VALENCE
                   4F    3.30     VALENCE
                  
                 --------------------------
                     ATOM TYPE: Cl                       
                 --------------------------
                 === BASIS
                   1S   20.30     VALENCE
                   1S   15.25     VALENCE
                   2S    6.25     VALENCE
                   2S    4.45     VALENCE
                   2P    8.85     VALENCE
                   2P    5.05     VALENCE
                   3S    3.45     VALENCE
                   3S    2.30     VALENCE
                   3S    1.60     VALENCE
                   3P    3.35     VALENCE
                   3P    2.05     VALENCE
                   3P    1.20     VALENCE
                   3D    2.00     VALENCE
                   4F    2.00     VALENCE
                  
                 --------------------------
                     ATOM TYPE: H                        
                 --------------------------
                 === BASIS
                   1S    0.69     VALENCE
                   1S    0.92     VALENCE
                   1S    1.58     VALENCE
                   2P    1.25     VALENCE
                   3D    2.50     VALENCE
                  
              ==================================================
              <><><><><><><><><><><><><><><><><><><><><><><><><>
 
                 TENSOR INFORMATION:
                 -------------------
 
                              CALC                   U1K
 
                 paramagnetic  = T     mass-velocity = F
                 diamagnetic   = T     Darwin        = F
                 Fermi-cont.   = F     Zeeman        = F
                 ZORA SO       = F     ZORA SO       = F
                 ZORA SCALE    = F     ZORA SO FULL  = F
                 ZORA SO 1C    = F     E IN U1 SCL   = F
 
              <><><><><><><><><><><><><><><><><><><><><><><><><>
 
              <><><><><><><><><><><><><><><><><><><><><><><><><>
 
                 OUTPUT SWITCHES:
                 ----------------
 
                           ISO = T                F1 = F
                          TENS = T                S1 = F
                           EIG = F                U1 = F
                           AOP = F                B1 = F
                           AOD = F                F  = F
                           AOF = F                 S = F
                          INFO = F              REFS = F
 
              <><><><><><><><><><><><><><><><><><><><><><><><><>
 
              --------------------------------------------------
 
                 CALCULATE THE POTENTIAL? F
                  
                 ---> Potential is already on TAPE10.
                      It will not be re-calculated.
 
              --------------------------------------------------



 ===========================
 L I N E A R   S C A L I N G
 ===========================
  

 Overlap cut-off criterion AO matrix elements:     0.1000000000E-07
 ========================
 STARTING A NEW SCF. Step            1
 CRIT   1.00000000000000     
 CRIT   1.00000000000000     
 CRIT   1.00000000000000     
 ========================
 STARTING A NEW SCF. Step            2
 CRIT   4.84532575764878     
 CRIT   4.50115859808998     
 CRIT   7.00619843689182     
 ========================
 STARTING A NEW SCF. Step            3
 CRIT  0.435695241547404     
 CRIT  0.414937188537618     
 CRIT  0.630740351254788     
 ========================
 STARTING A NEW SCF. Step            4
 CRIT  3.598032664079435E-002
 CRIT  3.075412724676547E-002
 CRIT  5.620124875725518E-002
 ========================
 STARTING A NEW SCF. Step            5
 CRIT  2.249830044271868E-003
 CRIT  1.931626620153848E-003
 CRIT  3.168419654689691E-003
 ========================
 STARTING A NEW SCF. Step            6
 CRIT  1.197305943091503E-004
 CRIT  1.141077946352240E-004
 CRIT  1.488709950296246E-004
 ========================
 STARTING A NEW SCF. Step            7
 CRIT  1.183063409417589E-005
 CRIT  1.222961606651832E-005
 CRIT  1.191355544223468E-005
 ========================
 STARTING A NEW SCF. Step            8
 CRIT  1.040874679540178E-006
 CRIT  9.504768318719082E-007
 CRIT  1.080336113075577E-006
 ========================
 STARTING A NEW SCF. Step            9
 CRIT  5.820653712643190E-008
 CRIT  8.163113077244201E-008
################################################################################
********************************************************************************
****  N U C L E U S : C(1)
 
 ADF-GUI atom: C(1)
 Internal NMR numbering of atoms: C(1)
 
 
================================================================================
 
 
===  PARAMAGNETIC NMR SHIELDING TENSORS (ppm)
 
    ===     paramagnetic b^(1) tensor       ===     paramagnetic u^(1) tensor
    -----------------------------------     -----------------------------------
           0.000     0.000     0.000            -225.217    -7.576    11.428
           0.000     0.000     0.000              -7.576  -231.215    17.024
           0.000     0.000     0.000              11.428    17.024  -236.243
    -----------------------------------     -----------------------------------
              isotropic =      0.000                  isotropic =   -230.891

    ===     paramagnetic s^(1) tensor       ===     paramagnetic gauge tensor
    -----------------------------------     -----------------------------------
          94.756     5.365    -3.191              -2.514    -2.494     3.261
           5.365    99.093    -5.144              -2.494    -4.465     4.850
          -3.191    -5.144    69.519               3.261     4.850    -2.901
    -----------------------------------     -----------------------------------
              isotropic =     87.789                  isotropic =     -3.293

                        ***********************************
                        CARTESIAN AXIS REPRESENTATION

                        ==== total paramagnetic tensor
                        -----------------------------------
                            -132.975    -4.705    11.498
                              -4.705  -136.587    16.729
                              11.498    16.729  -169.625
                        -----------------------------------
                                  isotropic =   -146.396

                        ***********************************
                        -----------------------------------
                        PRINCIPAL AXIS REPRESENTATION

                        ==== Principal components:

                            -179.905  -129.741  -129.540
 
                        ==== Principal Axis System:

                              -0.256     0.823    -0.507
                              -0.372    -0.568    -0.734
                               0.892    -0.001    -0.452
                        -----------------------------------
 
================================================================================
 
 
===  DIAMAGNETIC NMR SHIELDING TENSORS (ppm)
 
    ===       diamagnetic core tensor       ===    diamagnetic valence tensor
    -----------------------------------     -----------------------------------
           0.000     0.000     0.000             237.656    -0.836     2.047
           0.000     0.000     0.000              -0.836   237.032     2.927
           0.000     0.000     0.000               2.047     2.927   231.168
    -----------------------------------     -----------------------------------
              isotropic =      0.000                  isotropic =    235.285

                        ***********************************
                        CARTESIAN AXIS REPRESENTATION

                        ==== total diamagnetic tensor
                        -----------------------------------
                             237.656    -0.836     2.047
                              -0.836   237.032     2.927
                               2.047     2.927   231.168
                        -----------------------------------
                                  isotropic =    235.285

                        ***********************************
                        -----------------------------------
                        PRINCIPAL AXIS REPRESENTATION

                        ==== Principal components:

                             229.368   238.234   238.254
 
                        ==== Principal Axis System:

                              -0.258     0.619    -0.742
                              -0.369    -0.773    -0.517
                               0.893    -0.141    -0.428
                        -----------------------------------
 
================================================================================
 
 
===  TOTAL NMR SHIELDING TENSOR (ppm)
 
                        ***********************************
                        CARTESIAN AXIS REPRESENTATION

                        ==== total shielding tensor
                        -----------------------------------
                             104.681    -5.541    13.546
                              -5.541   100.445    19.656
                              13.546    19.656    61.543
                        -----------------------------------
                                  isotropic =     88.890

                        ***********************************
                        -----------------------------------
                        PRINCIPAL AXIS REPRESENTATION

                        ==== Principal components:

                              49.463   108.495   108.712
 
                        ==== Principal Axis System:

                              -0.256     0.808    -0.530
                              -0.372    -0.588    -0.718
                               0.892    -0.013    -0.451
                        -----------------------------------
################################################################################
********************************************************************************
****  N U C L E U S : H(5)
 
 ADF-GUI atom: H(4)
 Internal NMR numbering of atoms: H(5)
 
 
================================================================================
 
 
===  PARAMAGNETIC NMR SHIELDING TENSORS (ppm)
 
    ===     paramagnetic b^(1) tensor       ===     paramagnetic u^(1) tensor
    -----------------------------------     -----------------------------------
           0.000     0.000     0.000             -10.154     5.262    -4.285
           0.000     0.000     0.000               5.262    -6.002    -6.741
           0.000     0.000     0.000              -4.285    -6.741   -25.929
    -----------------------------------     -----------------------------------
              isotropic =      0.000                  isotropic =    -14.028

    ===     paramagnetic s^(1) tensor       ===     paramagnetic gauge tensor
    -----------------------------------     -----------------------------------
           7.248    -5.198     5.101               0.520    -0.772     1.110
          -5.198     3.112     7.792              -0.772    -0.074     1.643
           5.101     7.792    17.984               1.110     1.643    -0.349
    -----------------------------------     -----------------------------------
              isotropic =      9.448                  isotropic =      0.032

                        ***********************************
                        CARTESIAN AXIS REPRESENTATION

                        ==== total paramagnetic tensor
                        -----------------------------------
                              -2.385    -0.709     1.926
                              -0.709    -2.965     2.694
                               1.926     2.694    -8.294
                        -----------------------------------
                                  isotropic =     -4.548

                        ***********************************
                        -----------------------------------
                        PRINCIPAL AXIS REPRESENTATION

                        ==== Principal components:

                              -9.973    -1.920    -1.751
 
                        ==== Principal Axis System:

                              -0.261     0.664    -0.700
                              -0.369    -0.739    -0.563
                               0.892    -0.112    -0.438
                        -----------------------------------
 
================================================================================
 
 
===  DIAMAGNETIC NMR SHIELDING TENSORS (ppm)
 
    ===       diamagnetic core tensor       ===    diamagnetic valence tensor
    -----------------------------------     -----------------------------------
           0.000     0.000     0.000              25.057     1.321    -3.184
           0.000     0.000     0.000               1.321    26.035    -4.584
           0.000     0.000     0.000              -3.184    -4.584    35.254
    -----------------------------------     -----------------------------------
              isotropic =      0.000                  isotropic =     28.782

                        ***********************************
                        CARTESIAN AXIS REPRESENTATION

                        ==== total diamagnetic tensor
                        -----------------------------------
                              25.057     1.321    -3.184
                               1.321    26.035    -4.584
                              -3.184    -4.584    35.254
                        -----------------------------------
                                  isotropic =     28.782

                        ***********************************
                        -----------------------------------
                        PRINCIPAL AXIS REPRESENTATION

                        ==== Principal components:

                              24.136    24.150    38.059
 
                        ==== Principal Axis System:

                               0.715    -0.651    -0.256
                              -0.695    -0.618    -0.369
                              -0.082    -0.442     0.893
                        -----------------------------------
 
================================================================================
 
 
===  TOTAL NMR SHIELDING TENSOR (ppm)
 
                        ***********************************
                        CARTESIAN AXIS REPRESENTATION

                        ==== total shielding tensor
                        -----------------------------------
                              22.671     0.612    -1.258
                               0.612    23.070    -1.890
                              -1.258    -1.890    26.960
                        -----------------------------------
                                  isotropic =     24.234

                        ***********************************
                        -----------------------------------
                        PRINCIPAL AXIS REPRESENTATION

                        ==== Principal components:

                              22.216    22.399    28.087
 
                        ==== Principal Axis System:

                               0.670    -0.699    -0.250
                              -0.733    -0.572    -0.368
                              -0.114    -0.430     0.896
                        -----------------------------------
 *******************************************************************************

                             N M R   E X I T
 NORMAL TERMINATION



 =================
 Timing Statistics
 =================
  
 Total Used :                     CPU=       22.39      System=        0.82     Elapsed=       29.36

 Calls  Section                     ( Mean, Percentage )
 ---------------------------------------------------------------------------------------------------
     3  ><      ................      0.00    0.03             0.00    0.00             0.00    0.02
     1  INIT    ................      0.89    3.99             0.03    3.87             1.04    3.53
     1  RDEIGX  ................     12.36   55.23             0.27   32.47            15.89   54.13
     1  AOF1K   ................      0.51    2.27             0.02    2.40             0.53    1.82
     2  AOPKK   ................      3.47   30.97             0.19   45.15             5.04   34.31
     2  XSIGP   ................      0.00    0.04             0.00    0.50             0.01    0.04
     2  AODKKK  ................      0.84    7.46             0.06   14.97             0.90    6.11
     2  XDV     ................      0.00    0.00             0.00    0.00             0.00    0.00
     2  XSIGD   ................      0.00    0.00             0.00    0.00             0.00    0.00
     1  EXIT PROCEDURE .........      0.00    0.00             0.01    0.65             0.01    0.03


 Currently Open Files (EXIT00)
 ====================

 Unit    Access Format  Status   Type       Ident (file)
 -------------------------------------------------------
   3      SEQ    FORM   TRANSP  NORMAL      LOGFILE
                                          ( /home/milias/work/projects/open-collection/theoretical_chemistry/projects/nmr_diplomovky/reference_compounds/chloroform/ams/pbe0_tz2p_good/cosmo-chcl3/chloroform.geopt_freq_nmrshield_pbe0_tz2p_good_cosmo-chcl3.logfile )
