

 Parallel Execution: Process Information
 ==============================================================================
 Rank   Node Name                              NodeID   MyNodeRank  NodeMaster
    0   adf1                                      0          0          0
    1   adf1                                      0          1         -1
    2   adf1                                      0          2         -1
    3   adf1                                      0          3         -1
    4   adf1                                      0          4         -1
    5   adf1                                      0          5         -1
    6   adf1                                      1          0          1
    7   adf1                                      1          1         -1
    8   adf1                                      1          2         -1
    9   adf1                                      1          3         -1
   10   adf1                                      1          4         -1
   11   adf1                                      1          5         -1
 ==============================================================================


May use up to 11697MB of RAM as shared memory on node 0
May use up to 11718MB of RAM as shared memory on node 1

 *******************************************************************************
 *                                                                             *
 *  --------------------------------                                           *
 *   Amsterdam Modeling Suite (AMS)              2021.102                      *
 *  --------------------------------                                           *
 *                                               r95042 2021-06-07             *
 *                                                                             *
 *                                                                             *
 *                              =================                              *
 *                              |               |                              *
 *                              |     A M S     |                              *
 *                              |               |                              *
 *                              =================                              *
 *                                                                             *
 *                                                                             *
 *   Online information and documentation:  https://www.scm.com/support/       *
 *   E-mail:  support@scm.com   info@scm.com                                   *
 *                                                                             *
 *   Scientific publications using AMS results must be properly referenced     *
 *   See the User Manuals (or the web site) for recommended citations          *
 *   The terms and conditions of the End User License Agreement apply to       *
 *   the use of AMS, https://www.scm.com/license-terms/                        *
 *                                                                             *
 **********************  x86_64_linux_intel / intelmpi  ************************
 
 Licensed to: Dr. Miroslav Ilias / Matej Bel University, Department Chemistry, Fac. Natural Sciences / Banska Bystrica / SLOVAKIA
 SCM User ID: u17848
  
 AMS 2021.102  RunTime: Aug03-2021 22:27:55  ShM Nodes: 2  Procs: 12

 AMS jobname: ams
 AMS jobid  : 911581515

 Start   directory: /home/milias/Work/projects/open-collection/theoretical_chemistry/projects/nmr_diplomovky/derivaty_markerov/derivative_2/ams/tmp.milias.15921.0.noindex/
 Results directory: /home/milias/Work/projects/open-collection/theoretical_chemistry/projects/nmr_diplomovky/derivaty_markerov/derivative_2/ams/der2.geopt_freq_nmr_pbe0_tz2p_good_cosmo-chcl3.results/
 Scratch directory: /tmp/amstmp_ams_kid0.911581515/


 Communication costs MPI_COMM_WORLD:      7.069 usec per message,   0.1017 usec per 8-byte item
 Communication costs for intra-node:      1.378 usec per message,   0.0222 usec per 8-byte item

 RNG seed: 1925032767 -889870478 1758503883 -1165284092 -248856237 -667523204 -1303600879 1040645956



                     *************************************************************************
                     *  ADF 2021.102  RunTime: Aug03-2021 22:27:56  ShM Nodes: 2  Procs: 12  *
                     *************************************************************************
  
       ***************************
       *  GEOMETRY OPTIMIZATION  *
       ***************************

Optimization Method                    Quasi Newton
Optimization Coordinates               Delocalized Coordinates
Optimize lattice                       F
 
 ------------------------------------------------------
 Convergence criteria (Hartree,Angstrom)
 ------------------------------------------------------
 Maximum gradient               0.001000000000
 Maximum rms gradient           0.000666666667
 Maximum step allowed           0.001000000000
 Maximum rms step allowed       0.000666666667
 Maximum energy change allowe   0.000370000000
 Maximum stress energy allowe   0.000500000000
 
Initial model Hessian                  Automatic Hessian
 
------------------------------------
Quasi-Newton Optimizer Parameters
------------------------------------
Hessian Update Method                  BFGS
Maximum number of steps                  250
First GDIIS cycle                          0
Maximum GDIIS vectors                      0
Trust radius (bohr)                        0.200000
Trust radius varies                        T
Constraints converged at all steps         T
Use projector                              T
 
 Rigid motions settings for: old optimizer
 Atomic rotations (x,y,z):     T T T
 Atomic translations (x,y,z):  T T T
 Tolerance:                   1.000000000000000E-006
 
--------
Geometry
--------
Formula: C10H22NO3P
Atoms
  Index Symbol   x (angstrom)   y (angstrom)   z (angstrom)
      1      O     3.34723518    -0.63069891     0.34425926       adf.R=1.517
      2      P     2.15544977    -0.76754824    -0.92502641       adf.R=1.850
      3      O     1.57366948     0.87301120    -0.74918958       adf.R=1.517
      4      O     0.95071700    -1.48632499     0.11138299       adf.R=1.517
      5      C     0.51003967     0.85327677     0.16499521       adf.R=1.700
      6      C    -0.11524266    -0.58141342     0.14851778       adf.R=1.700
      7      C     1.07943818     1.23807875     1.55227044       adf.R=1.700
      8      C    -0.49186962     1.95028966    -0.25323327       adf.R=1.700
      9      C    -1.01435738    -0.83476014    -1.09031018       adf.R=1.700
     10      C    -0.95498667    -0.88877568     1.40733512       adf.R=1.700
     11      H     0.26340238     1.45524372     2.27430892       adf.R=1.350
     12      H     1.70823693     0.42609396     1.97135119       adf.R=1.350
     13      H     1.71071991     2.14899626     1.46776812       adf.R=1.350
     14      H    -0.78533062     1.83910336    -1.31802133       adf.R=1.350
     15      H    -1.40367888     1.91968401     0.37913954       adf.R=1.350
     16      H    -0.02981129     2.95586561    -0.14998192       adf.R=1.350
     17      H    -1.96662975    -0.26709573    -1.01679691       adf.R=1.350
     18      H    -0.50139191    -0.53952430    -2.02994667       adf.R=1.350
     19      H    -1.26673834    -1.91439791    -1.16613520       adf.R=1.350
     20      H    -1.74562415    -0.12384465     1.55537282       adf.R=1.350
     21      H    -1.44500781    -1.88203604     1.31357562       adf.R=1.350
     22      H    -0.31733927    -0.93066900     2.31499145       adf.R=1.350
     23      C     4.50290061    -0.07068297    -0.22573188       adf.R=1.700
     24      C     5.60693355    -0.01513166     0.82660133       adf.R=1.700
     25      N     6.85458631     0.49357323     0.21532092       adf.R=1.608
     26      C     6.97161896     1.95189577     0.38396409       adf.R=1.700
     27      H     8.01643113    -1.25326264     0.53198102       adf.R=1.350
     28      H     7.84975939     2.32948201    -0.18271146       adf.R=1.350
     29      C     8.03217669    -0.17295889     0.79236782       adf.R=1.700
     30      H     4.86417921    -0.69618469    -1.07429500       adf.R=1.350
     31      H     4.29292516     0.96140539    -0.58480041       adf.R=1.350
     32      H     5.74160274    -1.04941374     1.21914722       adf.R=1.350
     33      H     5.27946734     0.61516706     1.68591146       adf.R=1.350
     34      H     8.05421621    -0.06357197     1.89956604       adf.R=1.350
     35      H     7.08735008     2.22671948     1.45636389       adf.R=1.350
     36      H     6.07457152     2.46405898    -0.02410355       adf.R=1.350
     37      H     8.96696598     0.25029375     0.36497388       adf.R=1.350
 
Total System Charge             0.00000
Bonding info available!
 
 
----------------
ADF Engine Input
----------------
 
 Basis
 Type TZ2P
 Core None
 End
 Save TAPE10
 XC
 Hybrid PBE0
 End
 Relativity
 Level None
 End
 Symmetry NOSYM
 Solvation
 Surf Delley
 Solv name=Chloroform cav0=0.0 cav1=0.0067639
 Charged method=CONJ
 C-Mat POT
 SCF VAR ALL
 CSMRSP
 End
 NumericalQuality Good
 UseSPCode Yes
 

 Title: *** (NO TITLE) ***

 Using automatic Hessian for delocalized coordinates.
 *** GOStep1 ***

 SOLVATION
-------------------------------------------

  The Delley construction of COSMO surface surface is calculated

       Division Level for Surface Triangles (NDIV)                  3
       Final Division Level for Triangles (NFDIV)                   1
       Radius of the Solvent (RSOL)                           3.17000 angstr
  Dielectric Constant (EPSL)                                  4.80000

       COSMO equation is solved iteratively-               conjugate-gradient

       Maximun of Iterations for Charges (NCIX)                  1000
       Criterion for Charge convergence (CCNV)                1.0E-08

  COSMO charges included variationally in SCF

       COSMO included at every SCF cycle

  Geometry-dependent empirical factor                         0.00000

  C-Matrix calculated in cspmtx

  In cspmtx, C-Matrix calculated using fitted potential

-------------------------------------------



 -------------------------------------------
  COSMO surface
  Area             =          970.528
  Volume           =         2068.310
  Number of Points =         2338
 -------------------------------------------



 ======================
 RI Hartree-Fock Scheme
 ======================
  
 Fit Set Quality     : GOOD
 Integration Quality : GOOD
 Threshold Quality   : GOOD
 Response Quality    : DEFAULT
 Is Range Separated  :  F
 
 RIHartreeFock Dependency: number of modified vectors:          33
 cosmo_calcen: 0.5 (esolb+esolc) (Hartrees) =   -0.010296

 Solvation energy (screening term,uncorrected) =     -6.460534 kcal/mol

 Solvation energy (dispersion and cavitation terms) =      1.455291 kcal/mol
 Solvation Energy Contributions (Hartrees)
          esola   esolb+esolc
     0.01029552   -0.02059103
 esol last cycle   -0.01029552
  
 Hartree-Fock exchange energy:   -113.424595910533     
 cosmo_calcen: 0.5 (esolb+esolc) (Hartrees) =   -0.010296

 Solvation energy (screening term,uncorrected) =     -6.460532 kcal/mol

 Solvation energy (dispersion and cavitation terms) =      1.455291 kcal/mol
 Solvation Energy Contributions (Hartrees)
          esola   esolb+esolc
     0.01029551   -0.02059102
 esol last cycle   -0.01029551
  pauli hf:                              1.568344830002978         42.6768           984.15          4117.69
  elstat hf:                            -3.598774597495670        -97.9276         -2258.27         -9448.58

 Energy gradients wrt nuclear displacements
 ==========================================

     Atom      Cartesian (a.u./angstrom)
                 X         Y         Z
 ----------------------------------------
     1 O     0.062321  0.028421  0.064959
     2 P     0.004627 -0.049370 -0.131855
     3 O    -0.024230  0.109334  0.047508
     4 O    -0.093024 -0.034067  0.063836
     5 C     0.039334 -0.046234 -0.050021
     6 C     0.075560 -0.011665 -0.009871
     7 C     0.001256  0.006420 -0.017905
     8 C     0.003923 -0.002980  0.011074
     9 C     0.005234 -0.007210  0.006365
    10 C    -0.004025  0.003984 -0.010854
    11 H    -0.016461  0.004381  0.015883
    12 H     0.012415 -0.017449  0.009925
    13 H     0.015574  0.020503  0.003735
    14 H    -0.004192  0.000205 -0.023137
    15 H    -0.019017 -0.000724  0.013009
    16 H     0.007482  0.023602 -0.001699
    17 H    -0.021887  0.011486  0.003073
    18 H     0.010210  0.004636 -0.016518
    19 H    -0.009094 -0.023428 -0.006383
    20 H    -0.016905  0.016032  0.003722
    21 H    -0.010406 -0.022406  0.003084
    22 H     0.012903 -0.004775  0.019866
    23 C    -0.036776 -0.015159  0.009124
    24 C    -0.005474  0.005901  0.001317
    25 N    -0.002993 -0.002679 -0.023255
    26 C     0.002402  0.003691  0.010379
    27 H     0.001940 -0.022517 -0.008894
    28 H     0.017283  0.009864 -0.013668
    29 C     0.001985  0.004174  0.009353
    30 H     0.005147 -0.017060 -0.013152
    31 H    -0.005151  0.018854 -0.000255
    32 H    -0.004559 -0.024393  0.010579
    33 H    -0.006400  0.010325  0.013195
    34 H    -0.005528  0.002797  0.013850
    35 H     0.001718 -0.000120  0.013999
    36 H    -0.017480  0.012527 -0.010407
    37 H     0.022286  0.005099 -0.009962
 ----------------------------------------
 Mulliken charges used for AMS results%charges...
 
----------------------------------------------------------------------
Geometry Convergence after Step   1       (Hartree/Angstrom,Angstrom)
----------------------------------------------------------------------
current energy                               -9.23865973 Hartree
energy change                      -9.23865973     0.00037000    F
constrained gradient max            0.13186949     0.00100000    F
constrained gradient rms            0.02759470     0.00066667    F
gradient max                        0.13186949
gradient rms                        0.02759470
cart. step max                      0.11506734     0.00100000    F
cart. step rms                      0.04722088     0.00066667    F
 
 
--------
Geometry
--------
Formula: C10H22NO3P
Atoms
  Index Symbol   x (angstrom)   y (angstrom)   z (angstrom)
      1      O     3.37970521    -0.59508211     0.26685997       adf.R=1.517
      2      P     2.15428689    -0.71376143    -0.93351536       adf.R=1.850
      3      O     1.50746608     0.87784412    -0.78531316       adf.R=1.517
      4      O     0.99277817    -1.43014583     0.10801481       adf.R=1.517
      5      C     0.44738451     0.87621098     0.15610061       adf.R=1.700
      6      C    -0.12773671    -0.56746269     0.16658326       adf.R=1.700
      7      C     1.02067934     1.30096836     1.52196884       adf.R=1.700
      8      C    -0.58384398     1.93106646    -0.26790945       adf.R=1.700
      9      C    -1.02850537    -0.85541235    -1.05263265       adf.R=1.700
     10      C    -0.92829469    -0.89412440     1.43460019       adf.R=1.700
     11      H     0.21516639     1.51421368     2.24310276       adf.R=1.350
     12      H     1.66988437     0.52113610     1.94678941       adf.R=1.350
     13      H     1.62132875     2.21635872     1.40006775       adf.R=1.350
     14      H    -0.88883073     1.78957683    -1.31633613       adf.R=1.350
     15      H    -1.47744728     1.89156202     0.37419370       adf.R=1.350
     16      H    -0.14487863     2.93883107    -0.18976284       adf.R=1.350
     17      H    -1.99257949    -0.32918043    -0.97066104       adf.R=1.350
     18      H    -0.54500415    -0.54806168    -1.99485972       adf.R=1.350
     19      H    -1.23296596    -1.93613980    -1.11199827       adf.R=1.350
     20      H    -1.73802430    -0.16444441     1.58878093       adf.R=1.350
     21      H    -1.37670886    -1.89720952     1.34968302       adf.R=1.350
     22      H    -0.27888432    -0.90281823     2.32335549       adf.R=1.350
     23      C     4.55437106    -0.02731474    -0.28393403       adf.R=1.700
     24      C     5.64155222    -0.02374223     0.78262284       adf.R=1.700
     25      N     6.90210503     0.48308411     0.22626750       adf.R=1.608
     26      C     7.03029161     1.92359497     0.44652445       adf.R=1.700
     27      H     8.02578167    -1.27618932     0.51353934       adf.R=1.350
     28      H     7.92115611     2.30304699    -0.07934940       adf.R=1.350
     29      C     8.04899285    -0.21417011     0.80687747       adf.R=1.700
     30      H     4.91623365    -0.62040121    -1.14458568       adf.R=1.350
     31      H     4.36199505     1.01068248    -0.61216693       adf.R=1.350
     32      H     5.76282620    -1.06205422     1.13873875       adf.R=1.350
     33      H     5.30832875     0.57741703     1.65151554       adf.R=1.350
     34      H     8.05518855    -0.14598691     1.91212831       adf.R=1.350
     35      H     7.11957428     2.16663609     1.52360000       adf.R=1.350
     36      H     6.15608128     2.45246182     0.03523708       adf.R=1.350
     37      H     8.98713148     0.21295317     0.41705500       adf.R=1.350
 
Total System Charge             0.00000
Bonding info available!
 
 *** GOStep2 ***

 SOLVATION
-------------------------------------------

  The Delley construction of COSMO surface surface is calculated

       Division Level for Surface Triangles (NDIV)                  3
       Final Division Level for Triangles (NFDIV)                   1
       Radius of the Solvent (RSOL)                           3.17000 angstr
  Dielectric Constant (EPSL)                                  4.80000

       COSMO equation is solved iteratively-               conjugate-gradient

       Maximun of Iterations for Charges (NCIX)                  1000
       Criterion for Charge convergence (CCNV)                1.0E-08

  COSMO charges included variationally in SCF

       COSMO included at every SCF cycle

  Geometry-dependent empirical factor                         0.00000

  C-Matrix calculated in cspmtx

  In cspmtx, C-Matrix calculated using fitted potential

-------------------------------------------



 -------------------------------------------
  COSMO surface
  Area             =          968.457
  Volume           =         2053.694
  Number of Points =         2313
 -------------------------------------------



 ======================
 RI Hartree-Fock Scheme
 ======================
  
 Fit Set Quality     : GOOD
 Integration Quality : GOOD
 Threshold Quality   : GOOD
 Response Quality    : DEFAULT
 Is Range Separated  :  F
 
 RIHartreeFock Dependency: number of modified vectors:          35
 cosmo_calcen: 0.5 (esolb+esolc) (Hartrees) =   -0.010233

 Solvation energy (screening term,uncorrected) =     -6.421350 kcal/mol

 Solvation energy (dispersion and cavitation terms) =      1.452185 kcal/mol
 Solvation Energy Contributions (Hartrees)
          esola   esolb+esolc
     0.01023307   -0.02046614
 esol last cycle   -0.01023307
  
 Hartree-Fock exchange energy:   -113.537181385648     
 cosmo_calcen: 0.5 (esolb+esolc) (Hartrees) =   -0.010233

 Solvation energy (screening term,uncorrected) =     -6.421353 kcal/mol

 Solvation energy (dispersion and cavitation terms) =      1.452185 kcal/mol
 Solvation Energy Contributions (Hartrees)
          esola   esolb+esolc
     0.01023308   -0.02046615
 esol last cycle   -0.01023308
  pauli hf:                              1.407595862370030         38.3026           883.28          3695.64
  elstat hf:                            -3.651153315523729        -99.3529         -2291.13         -9586.10

 Energy gradients wrt nuclear displacements
 ==========================================

     Atom      Cartesian (a.u./angstrom)
                 X         Y         Z
 ----------------------------------------
     1 O     0.052318  0.014813  0.052928
     2 P     0.006946 -0.042632 -0.105268
     3 O    -0.020594  0.084262  0.030395
     4 O    -0.066332 -0.029631  0.050582
     5 C     0.024309 -0.034824 -0.038164
     6 C     0.054049 -0.003861 -0.004385
     7 C    -0.000488  0.007020 -0.008297
     8 C    -0.002623 -0.000047  0.012835
     9 C    -0.000220 -0.004103  0.003964
    10 C    -0.009583  0.005288 -0.006180
    11 H    -0.009040  0.002582  0.009674
    12 H     0.006207 -0.009113  0.005885
    13 H     0.008599  0.011440  0.001869
    14 H    -0.001814 -0.000199 -0.013391
    15 H    -0.011083  0.000071  0.006941
    16 H     0.004075  0.013216 -0.002091
    17 H    -0.012668  0.005955  0.001307
    18 H     0.005667  0.003145 -0.010020
    19 H    -0.004488 -0.013038 -0.003584
    20 H    -0.009848  0.008338  0.003000
    21 H    -0.004741 -0.013070  0.002190
    22 H     0.007842 -0.003232  0.010760
    23 C    -0.024165 -0.008857  0.002543
    24 C    -0.000798  0.004967  0.002276
    25 N    -0.001849 -0.001357 -0.017675
    26 C     0.001494  0.002254  0.009548
    27 H     0.001164 -0.012004 -0.006407
    28 H     0.009520  0.005007 -0.007748
    29 C     0.001560  0.002894  0.008308
    30 H     0.005405 -0.009697 -0.007874
    31 H    -0.001842  0.012363  0.000768
    32 H    -0.003224 -0.013844  0.006162
    33 H    -0.003551  0.006339  0.006542
    34 H    -0.003999  0.000932  0.007219
    35 H     0.000899 -0.000762  0.007422
    36 H    -0.009346  0.006783 -0.006318
    37 H     0.012241  0.002603 -0.005717
 ----------------------------------------
 Mulliken charges used for AMS results%charges...

 dE(predicted):    -0.15189E-01, dE(actual):    -0.17573E-01, Trust radius:    0.400000, all in a.u.
 Residual max backtransformation error   0.2524E-04
 
----------------------------------------------------------------------
Geometry Convergence after Step   2       (Hartree/Angstrom,Angstrom)
----------------------------------------------------------------------
current energy                               -9.25623225 Hartree
energy change                      -0.01757252     0.00037000    F
constrained gradient max            0.10528039     0.00100000    F
constrained gradient rms            0.02049148     0.00066667    F
gradient max                        0.10528039
gradient rms                        0.02049148
cart. step max                      0.21133072     0.00100000    F
cart. step rms                      0.07872858     0.00066667    F
 
 
--------
Geometry
--------
Formula: C10H22NO3P
Atoms
  Index Symbol   x (angstrom)   y (angstrom)   z (angstrom)
      1      O     3.36177268    -0.49888656     0.10155994       adf.R=1.517
      2      P     2.13747420    -0.59882159    -0.99576559       adf.R=1.850
      3      O     1.41480229     0.88615409    -0.88127819       adf.R=1.517
      4      O     1.08621292    -1.32570595     0.04087885       adf.R=1.517
      5      C     0.38823693     0.91243510     0.13016600       adf.R=1.700
      6      C    -0.11474354    -0.54123550     0.18170502       adf.R=1.700
      7      C     1.02930876     1.36611022     1.43816101       adf.R=1.700
      8      C    -0.67514864     1.91356177    -0.28090810       adf.R=1.700
      9      C    -1.04401027    -0.88512593    -0.97871839       adf.R=1.700
     10      C    -0.78461662    -0.91733850     1.48769158       adf.R=1.700
     11      H     0.27333021     1.57289409     2.19122796       adf.R=1.350
     12      H     1.71613478     0.61975679     1.82731954       adf.R=1.350
     13      H     1.58665194     2.27911973     1.25005598       adf.R=1.350
     14      H    -1.02368573     1.73365247    -1.29379921       adf.R=1.350
     15      H    -1.52264376     1.86705420     0.39740584       adf.R=1.350
     16      H    -0.26040200     2.91751827    -0.24395149       adf.R=1.350
     17      H    -2.02196027    -0.43226175    -0.84701628       adf.R=1.350
     18      H    -0.63911969    -0.55343044    -1.93399215       adf.R=1.350
     19      H    -1.16675870    -1.96370819    -1.01553178       adf.R=1.350
     20      H    -1.61716527    -0.25006725     1.69113091       adf.R=1.350
     21      H    -1.16537814    -1.93312962     1.42242632       adf.R=1.350
     22      H    -0.08561530    -0.87384255     2.31760341       adf.R=1.350
     23      C     4.58270424     0.05953206    -0.39342825       adf.R=1.700
     24      C     5.61133414    -0.02413809     0.71808748       adf.R=1.700
     25      N     6.90437964     0.45953057     0.27364872       adf.R=1.608
     26      C     7.05468309     1.87621067     0.53329731       adf.R=1.700
     27      H     7.94906237    -1.32354544     0.57174666       adf.R=1.350
     28      H     7.97673396     2.23788663     0.08458512       adf.R=1.350
     29      C     7.98648568    -0.28356182     0.88678623       adf.R=1.700
     30      H     4.94548741    -0.49534782    -1.26017374       adf.R=1.350
     31      H     4.42674539     1.09921396    -0.68940584       adf.R=1.350
     32      H     5.69430074    -1.06427324     1.02614751       adf.R=1.350
     33      H     5.24990816     0.53948613     1.58729841       adf.R=1.350
     34      H     7.95264042    -0.25162549     1.98520717       adf.R=1.350
     35      H     7.07937444     2.10113255     1.60966148       adf.R=1.350
     36      H     6.23154715     2.42904692     0.08804354       adf.R=1.350
     37      H     8.93852140     0.12969291     0.56330938       adf.R=1.350
 
Total System Charge             0.00000
Bonding info available!
 
 *** GOStep3 ***

 SOLVATION
-------------------------------------------

  The Delley construction of COSMO surface surface is calculated

       Division Level for Surface Triangles (NDIV)                  3
       Final Division Level for Triangles (NFDIV)                   1
       Radius of the Solvent (RSOL)                           3.17000 angstr
  Dielectric Constant (EPSL)                                  4.80000

       COSMO equation is solved iteratively-               conjugate-gradient

       Maximun of Iterations for Charges (NCIX)                  1000
       Criterion for Charge convergence (CCNV)                1.0E-08

  COSMO charges included variationally in SCF

       COSMO included at every SCF cycle

  Geometry-dependent empirical factor                         0.00000

  C-Matrix calculated in cspmtx

  In cspmtx, C-Matrix calculated using fitted potential

-------------------------------------------



 -------------------------------------------
  COSMO surface
  Area             =          959.163
  Volume           =         2027.697
  Number of Points =         2298
 -------------------------------------------



 ======================
 RI Hartree-Fock Scheme
 ======================
  
 Fit Set Quality     : GOOD
 Integration Quality : GOOD
 Threshold Quality   : GOOD
 Response Quality    : DEFAULT
 Is Range Separated  :  F
 
 RIHartreeFock Dependency: number of modified vectors:          37
 cosmo_calcen: 0.5 (esolb+esolc) (Hartrees) =   -0.010251

 Solvation energy (screening term,uncorrected) =     -6.432714 kcal/mol

 Solvation energy (dispersion and cavitation terms) =      1.438250 kcal/mol
 Solvation Energy Contributions (Hartrees)
          esola   esolb+esolc
     0.01025118   -0.02050236
 esol last cycle   -0.01025118
  
 Hartree-Fock exchange energy:   -113.779178518291     
 cosmo_calcen: 0.5 (esolb+esolc) (Hartrees) =   -0.010251

 Solvation energy (screening term,uncorrected) =     -6.432714 kcal/mol

 Solvation energy (dispersion and cavitation terms) =      1.438250 kcal/mol
 Solvation Energy Contributions (Hartrees)
          esola   esolb+esolc
     0.01025118   -0.02050236
 esol last cycle   -0.01025118
  pauli hf:                              1.395513647180231         37.9739           875.70          3663.92
  elstat hf:                            -3.771825616432753       -102.6366         -2366.86         -9902.93

 Energy gradients wrt nuclear displacements
 ==========================================

     Atom      Cartesian (a.u./angstrom)
                 X         Y         Z
 ----------------------------------------
     1 O     0.004083 -0.002744  0.017183
     2 P    -0.003045 -0.014952 -0.028897
     3 O    -0.001051  0.022774  0.013707
     4 O    -0.005169 -0.003300  0.014828
     5 C    -0.000525 -0.017166 -0.016418
     6 C     0.015949  0.007251  0.001839
     7 C     0.002284  0.005841  0.002076
     8 C    -0.008233  0.003504  0.007397
     9 C    -0.005789 -0.002291 -0.000928
    10 C    -0.010458  0.002665  0.001212
    11 H     0.003585 -0.001316 -0.003081
    12 H    -0.003011  0.002011 -0.000357
    13 H    -0.002022 -0.004850  0.000474
    14 H     0.002097  0.001691  0.003098
    15 H     0.003911  0.000016 -0.003765
    16 H    -0.001099 -0.004600 -0.001476
    17 H     0.004811 -0.002256 -0.001066
    18 H    -0.001495 -0.000553  0.002384
    19 H     0.001062  0.004933  0.000045
    20 H     0.004696 -0.003046 -0.000726
    21 H     0.002746  0.003890  0.000472
    22 H    -0.002078 -0.001800 -0.003324
    23 C    -0.003439  0.002616 -0.009730
    24 C     0.004761 -0.001180  0.006561
    25 N    -0.002864  0.000477 -0.004575
    26 C     0.000877  0.001534  0.003617
    27 H     0.000741  0.004822 -0.000002
    28 H    -0.004358 -0.001963  0.001087
    29 C     0.001817 -0.000790  0.002702
    30 H     0.001312  0.002280  0.003034
    31 H     0.001160 -0.001822  0.001431
    32 H    -0.000837  0.005002  0.000570
    33 H     0.001409  0.000150 -0.004614
    34 H    -0.001004 -0.000976 -0.003615
    35 H     0.000269 -0.001118 -0.003289
    36 H     0.003638 -0.002910  0.001313
    37 H    -0.004730 -0.001826  0.000832
 ----------------------------------------
 Mulliken charges used for AMS results%charges...

 dE(predicted):    -0.17440E-01, dE(actual):    -0.16389E-01, Trust radius:    0.800000, all in a.u.
 
----------------------------------------------------------------------
Geometry Convergence after Step   3       (Hartree/Angstrom,Angstrom)
----------------------------------------------------------------------
current energy                               -9.27262112 Hartree
energy change                      -0.01638887     0.00037000    F
constrained gradient max            0.02891205     0.00100000    F
constrained gradient rms            0.00620223     0.00066667    F
gradient max                        0.02891205
gradient rms                        0.00620223
cart. step max                      0.21161829     0.00100000    F
cart. step rms                      0.05968153     0.00066667    F
 
 
--------
Geometry
--------
Formula: C10H22NO3P
Atoms
  Index Symbol   x (angstrom)   y (angstrom)   z (angstrom)
      1      O     3.35913353    -0.38050554     0.05074018       adf.R=1.517
      2      P     2.14131011    -0.47656879    -1.03305736       adf.R=1.850
      3      O     1.33234291     0.94386600    -0.91937284       adf.R=1.517
      4      O     1.09781717    -1.27600590    -0.06449363       adf.R=1.517
      5      C     0.33788196     0.93825022     0.13293894       adf.R=1.700
      6      C    -0.12510756    -0.53405939     0.15722322       adf.R=1.700
      7      C     0.99979821     1.38352126     1.43132776       adf.R=1.700
      8      C    -0.75206832     1.91469287    -0.25728318       adf.R=1.700
      9      C    -1.09058855    -0.87080930    -0.97230873       adf.R=1.700
     10      C    -0.70007778    -0.97794275     1.48461721       adf.R=1.700
     11      H     0.25761025     1.54687364     2.21000163       adf.R=1.350
     12      H     1.72595942     0.65459910     1.78131413       adf.R=1.350
     13      H     1.51717092     2.32232259     1.24863251       adf.R=1.350
     14      H    -1.11764747     1.72712930    -1.26336533       adf.R=1.350
     15      H    -1.58554726     1.84453376     0.43854142       adf.R=1.350
     16      H    -0.36231846     2.92972249    -0.22001507       adf.R=1.350
     17      H    -2.07498709    -0.44914823    -0.78524083       adf.R=1.350
     18      H    -0.73474358    -0.50106111    -1.93324322       adf.R=1.350
     19      H    -1.18613768    -1.95217211    -1.03467660       adf.R=1.350
     20      H    -1.55030943    -0.35404652     1.75139099       adf.R=1.350
     21      H    -1.04277518    -2.00754720     1.40959226       adf.R=1.350
     22      H     0.04025072    -0.92074075     2.27787845       adf.R=1.350
     23      C     4.62225968     0.09887386    -0.42236137       adf.R=1.700
     24      C     5.61844307    -0.02888010     0.71308176       adf.R=1.700
     25      N     6.94209616     0.40895233     0.31004981       adf.R=1.608
     26      C     7.10949750     1.83928444     0.46570709       adf.R=1.700
     27      H     7.92169369    -1.37662130     0.78336495       adf.R=1.350
     28      H     8.06274967     2.15068343     0.04239324       adf.R=1.350
     29      C     7.98888530    -0.31310999     1.00452437       adf.R=1.700
     30      H     4.96338628    -0.48736918    -1.27738424       adf.R=1.350
     31      H     4.52680200     1.14028177    -0.73675783       adf.R=1.350
     32      H     5.65605154    -1.07382875     1.01684135       adf.R=1.350
     33      H     5.25207474     0.54155678     1.57722376       adf.R=1.350
     34      H     7.94073222    -0.18351147     2.09641764       adf.R=1.350
     35      H     7.08248937     2.14899797     1.52189317       adf.R=1.350
     36      H     6.32139877     2.37199298    -0.06254324       adf.R=1.350
     37      H     8.96105820     0.04173697     0.66759000       adf.R=1.350
 
Total System Charge             0.00000
Bonding info available!
 
 *** GOStep4 ***

 SOLVATION
-------------------------------------------

  The Delley construction of COSMO surface surface is calculated

       Division Level for Surface Triangles (NDIV)                  3
       Final Division Level for Triangles (NFDIV)                   1
       Radius of the Solvent (RSOL)                           3.17000 angstr
  Dielectric Constant (EPSL)                                  4.80000

       COSMO equation is solved iteratively-               conjugate-gradient

       Maximun of Iterations for Charges (NCIX)                  1000
       Criterion for Charge convergence (CCNV)                1.0E-08

  COSMO charges included variationally in SCF

       COSMO included at every SCF cycle

  Geometry-dependent empirical factor                         0.00000

  C-Matrix calculated in cspmtx

  In cspmtx, C-Matrix calculated using fitted potential

-------------------------------------------



 -------------------------------------------
  COSMO surface
  Area             =          964.498
  Volume           =         2033.435
  Number of Points =         2308
 -------------------------------------------



 ======================
 RI Hartree-Fock Scheme
 ======================
  
 Fit Set Quality     : GOOD
 Integration Quality : GOOD
 Threshold Quality   : GOOD
 Response Quality    : DEFAULT
 Is Range Separated  :  F
 
 RIHartreeFock Dependency: number of modified vectors:          36
 cosmo_calcen: 0.5 (esolb+esolc) (Hartrees) =   -0.010330

 Solvation energy (screening term,uncorrected) =     -6.482466 kcal/mol

 Solvation energy (dispersion and cavitation terms) =      1.446249 kcal/mol
 Solvation Energy Contributions (Hartrees)
          esola   esolb+esolc
     0.01033047   -0.02066093
 esol last cycle   -0.01033047
  
 Hartree-Fock exchange energy:   -113.782166847622     
 cosmo_calcen: 0.5 (esolb+esolc) (Hartrees) =   -0.010330

 Solvation energy (screening term,uncorrected) =     -6.482470 kcal/mol

 Solvation energy (dispersion and cavitation terms) =      1.446249 kcal/mol
 Solvation Energy Contributions (Hartrees)
          esola   esolb+esolc
     0.01033047   -0.02066094
 esol last cycle   -0.01033047
  pauli hf:                              0.805897347594509         21.9296           505.71          2115.88
  elstat hf:                            -3.770978671910605       -102.6136         -2366.33         -9900.70

 Energy gradients wrt nuclear displacements
 ==========================================

     Atom      Cartesian (a.u./angstrom)
                 X         Y         Z
 ----------------------------------------
     1 O     0.000605 -0.005048  0.001250
     2 P    -0.002235 -0.001819  0.001465
     3 O    -0.003422  0.005036  0.002181
     4 O    -0.000003  0.001391  0.003478
     5 C    -0.000459 -0.009211 -0.004976
     6 C     0.004178  0.006130 -0.000408
     7 C     0.001723  0.003157  0.003826
     8 C    -0.004279  0.001013  0.001959
     9 C    -0.004035 -0.000696 -0.001907
    10 C    -0.003715  0.000553  0.001449
    11 H     0.002521 -0.000406 -0.002026
    12 H    -0.002188  0.001257 -0.000627
    13 H    -0.001496 -0.003602 -0.000092
    14 H     0.000963  0.000965  0.001937
    15 H     0.003313 -0.000322 -0.002733
    16 H    -0.000742 -0.003289 -0.000666
    17 H     0.003438 -0.001302 -0.001013
    18 H    -0.001423 -0.000360  0.001461
    19 H     0.000943  0.003502  0.000230
    20 H     0.003924 -0.001903 -0.001248
    21 H     0.001495  0.003045  0.000067
    22 H    -0.001567 -0.000930 -0.001867
    23 C     0.000976  0.001473 -0.004842
    24 C     0.000465 -0.002903  0.003255
    25 N    -0.001244  0.002497  0.001230
    26 C     0.001786  0.002667  0.000632
    27 H     0.000825  0.002946  0.000270
    28 H    -0.002992 -0.000679  0.000909
    29 C     0.003265 -0.002499  0.000063
    30 H     0.000802  0.002035  0.002244
    31 H    -0.000014 -0.001597  0.000818
    32 H    -0.001383  0.003780  0.000894
    33 H     0.001522 -0.000333 -0.004243
    34 H    -0.000430 -0.000707 -0.002841
    35 H     0.000182 -0.000877 -0.002530
    36 H     0.001852 -0.001877  0.001280
    37 H    -0.003148 -0.001087  0.001120
 ----------------------------------------
 Mulliken charges used for AMS results%charges...

 dE(predicted):    -0.22845E-02, dE(actual):    -0.24482E-02, Trust radius:    0.800000, all in a.u.
 
----------------------------------------------------------------------
Geometry Convergence after Step   4       (Hartree/Angstrom,Angstrom)
----------------------------------------------------------------------
current energy                               -9.27506935 Hartree
energy change                      -0.00244823     0.00037000    F
constrained gradient max            0.00921173     0.00100000    F
constrained gradient rms            0.00246659     0.00066667    F
gradient max                        0.00921173
gradient rms                        0.00246659
cart. step max                      0.21201154     0.00100000    F
cart. step rms                      0.06014258     0.00066667    F
 
 
--------
Geometry
--------
Formula: C10H22NO3P
Atoms
  Index Symbol   x (angstrom)   y (angstrom)   z (angstrom)
      1      O     3.33557595    -0.29065063    -0.02687625       adf.R=1.517
      2      P     2.13917431    -0.39680118    -1.12688899       adf.R=1.850
      3      O     1.28228831     0.98485341    -0.98376496       adf.R=1.517
      4      O     1.11622091    -1.24864944    -0.18650117       adf.R=1.517
      5      C     0.33473659     0.95512363     0.11656630       adf.R=1.700
      6      C    -0.10414732    -0.53199309     0.13272444       adf.R=1.700
      7      C     1.04245698     1.38818082     1.39309362       adf.R=1.700
      8      C    -0.77809381     1.92599889    -0.21747668       adf.R=1.700
      9      C    -1.12750845    -0.86419802    -0.94373915       adf.R=1.700
     10      C    -0.58304012    -1.01938966     1.48330849       adf.R=1.700
     11      H     0.32866472     1.51201601     2.20762495       adf.R=1.350
     12      H     1.80605316     0.67332575     1.69304041       adf.R=1.350
     13      H     1.52401564     2.34897026     1.21248958       adf.R=1.350
     14      H    -1.18564686     1.74253915    -1.20947088       adf.R=1.350
     15      H    -1.58297891     1.84248378     0.51400234       adf.R=1.350
     16      H    -0.39674635     2.94655164    -0.18378571       adf.R=1.350
     17      H    -2.10646634    -0.45701118    -0.69280587       adf.R=1.350
     18      H    -0.82861773    -0.47560740    -1.91766029       adf.R=1.350
     19      H    -1.21540546    -1.94773758    -1.01740595       adf.R=1.350
     20      H    -1.43833605    -0.42887716     1.81421269       adf.R=1.350
     21      H    -0.89929862    -2.05960187     1.40876119       adf.R=1.350
     22      H     0.20207116    -0.94886175     2.23318352       adf.R=1.350
     23      C     4.62876077     0.12826977    -0.47034333       adf.R=1.700
     24      C     5.58708904    -0.04398751     0.69072915       adf.R=1.700
     25      N     6.93290563     0.36815691     0.33864879       adf.R=1.608
     26      C     7.09991412     1.80434866     0.42610539       adf.R=1.700
     27      H     7.84907369    -1.39330189     0.99537650       adf.R=1.350
     28      H     8.08579187     2.08687912     0.05548758       adf.R=1.350
     29      C     7.93271525    -0.31512201     1.13315660       adf.R=1.700
     30      H     4.95809017    -0.47657055    -1.31891112       adf.R=1.350
     31      H     4.58696237     1.17260417    -0.78979650       adf.R=1.350
     32      H     5.59697017    -1.09796780     0.97206903       adf.R=1.350
     33      H     5.20487298     0.51503487     1.55881586       adf.R=1.350
     34      H     7.84388672    -0.09644496     2.21014146       adf.R=1.350
     35      H     7.00178841     2.17361984     1.46056452       adf.R=1.350
     36      H     6.35494991     2.31355135    -0.18506618       adf.R=1.350
     37      H     8.92784221    -0.00579093     0.81157300       adf.R=1.350
 
Total System Charge             0.00000
Bonding info available!
 
 *** GOStep5 ***

 SOLVATION
-------------------------------------------

  The Delley construction of COSMO surface surface is calculated

       Division Level for Surface Triangles (NDIV)                  3
       Final Division Level for Triangles (NFDIV)                   1
       Radius of the Solvent (RSOL)                           3.17000 angstr
  Dielectric Constant (EPSL)                                  4.80000

       COSMO equation is solved iteratively-               conjugate-gradient

       Maximun of Iterations for Charges (NCIX)                  1000
       Criterion for Charge convergence (CCNV)                1.0E-08

  COSMO charges included variationally in SCF

       COSMO included at every SCF cycle

  Geometry-dependent empirical factor                         0.00000

  C-Matrix calculated in cspmtx

  In cspmtx, C-Matrix calculated using fitted potential

-------------------------------------------



 -------------------------------------------
  COSMO surface
  Area             =          962.129
  Volume           =         2031.982
  Number of Points =         2297
 -------------------------------------------



 ======================
 RI Hartree-Fock Scheme
 ======================
  
 Fit Set Quality     : GOOD
 Integration Quality : GOOD
 Threshold Quality   : GOOD
 Response Quality    : DEFAULT
 Is Range Separated  :  F
 
 RIHartreeFock Dependency: number of modified vectors:          36
 cosmo_calcen: 0.5 (esolb+esolc) (Hartrees) =   -0.010289

 Solvation energy (screening term,uncorrected) =     -6.456736 kcal/mol

 Solvation energy (dispersion and cavitation terms) =      1.442696 kcal/mol
 Solvation Energy Contributions (Hartrees)
          esola   esolb+esolc
     0.01028946   -0.02057892
 esol last cycle   -0.01028946
  
 Hartree-Fock exchange energy:   -113.768676519368     
 cosmo_calcen: 0.5 (esolb+esolc) (Hartrees) =   -0.010289

 Solvation energy (screening term,uncorrected) =     -6.456738 kcal/mol

 Solvation energy (dispersion and cavitation terms) =      1.442696 kcal/mol
 Solvation Energy Contributions (Hartrees)
          esola   esolb+esolc
     0.01028947   -0.02057893
 esol last cycle   -0.01028947
  pauli hf:                              0.954508790395529         25.9735           598.96          2506.06
  elstat hf:                            -3.764875320639629       -102.4475         -2362.50         -9884.68

 Energy gradients wrt nuclear displacements
 ==========================================

     Atom      Cartesian (a.u./angstrom)
                 X         Y         Z
 ----------------------------------------
     1 O    -0.004754 -0.003829 -0.000301
     2 P     0.000774  0.001009  0.001801
     3 O    -0.001936 -0.003280 -0.000754
     4 O     0.004910  0.003531  0.000077
     5 C    -0.001291 -0.002412  0.000183
     6 C    -0.000409  0.004000  0.000472
     7 C     0.000333  0.000841  0.001733
     8 C    -0.000797  0.000782  0.000383
     9 C    -0.001164 -0.000575 -0.001350
    10 C    -0.000709 -0.000274  0.000155
    11 H     0.000839 -0.000006 -0.000244
    12 H    -0.000134 -0.000397 -0.000307
    13 H    -0.000392 -0.001032 -0.000393
    14 H     0.000383  0.000147  0.000476
    15 H     0.000815 -0.000113 -0.000695
    16 H    -0.000246 -0.000588  0.000031
    17 H     0.000969 -0.000340 -0.000130
    18 H    -0.000576  0.000024  0.000297
    19 H     0.000477  0.000752  0.000079
    20 H     0.001096 -0.000341 -0.000355
    21 H     0.000052  0.000789 -0.000043
    22 H    -0.000186 -0.000065 -0.000463
    23 C     0.002522  0.000718 -0.002249
    24 C    -0.001044 -0.001281  0.001431
    25 N    -0.000001  0.002064  0.001250
    26 C     0.000828  0.000164  0.000513
    27 H     0.000231  0.000560  0.000047
    28 H    -0.000703 -0.000053  0.000077
    29 C     0.000891 -0.001552 -0.000480
    30 H     0.000240  0.000629  0.000698
    31 H    -0.000251 -0.000178  0.000197
    32 H    -0.000715  0.001299  0.001170
    33 H     0.000910 -0.000053 -0.002081
    34 H     0.000273 -0.000333 -0.000863
    35 H     0.000106 -0.000035 -0.000870
    36 H    -0.000457 -0.000593  0.000217
    37 H    -0.000884  0.000019  0.000292
 ----------------------------------------
 Mulliken charges used for AMS results%charges...

 dE(predicted):    -0.82930E-03, dE(actual):    -0.71684E-03, Trust radius:    0.800000, all in a.u.
 
----------------------------------------------------------------------
Geometry Convergence after Step   5       (Hartree/Angstrom,Angstrom)
----------------------------------------------------------------------
current energy                               -9.27578619 Hartree
energy change                      -0.00071684     0.00037000    F
constrained gradient max            0.00491126     0.00100000    F
constrained gradient rms            0.00126238     0.00066667    F
gradient max                        0.00491126
gradient rms                        0.00126238
cart. step max                      0.09364727     0.00100000    F
cart. step rms                      0.03675584     0.00066667    F
 
 
--------
Geometry
--------
Formula: C10H22NO3P
Atoms
  Index Symbol   x (angstrom)   y (angstrom)   z (angstrom)
      1      O     3.34488702    -0.21078204    -0.03848507       adf.R=1.517
      2      P     2.14631979    -0.33253136    -1.13602201       adf.R=1.850
      3      O     1.26423619     1.03027211    -0.97886941       adf.R=1.517
      4      O     1.13015291    -1.22227475    -0.22004037       adf.R=1.517
      5      C     0.30913369     0.97376639     0.11645031       adf.R=1.700
      6      C    -0.09499155    -0.52969531     0.13274567       adf.R=1.700
      7      C     0.98671218     1.43131177     1.39970077       adf.R=1.700
      8      C    -0.82496290     1.91421889    -0.23306129       adf.R=1.700
      9      C    -1.13141704    -0.87743628    -0.92452245       adf.R=1.700
     10      C    -0.53512298    -1.03591245     1.49066508       adf.R=1.700
     11      H     0.25559005     1.52411187     2.20505294       adf.R=1.350
     12      H     1.77633386     0.74858299     1.70946609       adf.R=1.350
     13      H     1.43036837     2.41420236     1.22950111       adf.R=1.350
     14      H    -1.22237384     1.71163879    -1.22674226       adf.R=1.350
     15      H    -1.63425408     1.81760704     0.49508439       adf.R=1.350
     16      H    -0.46929361     2.94575621    -0.20403594       adf.R=1.350
     17      H    -2.11283428    -0.48061562    -0.65849993       adf.R=1.350
     18      H    -0.85005381    -0.48783577    -1.90423751       adf.R=1.350
     19      H    -1.20935563    -1.96368275    -0.99469529       adf.R=1.350
     20      H    -1.40758324    -0.47631919     1.83749131       adf.R=1.350
     21      H    -0.81755617    -2.08767980     1.41894977       adf.R=1.350
     22      H     0.25891982    -0.93853507     2.22969788       adf.R=1.350
     23      C     4.64487856     0.17588760    -0.48347294       adf.R=1.700
     24      C     5.60756143    -0.06883915     0.66046118       adf.R=1.700
     25      N     6.96153664     0.33434255     0.32989604       adf.R=1.608
     26      C     7.13733340     1.77058579     0.40990394       adf.R=1.700
     27      H     7.83049600    -1.41960649     1.06616281       adf.R=1.350
     28      H     8.14381118     2.03875370     0.08199782       adf.R=1.350
     29      C     7.93196858    -0.33763855     1.16871951       adf.R=1.700
     30      H     4.94079711    -0.41471566    -1.35585278       adf.R=1.350
     31      H     4.63582570     1.23080018    -0.77164816       adf.R=1.350
     32      H     5.60541294    -1.13885795     0.88196379       adf.R=1.350
     33      H     5.23457600     0.44593226     1.56263376       adf.R=1.350
     34      H     7.82316366    -0.07975668     2.23676903       adf.R=1.350
     35      H     6.99809636     2.15029933     1.43737651       adf.R=1.350
     36      H     6.42706346     2.28521838    -0.23867566       adf.R=1.350
     37      H     8.94120925    -0.05662995     0.85935370       adf.R=1.350
 
Total System Charge             0.00000
Bonding info available!
 
 *** GOStep6 ***

 SOLVATION
-------------------------------------------

  The Delley construction of COSMO surface surface is calculated

       Division Level for Surface Triangles (NDIV)                  3
       Final Division Level for Triangles (NFDIV)                   1
       Radius of the Solvent (RSOL)                           3.17000 angstr
  Dielectric Constant (EPSL)                                  4.80000

       COSMO equation is solved iteratively-               conjugate-gradient

       Maximun of Iterations for Charges (NCIX)                  1000
       Criterion for Charge convergence (CCNV)                1.0E-08

  COSMO charges included variationally in SCF

       COSMO included at every SCF cycle

  Geometry-dependent empirical factor                         0.00000

  C-Matrix calculated in cspmtx

  In cspmtx, C-Matrix calculated using fitted potential

-------------------------------------------



 -------------------------------------------
  COSMO surface
  Area             =          966.055
  Volume           =         2037.298
  Number of Points =         2305
 -------------------------------------------



 ======================
 RI Hartree-Fock Scheme
 ======================
  
 Fit Set Quality     : GOOD
 Integration Quality : GOOD
 Threshold Quality   : GOOD
 Response Quality    : DEFAULT
 Is Range Separated  :  F
 
 RIHartreeFock Dependency: number of modified vectors:          36
 cosmo_calcen: 0.5 (esolb+esolc) (Hartrees) =   -0.010340

 Solvation energy (screening term,uncorrected) =     -6.488602 kcal/mol

 Solvation energy (dispersion and cavitation terms) =      1.448584 kcal/mol
 Solvation Energy Contributions (Hartrees)
          esola   esolb+esolc
     0.01034025   -0.02068049
 esol last cycle   -0.01034025
  
 Hartree-Fock exchange energy:   -113.751227091162     
 cosmo_calcen: 0.5 (esolb+esolc) (Hartrees) =   -0.010340

 Solvation energy (screening term,uncorrected) =     -6.488604 kcal/mol

 Solvation energy (dispersion and cavitation terms) =      1.448584 kcal/mol
 Solvation Energy Contributions (Hartrees)
          esola   esolb+esolc
     0.01034025   -0.02068050
 esol last cycle   -0.01034025
  pauli hf:                              1.000157448693972         27.2157           627.61          2625.91
  elstat hf:                            -3.757015974829855       -102.2336         -2357.56         -9864.04

 Energy gradients wrt nuclear displacements
 ==========================================

     Atom      Cartesian (a.u./angstrom)
                 X         Y         Z
 ----------------------------------------
     1 O     0.000697 -0.002363 -0.002364
     2 P     0.000275  0.002450  0.003027
     3 O    -0.000416 -0.001729 -0.003945
     4 O     0.000775 -0.000709 -0.001177
     5 C    -0.000821  0.000111  0.001961
     6 C    -0.001315  0.001454  0.000851
     7 C    -0.000802 -0.000995  0.000961
     8 C     0.001820 -0.000363 -0.000669
     9 C     0.001297  0.000428 -0.000569
    10 C     0.000944 -0.000517 -0.000862
    11 H    -0.000988  0.000408  0.000747
    12 H     0.000366 -0.000399  0.000119
    13 H     0.000508  0.001208 -0.000287
    14 H    -0.000340 -0.000568 -0.000982
    15 H    -0.000989 -0.000163  0.000982
    16 H     0.000164  0.001297  0.000355
    17 H    -0.001220  0.000475  0.000732
    18 H     0.000191  0.000480 -0.000542
    19 H    -0.000024 -0.001266 -0.000036
    20 H    -0.001144  0.000747  0.000555
    21 H    -0.000750 -0.001082  0.000094
    22 H     0.000880  0.000390  0.000611
    23 C     0.001140  0.000091  0.000683
    24 C    -0.000908  0.000796 -0.000697
    25 N     0.001005  0.000443  0.000372
    26 C     0.000370 -0.001897  0.000561
    27 H    -0.000327 -0.001085 -0.000135
    28 H     0.001114  0.000461 -0.000433
    29 C    -0.001530  0.000604 -0.000714
    30 H     0.000006 -0.000701 -0.000254
    31 H     0.000118  0.000921 -0.000388
    32 H    -0.000064 -0.000835  0.000705
    33 H    -0.000135  0.000193  0.000262
    34 H     0.000474  0.000191  0.000846
    35 H    -0.000063  0.000494  0.000604
    36 H    -0.001445  0.000508 -0.000608
    37 H     0.001132  0.000522 -0.000367
 ----------------------------------------
 Mulliken charges used for AMS results%charges...

 dE(predicted):    -0.31357E-03, dE(actual):    -0.31180E-03, Trust radius:    0.800000, all in a.u.
 
----------------------------------------------------------------------
Geometry Convergence after Step   6       (Hartree/Angstrom,Angstrom)
----------------------------------------------------------------------
current energy                               -9.27609799 Hartree
energy change                      -0.00031180     0.00037000    T
constrained gradient max            0.00394642     0.00100000    F
constrained gradient rms            0.00099798     0.00066667    F
gradient max                        0.00394642
gradient rms                        0.00099798
cart. step max                      0.08609452     0.00100000    F
cart. step rms                      0.02638677     0.00066667    F
 
 
--------
Geometry
--------
Formula: C10H22NO3P
Atoms
  Index Symbol   x (angstrom)   y (angstrom)   z (angstrom)
      1      O     3.33845069    -0.15946145    -0.03626142       adf.R=1.517
      2      P     2.14971360    -0.31479070    -1.14096522       adf.R=1.850
      3      O     1.25211737     1.03880501    -0.99540650       adf.R=1.517
      4      O     1.14264221    -1.21290343    -0.22191559       adf.R=1.517
      5      C     0.29990548     0.97933439     0.10119152       adf.R=1.700
      6      C    -0.08580848    -0.53096746     0.13659823       adf.R=1.700
      7      C     0.98167469     1.45913596     1.37302834       adf.R=1.700
      8      C    -0.84868270     1.90124721    -0.25105216       adf.R=1.700
      9      C    -1.13036194    -0.90375020    -0.90335107       adf.R=1.700
     10      C    -0.50443710    -1.02670804     1.50512233       adf.R=1.700
     11      H     0.25710764     1.54208095     2.18499009       adf.R=1.350
     12      H     1.78814265     0.79524352     1.67971452       adf.R=1.350
     13      H     1.40344766     2.44961595     1.19293268       adf.R=1.350
     14      H    -1.25242755     1.68187061    -1.23822638       adf.R=1.350
     15      H    -1.65069233     1.80600755     0.48498437       adf.R=1.350
     16      H    -0.50400801     2.93649374    -0.23895765       adf.R=1.350
     17      H    -2.11176714    -0.50790416    -0.63694973       adf.R=1.350
     18      H    -0.85951007    -0.53162312    -1.89258685       adf.R=1.350
     19      H    -1.20304671    -1.99122601    -0.95304964       adf.R=1.350
     20      H    -1.38512294    -0.48052509     1.85188424       adf.R=1.350
     21      H    -0.76609906    -2.08446853     1.44852009       adf.R=1.350
     22      H     0.29279250    -0.90508987     2.23660858       adf.R=1.350
     23      C     4.63730693     0.22833347    -0.47993027       adf.R=1.700
     24      C     5.60913960    -0.07951698     0.64058295       adf.R=1.700
     25      N     6.96554410     0.32572973     0.32437435       adf.R=1.608
     26      C     7.14921536     1.75916111     0.43847905       adf.R=1.700
     27      H     7.81437199    -1.44517320     1.04412321       adf.R=1.350
     28      H     8.16592719     2.02417432     0.14217256       adf.R=1.350
     29      C     7.92222663    -0.36581544     1.16346742       adf.R=1.700
     30      H     4.91527348    -0.32862114    -1.38001837       adf.R=1.350
     31      H     4.63836219     1.29384083    -0.72442695       adf.R=1.350
     32      H     5.60111060    -1.15975588     0.80470225       adf.R=1.350
     33      H     5.24603575     0.38959793     1.57196592       adf.R=1.350
     34      H     7.80064247    -0.12279362     2.23359628       adf.R=1.350
     35      H     6.98833329     2.11711732     1.47056863       adf.R=1.350
     36      H     6.46194391     2.29527011    -0.21635120       adf.R=1.350
     37      H     8.93712106    -0.08802196     0.87102378       adf.R=1.350
 
Total System Charge             0.00000
Bonding info available!
 
 *** GOStep7 ***

 SOLVATION
-------------------------------------------

  The Delley construction of COSMO surface surface is calculated

       Division Level for Surface Triangles (NDIV)                  3
       Final Division Level for Triangles (NFDIV)                   1
       Radius of the Solvent (RSOL)                           3.17000 angstr
  Dielectric Constant (EPSL)                                  4.80000

       COSMO equation is solved iteratively-               conjugate-gradient

       Maximun of Iterations for Charges (NCIX)                  1000
       Criterion for Charge convergence (CCNV)                1.0E-08

  COSMO charges included variationally in SCF

       COSMO included at every SCF cycle

  Geometry-dependent empirical factor                         0.00000

  C-Matrix calculated in cspmtx

  In cspmtx, C-Matrix calculated using fitted potential

-------------------------------------------



 -------------------------------------------
  COSMO surface
  Area             =          967.321
  Volume           =         2037.170
  Number of Points =         2306
 -------------------------------------------



 ======================
 RI Hartree-Fock Scheme
 ======================
  
 Fit Set Quality     : GOOD
 Integration Quality : GOOD
 Threshold Quality   : GOOD
 Response Quality    : DEFAULT
 Is Range Separated  :  F
 
 RIHartreeFock Dependency: number of modified vectors:          36
 cosmo_calcen: 0.5 (esolb+esolc) (Hartrees) =   -0.010311

 Solvation energy (screening term,uncorrected) =     -6.469976 kcal/mol

 Solvation energy (dispersion and cavitation terms) =      1.450482 kcal/mol
 Solvation Energy Contributions (Hartrees)
          esola   esolb+esolc
     0.01031056   -0.02062112
 esol last cycle   -0.01031056
  
 Hartree-Fock exchange energy:   -113.753976150302     
 cosmo_calcen: 0.5 (esolb+esolc) (Hartrees) =   -0.010311

 Solvation energy (screening term,uncorrected) =     -6.469977 kcal/mol

 Solvation energy (dispersion and cavitation terms) =      1.450482 kcal/mol
 Solvation Energy Contributions (Hartrees)
          esola   esolb+esolc
     0.01031056   -0.02062113
 esol last cycle   -0.01031056
  pauli hf:                              0.986238981427903         26.8369           618.87          2589.37
  elstat hf:                            -3.758914410899600       -102.2853         -2358.75         -9869.03

 Energy gradients wrt nuclear displacements
 ==========================================

     Atom      Cartesian (a.u./angstrom)
                 X         Y         Z
 ----------------------------------------
     1 O     0.000165 -0.001259 -0.001084
     2 P    -0.000028  0.001983  0.001047
     3 O     0.001393 -0.000350 -0.001521
     4 O     0.000245 -0.001578 -0.000088
     5 C    -0.001114  0.001058  0.001779
     6 C    -0.001512 -0.000261 -0.000156
     7 C     0.000470 -0.001062 -0.001016
     8 C     0.001098 -0.000359 -0.000683
     9 C     0.000919  0.000211  0.000023
    10 C     0.001151 -0.000264 -0.000723
    11 H    -0.000827  0.000062  0.000233
    12 H     0.000587 -0.000212  0.000232
    13 H     0.000447  0.001006  0.000048
    14 H    -0.000298 -0.000290 -0.000536
    15 H    -0.000947  0.000040  0.000767
    16 H     0.000142  0.000825  0.000290
    17 H    -0.001070  0.000312  0.000448
    18 H     0.000223  0.000198 -0.000277
    19 H    -0.000132 -0.000877 -0.000004
    20 H    -0.000987  0.000552  0.000461
    21 H    -0.000472 -0.000730  0.000030
    22 H     0.000505  0.000279  0.000492
    23 C    -0.000065  0.000457  0.000799
    24 C    -0.000586  0.001249 -0.000821
    25 N     0.000970 -0.000199  0.000199
    26 C     0.000032 -0.001464 -0.000003
    27 H    -0.000244 -0.000727 -0.000038
    28 H     0.000825  0.000326 -0.000294
    29 C    -0.001623  0.000768 -0.000719
    30 H    -0.000071 -0.000764  0.000048
    31 H     0.000393  0.000470 -0.000564
    32 H     0.000273 -0.000774  0.000060
    33 H    -0.000428 -0.000065  0.000687
    34 H     0.000265  0.000273  0.000761
    35 H    -0.000029  0.000310  0.000646
    36 H    -0.000649  0.000571 -0.000255
    37 H     0.000981  0.000286 -0.000270
 ----------------------------------------
 Mulliken charges used for AMS results%charges...

 dE(predicted):    -0.10943E-03, dE(actual):    -0.14513E-03, Trust radius:    0.800000, all in a.u.
 
----------------------------------------------------------------------
Geometry Convergence after Step   7       (Hartree/Angstrom,Angstrom)
----------------------------------------------------------------------
current energy                               -9.27624312 Hartree
energy change                      -0.00014513     0.00037000    T
constrained gradient max            0.00198653     0.00100000    F
constrained gradient rms            0.00072018     0.00066667    F
gradient max                        0.00198653
gradient rms                        0.00072018
cart. step max                      0.17425795     0.00100000    F
cart. step rms                      0.05563336     0.00066667    F
 
 
--------
Geometry
--------
Formula: C10H22NO3P
Atoms
  Index Symbol   x (angstrom)   y (angstrom)   z (angstrom)
      1      O     3.33825957    -0.06944800     0.00053691       adf.R=1.517
      2      P     2.16561385    -0.28215524    -1.11263251       adf.R=1.850
      3      O     1.23588350     1.05294480    -0.99944376       adf.R=1.517
      4      O     1.17485807    -1.18500970    -0.18113057       adf.R=1.517
      5      C     0.27046548     0.99205352     0.08351053       adf.R=1.700
      6      C    -0.07128073    -0.52887987     0.15706700       adf.R=1.700
      7      C     0.91976675     1.52911180     1.34870420       adf.R=1.700
      8      C    -0.90185503     1.86736172    -0.30718580       adf.R=1.700
      9      C    -1.09990445    -0.95877692    -0.87599248       adf.R=1.700
     10      C    -0.48305213    -0.99981725     1.53632570       adf.R=1.700
     11      H     0.18649526     1.60408368     2.15280102       adf.R=1.350
     12      H     1.74758566     0.90476880     1.67877638       adf.R=1.350
     13      H     1.30509972     2.52947308     1.14772921       adf.R=1.350
     14      H    -1.29012642     1.60646079    -1.28974509       adf.R=1.350
     15      H    -1.70662368     1.77215604     0.42450397       adf.R=1.350
     16      H    -0.58688608     2.91116193    -0.32611467       adf.R=1.350
     17      H    -2.09094856    -0.57521972    -0.63214172       adf.R=1.350
     18      H    -0.82872159    -0.61614833    -1.87538877       adf.R=1.350
     19      H    -1.14970848    -2.04789667    -0.88919319       adf.R=1.350
     20      H    -1.38590476    -0.47819484     1.86036816       adf.R=1.350
     21      H    -0.70362393    -2.06730129     1.50662744       adf.R=1.350
     22      H     0.30199341    -0.82991422     2.27032753       adf.R=1.350
     23      C     4.63184384     0.32781527    -0.44576928       adf.R=1.700
     24      C     5.62706459    -0.09514479     0.61511610       adf.R=1.700
     25      N     6.98366590     0.31128730     0.30432728       adf.R=1.608
     26      C     7.18582253     1.73474688     0.49500134       adf.R=1.700
     27      H     7.81578296    -1.50470076     0.92690653       adf.R=1.350
     28      H     8.21119205     1.99619317     0.23000964       adf.R=1.350
     29      C     7.93513563    -0.43500047     1.10303253       adf.R=1.700
     30      H     4.87333408    -0.15436319    -1.39804210       adf.R=1.350
     31      H     4.64624980     1.40926114    -0.59998626       adf.R=1.350
     32      H     5.60239450    -1.18517327     0.67997815       adf.R=1.350
     33      H     5.29568627     0.29407607     1.59420905       adf.R=1.350
     34      H     7.81408740    -0.24819053     2.18397246       adf.R=1.350
     35      H     7.01358460     2.04034529     1.54152351       adf.R=1.350
     36      H     6.52102700     2.31569506    -0.14282402       adf.R=1.350
     37      H     8.95232845    -0.15371787     0.82541795       adf.R=1.350
 
Total System Charge             0.00000
Bonding info available!
 
 *** GOStep8 ***

 SOLVATION
-------------------------------------------

  The Delley construction of COSMO surface surface is calculated

       Division Level for Surface Triangles (NDIV)                  3
       Final Division Level for Triangles (NFDIV)                   1
       Radius of the Solvent (RSOL)                           3.17000 angstr
  Dielectric Constant (EPSL)                                  4.80000

       COSMO equation is solved iteratively-               conjugate-gradient

       Maximun of Iterations for Charges (NCIX)                  1000
       Criterion for Charge convergence (CCNV)                1.0E-08

  COSMO charges included variationally in SCF

       COSMO included at every SCF cycle

  Geometry-dependent empirical factor                         0.00000

  C-Matrix calculated in cspmtx

  In cspmtx, C-Matrix calculated using fitted potential

-------------------------------------------



 -------------------------------------------
  COSMO surface
  Area             =          967.194
  Volume           =         2035.827
  Number of Points =         2298
 -------------------------------------------



 ======================
 RI Hartree-Fock Scheme
 ======================
  
 Fit Set Quality     : GOOD
 Integration Quality : GOOD
 Threshold Quality   : GOOD
 Response Quality    : DEFAULT
 Is Range Separated  :  F
 
 RIHartreeFock Dependency: number of modified vectors:          36
 cosmo_calcen: 0.5 (esolb+esolc) (Hartrees) =   -0.010252

 Solvation energy (screening term,uncorrected) =     -6.433151 kcal/mol

 Solvation energy (dispersion and cavitation terms) =      1.450292 kcal/mol
 Solvation Energy Contributions (Hartrees)
          esola   esolb+esolc
     0.01025188   -0.02050376
 esol last cycle   -0.01025188
  
 Hartree-Fock exchange energy:   -113.760893877768     
 cosmo_calcen: 0.5 (esolb+esolc) (Hartrees) =   -0.010252

 Solvation energy (screening term,uncorrected) =     -6.433153 kcal/mol

 Solvation energy (dispersion and cavitation terms) =      1.450292 kcal/mol
 Solvation Energy Contributions (Hartrees)
          esola   esolb+esolc
     0.01025188   -0.02050376
 esol last cycle   -0.01025188
  pauli hf:                              0.972072892976225         26.4514           609.99          2552.18
  elstat hf:                            -3.762778235708932       -102.3904         -2361.18         -9879.17

 Energy gradients wrt nuclear displacements
 ==========================================

     Atom      Cartesian (a.u./angstrom)
                 X         Y         Z
 ----------------------------------------
     1 O     0.000349 -0.000654  0.000853
     2 P    -0.000318  0.000625 -0.002092
     3 O     0.002330  0.000417  0.000783
     4 O    -0.000219 -0.001001 -0.000013
     5 C    -0.000499  0.001616  0.001013
     6 C    -0.000933 -0.001561  0.000104
     7 C     0.000338 -0.000384 -0.001351
     8 C     0.000216 -0.000306 -0.000162
     9 C     0.000818  0.000032  0.000465
    10 C     0.000383  0.000284  0.000089
    11 H    -0.000163 -0.000084 -0.000114
    12 H    -0.000093  0.000386  0.000089
    13 H     0.000034  0.000104  0.000273
    14 H    -0.000049  0.000069  0.000177
    15 H    -0.000216  0.000111  0.000050
    16 H    -0.000009 -0.000147  0.000042
    17 H    -0.000073 -0.000002  0.000022
    18 H     0.000097 -0.000175  0.000124
    19 H    -0.000176  0.000051 -0.000003
    20 H    -0.000246 -0.000011  0.000165
    21 H     0.000064  0.000094 -0.000049
    22 H    -0.000224 -0.000050  0.000017
    23 C    -0.001234  0.001086  0.000005
    24 C    -0.000247  0.000880 -0.000010
    25 N     0.000122 -0.000529 -0.000111
    26 C    -0.000702  0.000017 -0.000652
    27 H     0.000128  0.000069  0.000187
    28 H    -0.000008 -0.000014 -0.000059
    29 C    -0.000452  0.000026 -0.000403
    30 H    -0.000131 -0.000548  0.000493
    31 H     0.000542 -0.000109 -0.000713
    32 H     0.000389 -0.000139 -0.000547
    33 H    -0.000422 -0.000270  0.000571
    34 H    -0.000115  0.000214  0.000206
    35 H     0.000045 -0.000114  0.000268
    36 H     0.000391  0.000195  0.000261
    37 H     0.000284 -0.000179  0.000023
 ----------------------------------------
 Mulliken charges used for AMS results%charges...

 dE(predicted):    -0.10983E-03, dE(actual):    -0.14740E-03, Trust radius:    0.800000, all in a.u.
 
----------------------------------------------------------------------
Geometry Convergence after Step   8       (Hartree/Angstrom,Angstrom)
----------------------------------------------------------------------
current energy                               -9.27639052 Hartree
energy change                      -0.00014740     0.00037000    T
constrained gradient max            0.00233332     0.00100000    F
constrained gradient rms            0.00054386     0.00066667    T
gradient max                        0.00233332
gradient rms                        0.00054386
cart. step max                      0.17634905     0.00100000    F
cart. step rms                      0.05577722     0.00066667    F
 
 
--------
Geometry
--------
Formula: C10H22NO3P
Atoms
  Index Symbol   x (angstrom)   y (angstrom)   z (angstrom)
      1      O     3.33716888     0.01734279     0.05161434       adf.R=1.517
      2      P     2.18316290    -0.25830064    -1.06837110       adf.R=1.850
      3      O     1.21562086     1.05409838    -1.00820125       adf.R=1.517
      4      O     1.20214103    -1.15959387    -0.12560290       adf.R=1.517
      5      C     0.23957919     0.99859334     0.06294646       adf.R=1.700
      6      C    -0.06385884    -0.52782423     0.17723314       adf.R=1.700
      7      C     0.86160462     1.58743599     1.31888154       adf.R=1.700
      8      C    -0.95028676     1.83266223    -0.36404444       adf.R=1.700
      9      C    -1.06993880    -1.01463151    -0.85319104       adf.R=1.700
     10      C    -0.48032259    -0.96914010     1.56477702       adf.R=1.700
     11      H     0.12167212     1.66324885     2.11619709       adf.R=1.350
     12      H     1.70356055     0.99489396     1.67085867       adf.R=1.350
     13      H     1.22087855     2.59167972     1.09337044       adf.R=1.350
     14      H    -1.32328277     1.53326431    -1.34117565       adf.R=1.350
     15      H    -1.75824035     1.74024206     0.36348817       adf.R=1.350
     16      H    -0.65987138     2.88219760    -0.41325251       adf.R=1.350
     17      H    -2.07210175    -0.64650668    -0.63518224       adf.R=1.350
     18      H    -0.79381747    -0.69908350    -1.85999616       adf.R=1.350
     19      H    -1.09468838    -2.10406547    -0.83129939       adf.R=1.350
     20      H    -1.40240511    -0.46619301     1.86055581       adf.R=1.350
     21      H    -0.66708598    -2.04310647     1.56447828       adf.R=1.350
     22      H     0.28892200    -0.75400736     2.30315707       adf.R=1.350
     23      C     4.62713219     0.42587280    -0.39384287       adf.R=1.700
     24      C     5.64347695    -0.09732031     0.60078495       adf.R=1.700
     25      N     6.99991935     0.30592429     0.28624448       adf.R=1.608
     26      C     7.23068924     1.71261291     0.55587150       adf.R=1.700
     27      H     7.81428796    -1.55607940     0.78249203       adf.R=1.350
     28      H     8.26099726     1.96627250     0.30496831       adf.R=1.350
     29      C     7.95130387    -0.50171777     1.02411911       adf.R=1.700
     30      H     4.83615103     0.02198586    -1.38946570       adf.R=1.350
     31      H     4.65290618     1.51558807    -0.45938926       adf.R=1.350
     32      H     5.59713641    -1.18808751     0.58149199       adf.R=1.350
     33      H     5.34745627     0.22113312     1.61597798       adf.R=1.350
     34      H     7.84495279    -0.38204462     2.11560191       adf.R=1.350
     35      H     7.06443930     1.96315695     1.61744381       adf.R=1.350
     36      H     6.57922461     2.34071914    -0.04931568       adf.R=1.350
     37      H     8.96810110    -0.21727900     0.75095844       adf.R=1.350
 
Total System Charge             0.00000
Bonding info available!
 
 *** GOStep9 ***

 SOLVATION
-------------------------------------------

  The Delley construction of COSMO surface surface is calculated

       Division Level for Surface Triangles (NDIV)                  3
       Final Division Level for Triangles (NFDIV)                   1
       Radius of the Solvent (RSOL)                           3.17000 angstr
  Dielectric Constant (EPSL)                                  4.80000

       COSMO equation is solved iteratively-               conjugate-gradient

       Maximun of Iterations for Charges (NCIX)                  1000
       Criterion for Charge convergence (CCNV)                1.0E-08

  COSMO charges included variationally in SCF

       COSMO included at every SCF cycle

  Geometry-dependent empirical factor                         0.00000

  C-Matrix calculated in cspmtx

  In cspmtx, C-Matrix calculated using fitted potential

-------------------------------------------



 -------------------------------------------
  COSMO surface
  Area             =          970.610
  Volume           =         2037.268
  Number of Points =         2302
 -------------------------------------------



 ======================
 RI Hartree-Fock Scheme
 ======================
  
 Fit Set Quality     : GOOD
 Integration Quality : GOOD
 Threshold Quality   : GOOD
 Response Quality    : DEFAULT
 Is Range Separated  :  F
 
 RIHartreeFock Dependency: number of modified vectors:          36
 cosmo_calcen: 0.5 (esolb+esolc) (Hartrees) =   -0.010225

 Solvation energy (screening term,uncorrected) =     -6.416495 kcal/mol

 Solvation energy (dispersion and cavitation terms) =      1.455414 kcal/mol
 Solvation Energy Contributions (Hartrees)
          esola   esolb+esolc
     0.01022533   -0.02045067
 esol last cycle   -0.01022533
  
 Hartree-Fock exchange energy:   -113.764493998902     
 cosmo_calcen: 0.5 (esolb+esolc) (Hartrees) =   -0.010225

 Solvation energy (screening term,uncorrected) =     -6.416498 kcal/mol

 Solvation energy (dispersion and cavitation terms) =      1.455414 kcal/mol
 Solvation Energy Contributions (Hartrees)
          esola   esolb+esolc
     0.01022534   -0.02045068
 esol last cycle   -0.01022534
  pauli hf:                              0.974268263562990         26.5112           611.36          2557.94
  elstat hf:                            -3.764823329276417       -102.4461         -2362.46         -9884.54

 Energy gradients wrt nuclear displacements
 ==========================================

     Atom      Cartesian (a.u./angstrom)
                 X         Y         Z
 ----------------------------------------
     1 O     0.001209 -0.000311  0.001458
     2 P    -0.001024  0.000136 -0.001420
     3 O     0.001054  0.001161  0.001701
     4 O    -0.001290 -0.000523  0.000355
     5 C     0.000656  0.001126 -0.000401
     6 C     0.000415 -0.002060 -0.000539
     7 C     0.000248  0.000135 -0.001383
     8 C    -0.000593  0.000091  0.000177
     9 C    -0.000364 -0.000140  0.000950
    10 C    -0.000133  0.000370  0.000353
    11 H     0.000400 -0.000168 -0.000213
    12 H    -0.000246  0.000335 -0.000108
    13 H    -0.000219 -0.000502  0.000274
    14 H     0.000118  0.000371  0.000547
    15 H     0.000380  0.000111 -0.000417
    16 H    -0.000064 -0.000617 -0.000136
    17 H     0.000486 -0.000270 -0.000401
    18 H     0.000013 -0.000340  0.000317
    19 H    -0.000146  0.000581  0.000006
    20 H     0.000447 -0.000331 -0.000190
    21 H     0.000354  0.000497 -0.000042
    22 H    -0.000491 -0.000243 -0.000283
    23 C    -0.001594  0.001023 -0.000171
    24 C     0.000307  0.000078  0.000256
    25 N    -0.000606 -0.000470 -0.000229
    26 C    -0.000390  0.001014 -0.000511
    27 H     0.000211  0.000533  0.000165
    28 H    -0.000486 -0.000191  0.000084
    29 C     0.000604 -0.000070  0.000207
    30 H    -0.000026 -0.000237  0.000538
    31 H     0.000463 -0.000345 -0.000601
    32 H     0.000217  0.000378 -0.000618
    33 H    -0.000149 -0.000243  0.000175
    34 H    -0.000301  0.000081 -0.000227
    35 H     0.000063 -0.000263 -0.000156
    36 H     0.000865 -0.000353  0.000378
    37 H    -0.000389 -0.000342  0.000108
 ----------------------------------------
 Mulliken charges used for AMS results%charges...

 dE(predicted):    -0.72317E-04, dE(actual):    -0.14045E-03, Trust radius:    0.800000, all in a.u.
 
----------------------------------------------------------------------
Geometry Convergence after Step   9       (Hartree/Angstrom,Angstrom)
----------------------------------------------------------------------
current energy                               -9.27653097 Hartree
energy change                      -0.00014045     0.00037000    T
constrained gradient max            0.00205820     0.00100000    F
constrained gradient rms            0.00059088     0.00066667    T
gradient max                        0.00205820
gradient rms                        0.00059088
cart. step max                      0.21162408     0.00100000    F
cart. step rms                      0.07359641     0.00066667    F
 
 
--------
Geometry
--------
Formula: C10H22NO3P
Atoms
  Index Symbol   x (angstrom)   y (angstrom)   z (angstrom)
      1      O     3.33623490     0.13832760     0.12065998       adf.R=1.517
      2      P     2.20991725    -0.21734315    -1.00463835       adf.R=1.850
      3      O     1.19137366     1.05835814    -1.01093115       adf.R=1.517
[...]
      -2.145       0.000       0.000             -6.479       0.000       0.000
       0.000      -2.145       0.000              0.000      -6.479       0.000
       0.000       0.000      -2.145              0.000       0.000      -6.479

 total calculated spin-spin coupling:    
  isotropic    k=      -2.145                              j=      -6.479
      -2.145       0.000       0.000             -6.479       0.000       0.000
       0.000      -2.145       0.000              0.000      -6.479       0.000
       0.000       0.000      -2.145              0.000       0.000      -6.479
 
 ---------------------------------
   Principal Axis Representation  
 ---------------------------------

 ----- k (10^19 kg m-2 s-2 A-2) ----         ------------- j (hz) -------------

 fermi-contact contribution:             
  isotropic    k=      -2.145                              j=      -6.479
      -2.145       0.000       0.000             -6.479       0.000       0.000
       0.000      -2.145       0.000              0.000      -6.479       0.000
       0.000       0.000      -2.145              0.000       0.000      -6.479

 total calculated spin-spin coupling:    
  isotropic    k=      -2.145                              j=      -6.479
      -2.145       0.000       0.000             -6.479       0.000       0.000
       0.000      -2.145       0.000              0.000      -6.479       0.000
       0.000       0.000      -2.145              0.000       0.000      -6.479
 
 Principal Axis System (u,v,w) expressed in Cartesians:
 (taken as eigenvectors of the symmetric part of the coupling tensor,
  sorted in ascending order of eigenvalues = principal values)
        u         v         w
        1.000     0.000     0.000
        0.000     1.000     0.000
        0.000     0.000     1.000



 ========================================
  Nucleus 17 (H) perturbing nucleus 6 (C)
 ========================================
  
 Internal CPL numbering of atoms:  H(17) perturbing  C(6)
 ADF-GUI atoms:  H(13) perturbing  C(6)
  
 ---------------------------------
   Cartesian Axis Representation  
 ---------------------------------

 ----- k (10^19 kg m-2 s-2 A-2) ----         ------------- j (hz) -------------

 fermi-contact contribution:             
  isotropic    k=       2.479                              j=       7.489
       2.479       0.000       0.000              7.489       0.000       0.000
       0.000       2.479       0.000              0.000       7.489       0.000
       0.000       0.000       2.479              0.000       0.000       7.489

 total calculated spin-spin coupling:    
  isotropic    k=       2.479                              j=       7.489
       2.479       0.000       0.000              7.489       0.000       0.000
       0.000       2.479       0.000              0.000       7.489       0.000
       0.000       0.000       2.479              0.000       0.000       7.489
 
 ---------------------------------
   Principal Axis Representation  
 ---------------------------------

 ----- k (10^19 kg m-2 s-2 A-2) ----         ------------- j (hz) -------------

 fermi-contact contribution:             
  isotropic    k=       2.479                              j=       7.489
       2.479       0.000       0.000              7.489       0.000       0.000
       0.000       2.479       0.000              0.000       7.489       0.000
       0.000       0.000       2.479              0.000       0.000       7.489

 total calculated spin-spin coupling:    
  isotropic    k=       2.479                              j=       7.489
       2.479       0.000       0.000              7.489       0.000       0.000
       0.000       2.479       0.000              0.000       7.489       0.000
       0.000       0.000       2.479              0.000       0.000       7.489
 
 Principal Axis System (u,v,w) expressed in Cartesians:
 (taken as eigenvectors of the symmetric part of the coupling tensor,
  sorted in ascending order of eigenvalues = principal values)
        u         v         w
        1.000     0.000     0.000
        0.000     1.000     0.000
        0.000     0.000     1.000



 ========================================
  Nucleus 17 (H) perturbing nucleus 7 (C)
 ========================================
  
 Internal CPL numbering of atoms:  H(17) perturbing  C(7)
 ADF-GUI atoms:  H(13) perturbing  C(7)
  
 ---------------------------------
   Cartesian Axis Representation  
 ---------------------------------

 ----- k (10^19 kg m-2 s-2 A-2) ----         ------------- j (hz) -------------

 fermi-contact contribution:             
  isotropic    k=      49.477                              j=     149.473
      49.477       0.000       0.000            149.473       0.000       0.000
       0.000      49.477       0.000              0.000     149.473       0.000
       0.000       0.000      49.477              0.000       0.000     149.473

 total calculated spin-spin coupling:    
  isotropic    k=      49.477                              j=     149.473
      49.477       0.000       0.000            149.473       0.000       0.000
       0.000      49.477       0.000              0.000     149.473       0.000
       0.000       0.000      49.477              0.000       0.000     149.473
 
 ---------------------------------
   Principal Axis Representation  
 ---------------------------------

 ----- k (10^19 kg m-2 s-2 A-2) ----         ------------- j (hz) -------------

 fermi-contact contribution:             
  isotropic    k=      49.477                              j=     149.473
      49.477       0.000       0.000            149.473       0.000       0.000
       0.000      49.477       0.000              0.000     149.473       0.000
       0.000       0.000      49.477              0.000       0.000     149.473

 total calculated spin-spin coupling:    
  isotropic    k=      49.477                              j=     149.473
      49.477       0.000       0.000            149.473       0.000       0.000
       0.000      49.477       0.000              0.000     149.473       0.000
       0.000       0.000      49.477              0.000       0.000     149.473
 
 Principal Axis System (u,v,w) expressed in Cartesians:
 (taken as eigenvectors of the symmetric part of the coupling tensor,
  sorted in ascending order of eigenvalues = principal values)
        u         v         w
        1.000     0.000     0.000
        0.000     1.000     0.000
        0.000     0.000     1.000



 ========================================
  Nucleus 17 (H) perturbing nucleus 8 (C)
 ========================================
  
 Internal CPL numbering of atoms:  H(17) perturbing  C(8)
 ADF-GUI atoms:  H(13) perturbing  C(8)
  
 ---------------------------------
   Cartesian Axis Representation  
 ---------------------------------

 ----- k (10^19 kg m-2 s-2 A-2) ----         ------------- j (hz) -------------

 fermi-contact contribution:             
  isotropic    k=       0.895                              j=       2.703
       0.895       0.000       0.000              2.703       0.000       0.000
       0.000       0.895       0.000              0.000       2.703       0.000
       0.000       0.000       0.895              0.000       0.000       2.703

 total calculated spin-spin coupling:    
  isotropic    k=       0.895                              j=       2.703
       0.895       0.000       0.000              2.703       0.000       0.000
       0.000       0.895       0.000              0.000       2.703       0.000
       0.000       0.000       0.895              0.000       0.000       2.703
 
 ---------------------------------
   Principal Axis Representation  
 ---------------------------------

 ----- k (10^19 kg m-2 s-2 A-2) ----         ------------- j (hz) -------------

 fermi-contact contribution:             
  isotropic    k=       0.895                              j=       2.703
       0.895       0.000       0.000              2.703       0.000       0.000
       0.000       0.895       0.000              0.000       2.703       0.000
       0.000       0.000       0.895              0.000       0.000       2.703

 total calculated spin-spin coupling:    
  isotropic    k=       0.895                              j=       2.703
       0.895       0.000       0.000              2.703       0.000       0.000
       0.000       0.895       0.000              0.000       2.703       0.000
       0.000       0.000       0.895              0.000       0.000       2.703
 
 Principal Axis System (u,v,w) expressed in Cartesians:
 (taken as eigenvectors of the symmetric part of the coupling tensor,
  sorted in ascending order of eigenvalues = principal values)
        u         v         w
        1.000     0.000     0.000
        0.000     1.000     0.000
        0.000     0.000     1.000



 ========================================
  Nucleus 17 (H) perturbing nucleus 9 (C)
 ========================================
  
 Internal CPL numbering of atoms:  H(17) perturbing  C(9)
 ADF-GUI atoms:  H(13) perturbing  C(9)
  
 ---------------------------------
   Cartesian Axis Representation  
 ---------------------------------

 ----- k (10^19 kg m-2 s-2 A-2) ----         ------------- j (hz) -------------

 fermi-contact contribution:             
  isotropic    k=       0.202                              j=       0.610
       0.202       0.000       0.000              0.610       0.000       0.000
       0.000       0.202       0.000              0.000       0.610       0.000
       0.000       0.000       0.202              0.000       0.000       0.610

 total calculated spin-spin coupling:    
  isotropic    k=       0.202                              j=       0.610
       0.202       0.000       0.000              0.610       0.000       0.000
       0.000       0.202       0.000              0.000       0.610       0.000
       0.000       0.000       0.202              0.000       0.000       0.610
 
 ---------------------------------
   Principal Axis Representation  
 ---------------------------------

 ----- k (10^19 kg m-2 s-2 A-2) ----         ------------- j (hz) -------------

 fermi-contact contribution:             
  isotropic    k=       0.202                              j=       0.610
       0.202       0.000       0.000              0.610       0.000       0.000
       0.000       0.202       0.000              0.000       0.610       0.000
       0.000       0.000       0.202              0.000       0.000       0.610

 total calculated spin-spin coupling:    
  isotropic    k=       0.202                              j=       0.610
       0.202       0.000       0.000              0.610       0.000       0.000
       0.000       0.202       0.000              0.000       0.610       0.000
       0.000       0.000       0.202              0.000       0.000       0.610
 
 Principal Axis System (u,v,w) expressed in Cartesians:
 (taken as eigenvectors of the symmetric part of the coupling tensor,
  sorted in ascending order of eigenvalues = principal values)
        u         v         w
        1.000     0.000     0.000
        0.000     1.000     0.000
        0.000     0.000     1.000



 =========================================
  Nucleus 17 (H) perturbing nucleus 10 (C)
 =========================================
  
 Internal CPL numbering of atoms:  H(17) perturbing  C(10)
 ADF-GUI atoms:  H(13) perturbing  C(10)
  
 ---------------------------------
   Cartesian Axis Representation  
 ---------------------------------

 ----- k (10^19 kg m-2 s-2 A-2) ----         ------------- j (hz) -------------

 fermi-contact contribution:             
  isotropic    k=       0.656                              j=       1.983
       0.656       0.000       0.000              1.983       0.000       0.000
       0.000       0.656       0.000              0.000       1.983       0.000
       0.000       0.000       0.656              0.000       0.000       1.983

 total calculated spin-spin coupling:    
  isotropic    k=       0.656                              j=       1.983
       0.656       0.000       0.000              1.983       0.000       0.000
       0.000       0.656       0.000              0.000       1.983       0.000
       0.000       0.000       0.656              0.000       0.000       1.983
 
 ---------------------------------
   Principal Axis Representation  
 ---------------------------------

 ----- k (10^19 kg m-2 s-2 A-2) ----         ------------- j (hz) -------------

 fermi-contact contribution:             
  isotropic    k=       0.656                              j=       1.983
       0.656       0.000       0.000              1.983       0.000       0.000
       0.000       0.656       0.000              0.000       1.983       0.000
       0.000       0.000       0.656              0.000       0.000       1.983

 total calculated spin-spin coupling:    
  isotropic    k=       0.656                              j=       1.983
       0.656       0.000       0.000              1.983       0.000       0.000
       0.000       0.656       0.000              0.000       1.983       0.000
       0.000       0.000       0.656              0.000       0.000       1.983
 
 Principal Axis System (u,v,w) expressed in Cartesians:
 (taken as eigenvectors of the symmetric part of the coupling tensor,
  sorted in ascending order of eigenvalues = principal values)
        u         v         w
        1.000     0.000     0.000
        0.000     1.000     0.000
        0.000     0.000     1.000



 =========================================
  Nucleus 17 (H) perturbing nucleus 15 (H)
 =========================================
  
 Internal CPL numbering of atoms:  H(17) perturbing  H(15)
 ADF-GUI atoms:  H(13) perturbing  H(11)
  
 ---------------------------------
   Cartesian Axis Representation  
 ---------------------------------

 ----- k (10^19 kg m-2 s-2 A-2) ----         ------------- j (hz) -------------

 fermi-contact contribution:             
  isotropic    k=      -1.298                              j=     -15.586
      -1.298       0.000       0.000            -15.586       0.000       0.000
       0.000      -1.298       0.000              0.000     -15.586       0.000
       0.000       0.000      -1.298              0.000       0.000     -15.586

 total calculated spin-spin coupling:    
  isotropic    k=      -1.298                              j=     -15.586
      -1.298       0.000       0.000            -15.586       0.000       0.000
       0.000      -1.298       0.000              0.000     -15.586       0.000
       0.000       0.000      -1.298              0.000       0.000     -15.586
 
 ---------------------------------
   Principal Axis Representation  
 ---------------------------------

 ----- k (10^19 kg m-2 s-2 A-2) ----         ------------- j (hz) -------------

 fermi-contact contribution:             
  isotropic    k=      -1.298                              j=     -15.586
      -1.298       0.000       0.000            -15.586       0.000       0.000
       0.000      -1.298       0.000              0.000     -15.586       0.000
       0.000       0.000      -1.298              0.000       0.000     -15.586

 total calculated spin-spin coupling:    
  isotropic    k=      -1.298                              j=     -15.586
      -1.298       0.000       0.000            -15.586       0.000       0.000
       0.000      -1.298       0.000              0.000     -15.586       0.000
       0.000       0.000      -1.298              0.000       0.000     -15.586
 
 Principal Axis System (u,v,w) expressed in Cartesians:
 (taken as eigenvectors of the symmetric part of the coupling tensor,
  sorted in ascending order of eigenvalues = principal values)
        u         v         w
        1.000     0.000     0.000
        0.000     1.000     0.000
        0.000     0.000     1.000



 =========================================
  Nucleus 17 (H) perturbing nucleus 16 (H)
 =========================================
  
 Internal CPL numbering of atoms:  H(17) perturbing  H(16)
 ADF-GUI atoms:  H(13) perturbing  H(12)
  
 ---------------------------------
   Cartesian Axis Representation  
 ---------------------------------

 ----- k (10^19 kg m-2 s-2 A-2) ----         ------------- j (hz) -------------

 fermi-contact contribution:             
  isotropic    k=      -1.224                              j=     -14.699
      -1.224       0.000       0.000            -14.699       0.000       0.000
       0.000      -1.224       0.000              0.000     -14.699       0.000
       0.000       0.000      -1.224              0.000       0.000     -14.699

 total calculated spin-spin coupling:    
  isotropic    k=      -1.224                              j=     -14.699
      -1.224       0.000       0.000            -14.699       0.000       0.000
       0.000      -1.224       0.000              0.000     -14.699       0.000
       0.000       0.000      -1.224              0.000       0.000     -14.699
 
 ---------------------------------
   Principal Axis Representation  
 ---------------------------------

 ----- k (10^19 kg m-2 s-2 A-2) ----         ------------- j (hz) -------------

 fermi-contact contribution:             
  isotropic    k=      -1.224                              j=     -14.699
      -1.224       0.000       0.000            -14.699       0.000       0.000
       0.000      -1.224       0.000              0.000     -14.699       0.000
       0.000       0.000      -1.224              0.000       0.000     -14.699

 total calculated spin-spin coupling:    
  isotropic    k=      -1.224                              j=     -14.699
      -1.224       0.000       0.000            -14.699       0.000       0.000
       0.000      -1.224       0.000              0.000     -14.699       0.000
       0.000       0.000      -1.224              0.000       0.000     -14.699
 
 Principal Axis System (u,v,w) expressed in Cartesians:
 (taken as eigenvectors of the symmetric part of the coupling tensor,
  sorted in ascending order of eigenvalues = principal values)
        u         v         w
        1.000     0.000     0.000
        0.000     1.000     0.000
        0.000     0.000     1.000
 *******************************************************************************

                             N M R   E X I T
 NORMAL TERMINATION



 =================
 Timing Statistics
 =================
  
 Total Used :                     CPU=    28240.06      System=      193.12     Elapsed=    30345.91

 Calls  Section                     ( Mean, Percentage )
 ---------------------------------------------------------------------------------------------------
     3  ><      ................      0.00    0.00             0.00    0.00             0.00    0.00
     1  GENPT   ................      1.34    0.00             0.14    0.07             1.66    0.01
  1089  CALFC   ................      9.79   37.75             0.05   28.67            10.51   37.71
    33  FCPT1   ................    532.63   62.24             4.17   71.23           572.78   62.29
    33  FCCPL   ................      0.00    0.00             0.00    0.00             0.00    0.00
     1  JCOUPL  ................      0.01    0.00             0.00    0.00             0.06    0.00
     1  EXIT PROCEDURE .........      0.00    0.00             0.06    0.03             0.06    0.00


 Currently Open Files (EXIT00)
 ====================

 Unit    Access Format  Status   Type       Ident (file)
 -------------------------------------------------------
   3      SEQ    FORM   TRANSP  NORMAL      LOGFILE
                                          ( /home/milias/Work/projects/open-collection/theoretical_chemistry/projects/nmr_diplomovky/derivaty_markerov/derivative_2/ams/der2.geopt_freq_nmr_pbe0_tz2p_good_cosmo-chcl3.logfile )
