

 Parallel Execution: Process Information
 ==============================================================================
 Rank   Node Name                              NodeID   MyNodeRank  NodeMaster
    0   adf1                                      0          0          0
    1   adf1                                      0          1         -1
    2   adf1                                      0          2         -1
    3   adf1                                      0          3         -1
    4   adf1                                      0          4         -1
    5   adf1                                      0          5         -1
    6   adf1                                      0          6         -1
    7   adf1                                      0          7         -1
    8   adf1                                      0          8         -1
    9   adf1                                      0          9         -1
   10   adf1                                      0         10         -1
   11   adf1                                      0         11         -1
 ==============================================================================


May use up to 22932MB of RAM as shared memory on node 0

 *******************************************************************************
 *                                                                             *
 *  --------------------------------                                           *
 *   Amsterdam Modeling Suite (AMS)              2020.202                      *
 *  --------------------------------                                           *
 *                                               r90167 2020-12-05             *
 *                                                                             *
 *                                                                             *
 *                              =================                              *
 *                              |               |                              *
 *                              |     A M S     |                              *
 *                              |               |                              *
 *                              =================                              *
 *                                                                             *
 *                                                                             *
 *   Online information and documentation:  https://www.scm.com/support/       *
 *   E-mail:  support@scm.com   info@scm.com                                   *
 *                                                                             *
 *   Scientific publications using AMS results must be properly referenced     *
 *   See the User Manuals (or the web site) for recommended citations          *
 *   The terms and conditions of the End User License Agreement apply to       *
 *   the use of AMS, https://www.scm.com/license-terms/                        *
 *                                                                             *
 **********************  x86_64_linux_intel / intelmpi  ************************
 
 Licensed to: Dr. Miroslav Ilias / Matej Bel University, Department Chemistry, Fac. Natural Sciences / Banska Bystrica / SLOVAKIA
 SCM User ID: u17848
  
 AMS 2020.202  RunTime: Feb06-2021 11:08:39  Nodes: 1  Procs: 12

 AMS jobname: ams
 AMS jobid  : 1047289055

 Start   directory: /home/milias/Work/projects/open-collection/theoretical_chemistry/software_runs/ams/tddft_sozora_adf/tmp.milias.3484.0.noindex/
 Results directory: /home/milias/Work/projects/open-collection/theoretical_chemistry/software_runs/ams/tddft_sozora_adf/molecule1_sozora_tddft.results/
 Scratch directory: /tmp/amstmp_ams_kid0.1047289055/


 Communication costs MPI_COMM_WORLD:      2.840 usec per message,   0.0270 usec per 8-byte item
 Communication costs for intra-node:      2.799 usec per message,   0.0269 usec per 8-byte item

 RNG seed: -1111784568 -1138631397 -160234400 530822282 1138100256 -1765342952 -1953194666 1825139326



                       *********************************************************************
                       *  ADF 2020.202  RunTime: Feb06-2021 11:08:39  Nodes: 1  Procs: 12  *
                       *********************************************************************
  
       ****************************
       * SINGLE POINT CALCULATION *
       ****************************
 
--------
Geometry
--------
Atoms
  Index Symbol   x (angstrom)   y (angstrom)   z (angstrom)
      1      C    -0.41114900     2.94503800    -1.54108800       adf.R=1.70
      2      C     0.41114600    -2.94504400    -1.54109200       adf.R=1.700
      3      C     0.89422900     2.80297800    -1.05133500       adf.R=1.700
      4      C    -0.89423100    -2.80298400    -1.05133600       adf.R=1.700
      5      C     1.71109500     3.90463100    -0.82310700       adf.R=1.700
      6      C    -1.71109900    -3.90463500    -0.82311000       adf.R=1.700
      7      C     1.19375000     5.15857600    -1.14401900       adf.R=1.700
      8      C    -1.19375700    -5.15858000    -1.14402700       adf.R=1.700
      9      C    -0.09640800     5.30956100    -1.66567700       adf.R=1.700
     10      C     0.09639800    -5.30956600    -1.66568700       adf.R=1.700
     11      C    -0.91217900     4.19883100    -1.86517100       adf.R=1.700
     12      C     0.91217200    -4.19883800    -1.86518000       adf.R=1.700
     13      C     1.02588400    -1.61116800    -1.62364400       adf.R=1.700
     14      C    -1.02588500     1.61116000    -1.62364200       adf.R=1.700
     15      C     0.01438600     0.70175300    -1.10792800       adf.R=1.700
     16      C    -0.01438400    -0.70176000    -1.10792800       adf.R=1.700
     17      H     2.70738800     3.80642000    -0.40800000       adf.R=1.350
     18      H    -2.70739200    -3.80642300    -0.40800200       adf.R=1.350
     19      H     1.81000200     6.03692800    -0.98031000       adf.R=1.350
     20      H    -1.81001100    -6.03693100    -0.98031900       adf.R=1.350
     21      H    -0.46566800     6.30226800    -1.90180300       adf.R=1.350
     22      H     0.46565600    -6.30227400    -1.90181900       adf.R=1.350
     23      H     1.92285600    -4.29651000    -2.24834400       adf.R=1.350
     24      H    -1.92286400     4.29650200    -2.24833200       adf.R=1.350
     25      N     1.14083400     1.43938900    -0.80620300       adf.R=1.608
     26      N    -1.14083400    -1.43939400    -0.80620300       adf.R=1.608
     27      O     2.12869800    -1.29796800    -2.06676500       adf.R=1.517
     28      O    -2.12870000     1.29795900    -2.06675900       adf.R=1.517
     29      C    -2.27851400    -0.95567700    -0.12102700       adf.R=1.700
     30      C    -2.12510600    -0.12825800     0.99236700       adf.R=1.700
     31      C    -3.55365100    -1.29937900    -0.57457600       adf.R=1.700
     32      C    -3.24871300     0.35750400     1.64702500       adf.R=1.700
     33      C    -4.67006300    -0.82263300     0.09153400       adf.R=1.700
     34      C    -4.51947800     0.00971700     1.20103300       adf.R=1.700
     35      H    -1.13543100     0.12606400     1.35187000       adf.R=1.350
     36      H    -3.66397600    -1.89466300    -1.47380700       adf.R=1.350
     37      H    -3.13056100     1.00468000     2.50886300       adf.R=1.350
     38      H    -5.66073000    -1.07390100    -0.27053000       adf.R=1.350
     39      C    -5.73464100     0.48326100     1.94874600       adf.R=1.700
     40      F    -6.11114200    -0.40480700     2.88941800       adf.R=1.425
     41      F    -5.51488800     1.64888100     2.57886200       adf.R=1.425
     42      F    -6.78845400     0.65605700     1.13403000       adf.R=1.425
     43      C     2.27851600     0.95567300    -0.12102800       adf.R=1.700
     44      C     2.12510900     0.12825500     0.99236600       adf.R=1.700
     45      C     3.55365200     1.29938000    -0.57457600       adf.R=1.700
     46      C     3.24871700    -0.35750300     1.64702600       adf.R=1.700
     47      C     4.67006500     0.82263800     0.09153600       adf.R=1.700
     48      C     4.51948100    -0.00971200     1.20103500       adf.R=1.700
     49      H     1.13543500    -0.12606900     1.35187000       adf.R=1.350
     50      H     3.66397600     1.89466400    -1.47380700       adf.R=1.350
     51      H     3.13056700    -1.00467900     2.50886400       adf.R=1.350
     52      H     5.66073100     1.07390900    -0.27052700       adf.R=1.350
     53      C     5.73464500    -0.48325100     1.94875000       adf.R=1.700
     54      F     6.11114000     0.40481900     2.88942400       adf.R=1.425
     55      F     5.51489600    -1.64887200     2.57886600       adf.R=1.425
     56      F     6.78846100    -0.65604200     1.13403600       adf.R=1.425
 
Total System Charge             0.00000
Bonding info available!
 
 
----------------
ADF Engine Input
----------------
 
 Basis
 Type TZ2P
 Core None
 End
 AllPoints Yes
 XC
 GGA BP86
 End
 Solvation
 Surf Delley
 Solv name=Acetone cav0=0.0 cav1=0.0067639
 Charged method=CONJ
 C-Mat POT
 SCF VAR ALL
 CSMRSP
 End
 SOPERT
 END
 EXCITATIONS
 Davidson
 End
 NTO
 END
 

 Title: *** (NO TITLE) ***

 *** adf ***



 ===========================
 A T T A C H E D   F I L E S
 ===========================
  



 ===============================
 M O D E L   P A R A M E T E R S
 ===============================
  
 DENSITY FUNCTIONAL POTENTIAL (scf)
    LDA:                               VWN                                      
    Gradient Corrections:              Becke88 Perdew86                        == Not Default ==

 SPIN  (restricted / unrestr.)
    Molecule:                          Restricted                               
    Fragments:                         Restricted                               

 OTHER ASPECTS
    Relativistic Corrections:          scalar (ZORA,MAPA)                       

    Nuclear Charge Density Model:      Point Charge Nuclei                      
    Core Treatment:                    Frozen Orbital(s)                        

    Hyperfine or Zeeman Interaction:   ---                                      

 SOLVATION
-------------------------------------------

  The Delley construction of COSMO surface surface is calculated

       Division Level for Surface Triangles (NDIV)                  3
       Final Division Level for Triangles (NFDIV)                   1
       Radius of the Solvent (RSOL)                           3.08000 angstr
  Dielectric Constant (EPSL)                                 20.70000

       COSMO equation is solved iteratively-               conjugate-gradient

       Maximun of Iterations for Charges (NCIX)                  1000
       Criterion for Charge convergence (CCNV)                1.0E-08

  COSMO charges included variationally in SCF

       COSMO included at every SCF cycle

  Geometry-dependent empirical factor                         0.00000

  C-Matrix calculated in cspmtx

  In cspmtx, C-Matrix calculated using fitted potential

-------------------------------------------



 Fragment File(s)
 ----------------
 C-1:
         file : /home/milias/Work/projects/open-collection/theoretical_chemistry/software_runs/ams/tddft_sozora_adf/molecule1_sozora_tddft.results/t21.74591C2D.C
         jobid: 0
         title: Carbon (TZ2P)
 C-2:
         file : /home/milias/Work/projects/open-collection/theoretical_chemistry/software_runs/ams/tddft_sozora_adf/molecule1_sozora_tddft.results/t21.74591C2D.C
         jobid: 0
         title: Carbon (TZ2P)
 H:
         file : /home/milias/Work/projects/open-collection/theoretical_chemistry/software_runs/ams/tddft_sozora_adf/molecule1_sozora_tddft.results/t21.58EFF4C5.H
         jobid: 0
         title: Hydrogen (TZ2P)
 N:
         file : /home/milias/Work/projects/open-collection/theoretical_chemistry/software_runs/ams/tddft_sozora_adf/molecule1_sozora_tddft.results/t21.782C24A3.N
         jobid: 0
         title: Nitrogen (TZ2P)
 O:
         file : /home/milias/Work/projects/open-collection/theoretical_chemistry/software_runs/ams/tddft_sozora_adf/molecule1_sozora_tddft.results/t21.1E69A552.O
         jobid: 0
         title: Oxygen (TZ2P)
 F:
         file : /home/milias/Work/projects/open-collection/theoretical_chemistry/software_runs/ams/tddft_sozora_adf/molecule1_sozora_tddft.results/t21.3C0BFD98.F
         jobid: 0
         title: Fluorine (TZ2P)



 ===============
 G E O M E T R Y  ***  3D  Molecule  ***
 ===============
  

 ATOMS
 =====                            X Y Z                    CHARGE                     RADIUS
                                (Angstrom)             Nucl     +Core       At.Mass (Angstrom)
                       --------------------------    ----------------       ------- ----------
    1  C              -0.4111    2.9450   -1.5411      6.00      6.00       12.0000    1.7000
    2  C               0.4111   -2.9450   -1.5411      6.00      6.00       12.0000    1.7000
    3  C               0.8942    2.8030   -1.0513      6.00      6.00       12.0000    1.7000
    4  C              -0.8942   -2.8030   -1.0513      6.00      6.00       12.0000    1.7000
    5  C               1.7111    3.9046   -0.8231      6.00      6.00       12.0000    1.7000
    6  C              -1.7111   -3.9046   -0.8231      6.00      6.00       12.0000    1.7000
    7  C               1.1938    5.1586   -1.1440      6.00      6.00       12.0000    1.7000
    8  C              -1.1938   -5.1586   -1.1440      6.00      6.00       12.0000    1.7000
    9  C              -0.0964    5.3096   -1.6657      6.00      6.00       12.0000    1.7000
   10  C               0.0964   -5.3096   -1.6657      6.00      6.00       12.0000    1.7000
   11  C              -0.9122    4.1988   -1.8652      6.00      6.00       12.0000    1.7000
   12  C               0.9122   -4.1988   -1.8652      6.00      6.00       12.0000    1.7000
   13  C               1.0259   -1.6112   -1.6236      6.00      6.00       12.0000    1.7000
   14  C              -1.0259    1.6112   -1.6236      6.00      6.00       12.0000    1.7000
   15  C               0.0144    0.7018   -1.1079      6.00      6.00       12.0000    1.7000
   16  C              -0.0144   -0.7018   -1.1079      6.00      6.00       12.0000    1.7000
   17  H               2.7074    3.8064   -0.4080      1.00      1.00        1.0078    1.3500
   18  H              -2.7074   -3.8064   -0.4080      1.00      1.00        1.0078    1.3500
   19  H               1.8100    6.0369   -0.9803      1.00      1.00        1.0078    1.3500
   20  H              -1.8100   -6.0369   -0.9803      1.00      1.00        1.0078    1.3500
   21  H              -0.4657    6.3023   -1.9018      1.00      1.00        1.0078    1.3500
   22  H               0.4657   -6.3023   -1.9018      1.00      1.00        1.0078    1.3500
   23  H               1.9229   -4.2965   -2.2483      1.00      1.00        1.0078    1.3500
   24  H              -1.9229    4.2965   -2.2483      1.00      1.00        1.0078    1.3500
   25  N               1.1408    1.4394   -0.8062      7.00      7.00       14.0031    1.6080
   26  N              -1.1408   -1.4394   -0.8062      7.00      7.00       14.0031    1.6080
   27  O               2.1287   -1.2980   -2.0668      8.00      8.00       15.9949    1.5170
   28  O              -2.1287    1.2980   -2.0668      8.00      8.00       15.9949    1.5170
   29  C              -2.2785   -0.9557   -0.1210      6.00      6.00       12.0000    1.7000
   30  C              -2.1251   -0.1283    0.9924      6.00      6.00       12.0000    1.7000
   31  C              -3.5537   -1.2994   -0.5746      6.00      6.00       12.0000    1.7000
   32  C              -3.2487    0.3575    1.6470      6.00      6.00       12.0000    1.7000
   33  C              -4.6701   -0.8226    0.0915      6.00      6.00       12.0000    1.7000
   34  C              -4.5195    0.0097    1.2010      6.00      6.00       12.0000    1.7000
   35  H              -1.1354    0.1261    1.3519      1.00      1.00        1.0078    1.3500
   36  H              -3.6640   -1.8947   -1.4738      1.00      1.00        1.0078    1.3500
   37  H              -3.1306    1.0047    2.5089      1.00      1.00        1.0078    1.3500
   38  H              -5.6607   -1.0739   -0.2705      1.00      1.00        1.0078    1.3500
   39  C              -5.7346    0.4833    1.9487      6.00      6.00       12.0000    1.7000
   40  F              -6.1111   -0.4048    2.8894      9.00      9.00       18.9984    1.4250
   41  F              -5.5149    1.6489    2.5789      9.00      9.00       18.9984    1.4250
   42  F              -6.7885    0.6561    1.1340      9.00      9.00       18.9984    1.4250
   43  C               2.2785    0.9557   -0.1210      6.00      6.00       12.0000    1.7000
   44  C               2.1251    0.1283    0.9924      6.00      6.00       12.0000    1.7000
   45  C               3.5537    1.2994   -0.5746      6.00      6.00       12.0000    1.7000
   46  C               3.2487   -0.3575    1.6470      6.00      6.00       12.0000    1.7000
   47  C               4.6701    0.8226    0.0915      6.00      6.00       12.0000    1.7000
   48  C               4.5195   -0.0097    1.2010      6.00      6.00       12.0000    1.7000
   49  H               1.1354   -0.1261    1.3519      1.00      1.00        1.0078    1.3500
   50  H               3.6640    1.8947   -1.4738      1.00      1.00        1.0078    1.3500
   51  H               3.1306   -1.0047    2.5089      1.00      1.00        1.0078    1.3500
   52  H               5.6607    1.0739   -0.2705      1.00      1.00        1.0078    1.3500
   53  C               5.7346   -0.4833    1.9487      6.00      6.00       12.0000    1.7000
   54  F               6.1111    0.4048    2.8894      9.00      9.00       18.9984    1.4250
   55  F               5.5149   -1.6489    2.5789      9.00      9.00       18.9984    1.4250
   56  F               6.7885   -0.6560    1.1340      9.00      9.00       18.9984    1.4250


 FRAGMENTS
 =========                                     Atoms in this Fragment     Cart. coord.s (Angstrom)
                                               -------------------------------------------------------
    1  C-1                                               1  C           -0.4111    2.9450   -1.5411
    2  C-2                                               2  C            0.4111   -2.9450   -1.5411
    3  C-2                                               3  C            0.8942    2.8030   -1.0513
    4  C-2                                               4  C           -0.8942   -2.8030   -1.0513
    5  C-2                                               5  C            1.7111    3.9046   -0.8231
    6  C-2                                               6  C           -1.7111   -3.9046   -0.8231
    7  C-2                                               7  C            1.1938    5.1586   -1.1440
    8  C-2                                               8  C           -1.1938   -5.1586   -1.1440
    9  C-2                                               9  C           -0.0964    5.3096   -1.6657
   10  C-2                                              10  C            0.0964   -5.3096   -1.6657
   11  C-2                                              11  C           -0.9122    4.1988   -1.8652
   12  C-2                                              12  C            0.9122   -4.1988   -1.8652
   13  C-2                                              13  C            1.0259   -1.6112   -1.6236
   14  C-2                                              14  C           -1.0259    1.6112   -1.6236
   15  C-2                                              15  C            0.0144    0.7018   -1.1079
   16  C-2                                              16  C           -0.0144   -0.7018   -1.1079
   17  C-2                                              29  C           -2.2785   -0.9557   -0.1210
   18  C-2                                              30  C           -2.1251   -0.1283    0.9924
   19  C-2                                              31  C           -3.5537   -1.2994   -0.5746
   20  C-2                                              32  C           -3.2487    0.3575    1.6470
   21  C-2                                              33  C           -4.6701   -0.8226    0.0915
   22  C-2                                              34  C           -4.5195    0.0097    1.2010
   23  C-2                                              39  C           -5.7346    0.4833    1.9487
   24  C-2                                              43  C            2.2785    0.9557   -0.1210
   25  C-2                                              44  C            2.1251    0.1283    0.9924
   26  C-2                                              45  C            3.5537    1.2994   -0.5746
   27  C-2                                              46  C            3.2487   -0.3575    1.6470
   28  C-2                                              47  C            4.6701    0.8226    0.0915
   29  C-2                                              48  C            4.5195   -0.0097    1.2010
   30  C-2                                              53  C            5.7346   -0.4833    1.9487
   31  H                                                17  H            2.7074    3.8064   -0.4080
   32  H                                                18  H           -2.7074   -3.8064   -0.4080
   33  H                                                19  H            1.8100    6.0369   -0.9803
   34  H                                                20  H           -1.8100   -6.0369   -0.9803
   35  H                                                21  H           -0.4657    6.3023   -1.9018
   36  H                                                22  H            0.4657   -6.3023   -1.9018
   37  H                                                23  H            1.9229   -4.2965   -2.2483
   38  H                                                24  H           -1.9229    4.2965   -2.2483
   39  H                                                35  H           -1.1354    0.1261    1.3519
   40  H                                                36  H           -3.6640   -1.8947   -1.4738
   41  H                                                37  H           -3.1306    1.0047    2.5089
   42  H                                                38  H           -5.6607   -1.0739   -0.2705
   43  H                                                49  H            1.1354   -0.1261    1.3519
   44  H                                                50  H            3.6640    1.8947   -1.4738
   45  H                                                51  H            3.1306   -1.0047    2.5089
   46  H                                                52  H            5.6607    1.0739   -0.2705
   47  N                                                25  N            1.1408    1.4394   -0.8062
   48  N                                                26  N           -1.1408   -1.4394   -0.8062
   49  O                                                27  O            2.1287   -1.2980   -2.0668
   50  O                                                28  O           -2.1287    1.2980   -2.0668
   51  F                                                40  F           -6.1111   -0.4048    2.8894
   52  F                                                41  F           -5.5149    1.6489    2.5789
   53  F                                                42  F           -6.7885    0.6561    1.1340
   54  F                                                54  F            6.1111    0.4048    2.8894
   55  F                                                55  F            5.5149   -1.6489    2.5789
   56  F                                                56  F            6.7885   -0.6560    1.1340



 =====================================
 S Y M M E T R Y ,   E L E C T R O N S
 =====================================
  
 Symmetry: NOSYM

 Irreducible Representations, including subspecies
 -------------------------------------------------
 A


 Configuration of Valence Electrons
 ==================================
 ( determined in the SCF procedure )

 Total:   280

 Net Charge: 0 (Nuclei minus Electrons)

 Aufbau principle for MO occupations will be applied through SCF cycle no.     150
 Thereafter, the program will assign electrons to MOs that are spatially
 similar to the occupied MOs in a "reference" cycle ("KeepOrbitals").
 The reference cycle is always the PREVIOUS cycle: it will evolve with
 the SCF procedure.
1
 ***************************************************************************************************



                                      ****************************************
                                      *  B U I L D : (Fragments, Functions)  *
                                      ****************************************
  

 Total nr. of (C)SFOs (summation over all irreps) :  1216

 Specify PRINT SFO in the input file to get a full list

 Nr. of SFOs for ir.rep.           A :  1216



 ================================
 (Slater-type)  F U N C T I O N S  ***  (Basis and Fit)  ***
 ================================
  

 Atom Type    1  (C)
 ==============

 Valence Basis Sets:  10
 -----------------------
   1 S    7.680000
   1 S    5.000000
   2 S    1.280000
   2 S    2.100000
   2 S    4.600000
   2 P    0.820000
   2 P    1.480000
   2 P    2.940000
   3 D    2.200000
   4 F    3.300000

 Atom Type    2  (C)
 ==============

 Valence Basis Sets:  10
 -----------------------
   1 S    7.680000
   1 S    5.000000
   2 S    1.280000
   2 S    2.100000
   2 S    4.600000
   2 P    0.820000
   2 P    1.480000
   2 P    2.940000
   3 D    2.200000
   4 F    3.300000

 Atom Type    3  (H)
 ==============

 Valence Basis Sets:   5
 -----------------------
   1 S    0.690000
   1 S    0.920000
   1 S    1.580000
   2 P    1.250000
   3 D    2.500000

 Atom Type    4  (N)
 ==============

 Valence Basis Sets:  10
 -----------------------
   1 S    8.740000
   1 S    5.900000
   2 S    5.150000
   2 S    2.500000
   2 S    1.500000
   2 P    3.680000
   2 P    1.880000
   2 P    1.000000
   3 D    2.200000
   4 F    3.300000

 Atom Type    5  (O)
 ==============

 Valence Basis Sets:  10
 -----------------------
   1 S    9.800000
   1 S    6.800000
   2 S    7.580000
   2 S    2.880000
   2 S    1.720000
   2 P    4.080000
   2 P    2.080000
   2 P    1.120000
   3 D    2.000000
   4 F    3.000000

 Atom Type    6  (F)
 ==============

 Valence Basis Sets:  10
 -----------------------
   1 S   10.880000
   1 S    7.700000
   2 S    3.240000
   2 S    1.940000
   2 S    0.740000
   2 P    4.540000
   2 P    2.300000
   2 P    1.240000
   3 D    2.000000
   4 F    3.000000


 BAS: List of all Elementary Cartesian Basis Functions
 =====================================================

 The numbering in the list below (to the right of the function characteristics) is referred
 to in print-outs of MO eigenvectors and Mulliken populations in the BAS representation
 (as contrasted to the SFO representation).

 Notes:
 1. The functions are characterized by a polynomial prefactor (powers of x,y,z and r) and
    an exponential decay factor alpha.
 2. Since the basis sets are specific for an atom TYPE, the individual functions occur on
    all atoms of that type.
 3. The word 'Core' in the left margin signals that it is a Core Function (CF) : not a
    degree of freedom in the valence set, but only used to ensure orthogonalization of
    the other valence basis functions on the frozen Core Orbitals.


 (power of) X  Y  Z  R     Alpha  on Atom
            ==========     =====     ==========

 C                                    1
                                  ---------------------------------------------------------------------------
            0  0  0  0     7.680      1
            0  0  0  0     5.000      2
            0  0  0  1     1.280      3
            0  0  0  1     2.100      4
            0  0  0  1     4.600      5
            1  0  0  0     0.820      6
            0  1  0  0     0.820      7
            0  0  1  0     0.820      8
            1  0  0  0     1.480      9
            0  1  0  0     1.480     10
            0  0  1  0     1.480     11
            1  0  0  0     2.940     12
            0  1  0  0     2.940     13
            0  0  1  0     2.940     14
            2  0  0  0     2.200     15
            1  1  0  0     2.200     16
            1  0  1  0     2.200     17
            0  2  0  0     2.200     18
            0  1  1  0     2.200     19
            0  0  2  0     2.200     20
            3  0  0  0     3.300     21
            2  1  0  0     3.300     22
            2  0  1  0     3.300     23
            1  2  0  0     3.300     24
            1  1  1  0     3.300     25
            1  0  2  0     3.300     26
            0  3  0  0     3.300     27
            0  2  1  0     3.300     28
            0  1  2  0     3.300     29
            0  0  3  0     3.300     30

 C                                    2    3    4    5    6    7    8    9   10   11   12   13   14   15   16
                                     17   18   19   20   21   22   23   24   25   26   27   28   29   30
                                  ---------------------------------------------------------------------------
            0  0  0  0     7.680     31   61   91  121  151  181  211  241  271  301  331  361  391  421  451
                                    481  511  541  571  601  631  661  691  721  751  781  811  841  871
            0  0  0  0     5.000     32   62   92  122  152  182  212  242  272  302  332  362  392  422  452
                                    482  512  542  572  602  632  662  692  722  752  782  812  842  872
            0  0  0  1     1.280     33   63   93  123  153  183  213  243  273  303  333  363  393  423  453
                                    483  513  543  573  603  633  663  693  723  753  783  813  843  873
            0  0  0  1     2.100     34   64   94  124  154  184  214  244  274  304  334  364  394  424  454
                                    484  514  544  574  604  634  664  694  724  754  784  814  844  874
            0  0  0  1     4.600     35   65   95  125  155  185  215  245  275  305  335  365  395  425  455
                                    485  515  545  575  605  635  665  695  725  755  785  815  845  875
            1  0  0  0     0.820     36   66   96  126  156  186  216  246  276  306  336  366  396  426  456
                                    486  516  546  576  606  636  666  696  726  756  786  816  846  876
            0  1  0  0     0.820     37   67   97  127  157  187  217  247  277  307  337  367  397  427  457
                                    487  517  547  577  607  637  667  697  727  757  787  817  847  877
            0  0  1  0     0.820     38   68   98  128  158  188  218  248  278  308  338  368  398  428  458
                                    488  518  548  578  608  638  668  698  728  758  788  818  848  878
            1  0  0  0     1.480     39   69   99  129  159  189  219  249  279  309  339  369  399  429  459
                                    489  519  549  579  609  639  669  699  729  759  789  819  849  879
            0  1  0  0     1.480     40   70  100  130  160  190  220  250  280  310  340  370  400  430  460
                                    490  520  550  580  610  640  670  700  730  760  790  820  850  880
            0  0  1  0     1.480     41   71  101  131  161  191  221  251  281  311  341  371  401  431  461
                                    491  521  551  581  611  641  671  701  731  761  791  821  851  881
            1  0  0  0     2.940     42   72  102  132  162  192  222  252  282  312  342  372  402  432  462
                                    492  522  552  582  612  642  672  702  732  762  792  822  852  882
            0  1  0  0     2.940     43   73  103  133  163  193  223  253  283  313  343  373  403  433  463
                                    493  523  553  583  613  643  673  703  733  763  793  823  853  883
            0  0  1  0     2.940     44   74  104  134  164  194  224  254  284  314  344  374  404  434  464
                                    494  524  554  584  614  644  674  704  734  764  794  824  854  884
            2  0  0  0     2.200     45   75  105  135  165  195  225  255  285  315  345  375  405  435  465
                                    495  525  555  585  615  645  675  705  735  765  795  825  855  885
            1  1  0  0     2.200     46   76  106  136  166  196  226  256  286  316  346  376  406  436  466
                                    496  526  556  586  616  646  676  706  736  766  796  826  856  886
            1  0  1  0     2.200     47   77  107  137  167  197  227  257  287  317  347  377  407  437  467
                                    497  527  557  587  617  647  677  707  737  767  797  827  857  887
            0  2  0  0     2.200     48   78  108  138  168  198  228  258  288  318  348  378  408  438  468
                                    498  528  558  588  618  648  678  708  738  768  798  828  858  888
            0  1  1  0     2.200     49   79  109  139  169  199  229  259  289  319  349  379  409  439  469
                                    499  529  559  589  619  649  679  709  739  769  799  829  859  889
            0  0  2  0     2.200     50   80  110  140  170  200  230  260  290  320  350  380  410  440  470
                                    500  530  560  590  620  650  680  710  740  770  800  830  860  890
            3  0  0  0     3.300     51   81  111  141  171  201  231  261  291  321  351  381  411  441  471
                                    501  531  561  591  621  651  681  711  741  771  801  831  861  891
            2  1  0  0     3.300     52   82  112  142  172  202  232  262  292  322  352  382  412  442  472
                                    502  532  562  592  622  652  682  712  742  772  802  832  862  892
            2  0  1  0     3.300     53   83  113  143  173  203  233  263  293  323  353  383  413  443  473
                                    503  533  563  593  623  653  683  713  743  773  803  833  863  893
            1  2  0  0     3.300     54   84  114  144  174  204  234  264  294  324  354  384  414  444  474
                                    504  534  564  594  624  654  684  714  744  774  804  834  864  894
            1  1  1  0     3.300     55   85  115  145  175  205  235  265  295  325  355  385  415  445  475
                                    505  535  565  595  625  655  685  715  745  775  805  835  865  895
            1  0  2  0     3.300     56   86  116  146  176  206  236  266  296  326  356  386  416  446  476
                                    506  536  566  596  626  656  686  716  746  776  806  836  866  896
            0  3  0  0     3.300     57   87  117  147  177  207  237  267  297  327  357  387  417  447  477
                                    507  537  567  597  627  657  687  717  747  777  807  837  867  897
            0  2  1  0     3.300     58   88  118  148  178  208  238  268  298  328  358  388  418  448  478
                                    508  538  568  598  628  658  688  718  748  778  808  838  868  898
            0  1  2  0     3.300     59   89  119  149  179  209  239  269  299  329  359  389  419  449  479
                                    509  539  569  599  629  659  689  719  749  779  809  839  869  899
            0  0  3  0     3.300     60   90  120  150  180  210  240  270  300  330  360  390  420  450  480
                                    510  540  570  600  630  660  690  720  750  780  810  840  870  900

 H                                   31   32   33   34   35   36   37   38   39   40   41   42   43   44   45
                                     46
                                  ---------------------------------------------------------------------------
            0  0  0  0     0.690    901  913  925  937  949  961  973  985  997 1009 1021 1033 1045 1057 1069
                                   1081
            0  0  0  0     0.920    902  914  926  938  950  962  974  986  998 1010 1022 1034 1046 1058 1070
                                   1082
            0  0  0  0     1.580    903  915  927  939  951  963  975  987  999 1011 1023 1035 1047 1059 1071
                                   1083
            1  0  0  0     1.250    904  916  928  940  952  964  976  988 1000 1012 1024 1036 1048 1060 1072
                                   1084
            0  1  0  0     1.250    905  917  929  941  953  965  977  989 1001 1013 1025 1037 1049 1061 1073
                                   1085
            0  0  1  0     1.250    906  918  930  942  954  966  978  990 1002 1014 1026 1038 1050 1062 1074
                                   1086
            2  0  0  0     2.500    907  919  931  943  955  967  979  991 1003 1015 1027 1039 1051 1063 1075
                                   1087
            1  1  0  0     2.500    908  920  932  944  956  968  980  992 1004 1016 1028 1040 1052 1064 1076
                                   1088
            1  0  1  0     2.500    909  921  933  945  957  969  981  993 1005 1017 1029 1041 1053 1065 1077
                                   1089
            0  2  0  0     2.500    910  922  934  946  958  970  982  994 1006 1018 1030 1042 1054 1066 1078
                                   1090
            0  1  1  0     2.500    911  923  935  947  959  971  983  995 1007 1019 1031 1043 1055 1067 1079
                                   1091
            0  0  2  0     2.500    912  924  936  948  960  972  984  996 1008 1020 1032 1044 1056 1068 1080
                                   1092

 N                                   47   48
                                  ---------------------------------------------------------------------------
            0  0  0  0     8.740   1093 1123
            0  0  0  0     5.900   1094 1124
            0  0  0  1     5.150   1095 1125
            0  0  0  1     2.500   1096 1126
            0  0  0  1     1.500   1097 1127
            1  0  0  0     3.680   1098 1128
            0  1  0  0     3.680   1099 1129
            0  0  1  0     3.680   1100 1130
            1  0  0  0     1.880   1101 1131
            0  1  0  0     1.880   1102 1132
            0  0  1  0     1.880   1103 1133
            1  0  0  0     1.000   1104 1134
            0  1  0  0     1.000   1105 1135
            0  0  1  0     1.000   1106 1136
            2  0  0  0     2.200   1107 1137
            1  1  0  0     2.200   1108 1138
            1  0  1  0     2.200   1109 1139
            0  2  0  0     2.200   1110 1140
            0  1  1  0     2.200   1111 1141
            0  0  2  0     2.200   1112 1142
            3  0  0  0     3.300   1113 1143
            2  1  0  0     3.300   1114 1144
            2  0  1  0     3.300   1115 1145
            1  2  0  0     3.300   1116 1146
            1  1  1  0     3.300   1117 1147
            1  0  2  0     3.300   1118 1148
            0  3  0  0     3.300   1119 1149
            0  2  1  0     3.300   1120 1150
            0  1  2  0     3.300   1121 1151
            0  0  3  0     3.300   1122 1152

 O                                   49   50
                                  ---------------------------------------------------------------------------
            0  0  0  0     9.800   1153 1183
            0  0  0  0     6.800   1154 1184
            0  0  0  1     7.580   1155 1185
            0  0  0  1     2.880   1156 1186
            0  0  0  1     1.720   1157 1187
            1  0  0  0     4.080   1158 1188
            0  1  0  0     4.080   1159 1189
            0  0  1  0     4.080   1160 1190
            1  0  0  0     2.080   1161 1191
            0  1  0  0     2.080   1162 1192
            0  0  1  0     2.080   1163 1193
            1  0  0  0     1.120   1164 1194
            0  1  0  0     1.120   1165 1195
            0  0  1  0     1.120   1166 1196
            2  0  0  0     2.000   1167 1197
            1  1  0  0     2.000   1168 1198
            1  0  1  0     2.000   1169 1199
            0  2  0  0     2.000   1170 1200
            0  1  1  0     2.000   1171 1201
            0  0  2  0     2.000   1172 1202
            3  0  0  0     3.000   1173 1203
            2  1  0  0     3.000   1174 1204
            2  0  1  0     3.000   1175 1205
            1  2  0  0     3.000   1176 1206
            1  1  1  0     3.000   1177 1207
            1  0  2  0     3.000   1178 1208
            0  3  0  0     3.000   1179 1209
            0  2  1  0     3.000   1180 1210
            0  1  2  0     3.000   1181 1211
            0  0  3  0     3.000   1182 1212

 F                                   51   52   53   54   55   56
                                  ---------------------------------------------------------------------------
            0  0  0  0    10.880   1213 1243 1273 1303 1333 1363
            0  0  0  0     7.700   1214 1244 1274 1304 1334 1364
            0  0  0  1     3.240   1215 1245 1275 1305 1335 1365
            0  0  0  1     1.940   1216 1246 1276 1306 1336 1366
            0  0  0  1     0.740   1217 1247 1277 1307 1337 1367
            1  0  0  0     4.540   1218 1248 1278 1308 1338 1368
            0  1  0  0     4.540   1219 1249 1279 1309 1339 1369
            0  0  1  0     4.540   1220 1250 1280 1310 1340 1370
            1  0  0  0     2.300   1221 1251 1281 1311 1341 1371
            0  1  0  0     2.300   1222 1252 1282 1312 1342 1372
            0  0  1  0     2.300   1223 1253 1283 1313 1343 1373
            1  0  0  0     1.240   1224 1254 1284 1314 1344 1374
            0  1  0  0     1.240   1225 1255 1285 1315 1345 1375
            0  0  1  0     1.240   1226 1256 1286 1316 1346 1376
            2  0  0  0     2.000   1227 1257 1287 1317 1347 1377
            1  1  0  0     2.000   1228 1258 1288 1318 1348 1378
            1  0  1  0     2.000   1229 1259 1289 1319 1349 1379
            0  2  0  0     2.000   1230 1260 1290 1320 1350 1380
            0  1  1  0     2.000   1231 1261 1291 1321 1351 1381
            0  0  2  0     2.000   1232 1262 1292 1322 1352 1382
            3  0  0  0     3.000   1233 1263 1293 1323 1353 1383
            2  1  0  0     3.000   1234 1264 1294 1324 1354 1384
            2  0  1  0     3.000   1235 1265 1295 1325 1355 1385
            1  2  0  0     3.000   1236 1266 1296 1326 1356 1386
            1  1  1  0     3.000   1237 1267 1297 1327 1357 1387
            1  0  2  0     3.000   1238 1268 1298 1328 1358 1388
            0  3  0  0     3.000   1239 1269 1299 1329 1359 1389
            0  2  1  0     3.000   1240 1270 1300 1330 1360 1390
            0  1  2  0     3.000   1241 1271 1301 1331 1361 1391
            0  0  3  0     3.000   1242 1272 1302 1332 1362 1392

 Total number of charge fitting functions (nprimf)      4166
 Total number of Cartesian basis functions (naos)       1392
 Total number of Cartesian core functions  (ncos)          0

1
 ***************************************************************************************************



                                              ***********************
                                              *  T E C H N I C A L  *
                                              ***********************
  



 =============================================================
 P A R A L L E L I Z A T I O N  and  V E C T O R I Z A T I O N
 =============================================================
  
 Nr of parallel processes:                               12
 Maximum vector length in NumInt loops:                 128



 =====================
 S C F   U P D A T E S
 =====================
  
 Max. nr. of cycles:                               300
 Convergence criterion:                              0.0000010000
   secondary criterion:                              0.0010000000

 Mix parameter (when DIIS does not apply):           0.2000000000
 Mixed ADIIS+SDIIS will be used                  
    Max number of expansion vectors:                10
    Pure ADIIS when Max([F,P]) is above              0.1000000000
    Pure SDIIS when Max([F,P]) is below              0.0010000000
 Automatic ElectronSmearing (in case of problematic SCF convergence) disabled



 =================
 P R E C I S I O N  ***  (General: NumInt, NeglectFunctionTails, ...)  ***
 =================
  

 NumInt:           Target precision:                 4.0000000000
 -------           Initial precision:                4.0000000000
                   Min. precision (optimization):    4.0000000000

 Neglect Functions:          Basis functions:        0.1000000000E-13
 ------------------          Fit functions:          0.1000000000E-13



 ===========================
 L I N E A R   S C A L I N G
 ===========================
  

 Cut-off radii density fit:                        0.1000000000E-07
 Overlap cut-off criterion AO matrix elements:     0.1000000000E-05
 Cut-offs for Coulomb potential and fitted density:0.1000000000E-07
 Cut-off criterion for Coulomb multipole terms:    0.1000000000E-07
 Progressive Convergence parameter:                 0.000000000    
1
 ***************************************************************************************************



                                            ***************************
                                            *  C O M P U T A T I O N  *
                                            ***************************
  



 ==============================
 Double group spinor symmetries  ***  (Spin-Orbit)  ***
 ==============================
  

 The double group Lowdins are spinors adapted to the irreducible representations
 of the double group. These double group Lowdins are linear combinations of
 products of the single group Lowdins and the spinfunctions. The single group
 Lowdins are  orthonormalized symmetrized fragment orbitals (SFOs).
 The complex coefficients that are used in the linear combinations are also
 known as Clebsch-Gordan coefficients.
 The spin functions (alpha,beta) span irrep e1/2


          A * e 1/2 :      A1/2

  A1/2:1 = A.alpha
  A1/2:1 = A.beta

 The table summarizes which one-electron orbital irreps (single group) couple
 with spin to which spinor irreps (double group).
 The Clebsch-Gordan series for each direct product: orbital irrep times e1/2.
                  A
            -------
  A1/2           X


 dimension (equal to the max. nr. of electrons per spinor) of the double group irreps
 ------------------------------------------------------------------------------------
  A1/2           1

 Number of elements of the density matrix on this node (used, total):     80781    969528



 ===========================================
 Numerical Integration : Fuzzy Cells (Becke)
 ===========================================
  
 Becke grid quality: NORMAL         
  
 Lebedev angular grid order:             min:  11 max:  23
 Nr. of radial points:                   min:  46 max:  55

 Total nr. of points:     372486
 Nr. of blocks:             2911
 Block length:               128
 Nr. of dummy points:        122


 Test of Precision of the Numerical Integration Grid
 ===================================================

 Integral of the Total Core Density:                   0.00000000000000


 -------------------------------------------
  COSMO surface
  Area             =         1586.254
  Volume           =         3498.807
  Number of Points =         3746
 -------------------------------------------



 ========================
 Density Fitting (zlmFit)
 ========================
  
 ZlmFit Fit Quality: NORMAL         
  
 Max L-expansion:                        min:   6 max:   7
 Nr. of radial interpolation points:     min:  39 max:  54



 =====
 S C F  ***  ScaSCF  ***
 =====
  
 Initial density matrix is calculated as sum of fragments

 CYCLE    1
 SCF Error: norm([F,P])=     15.384345713857, max([F,P])=      1.441469044132
 orbitals (Q,E):
 ---------------
 A :131...150        ( 2.00    -0.4182)  ( 2.00    -0.4169)  ( 2.00    -0.4167)  ( 2.00    -0.4151)
                     ( 2.00    -0.4132)  ( 2.00    -0.4072)  ( 2.00    -0.4027)  ( 2.00    -0.3941)
                     ( 2.00    -0.3752)  ( 2.00    -0.3313)  ( 0.00    -0.2941)  ( 0.00    -0.2384)
                     ( 0.00    -0.2253)  ( 0.00    -0.2231)  ( 0.00    -0.2225)  ( 0.00    -0.2224)
                     ( 0.00    -0.2161)  ( 0.00    -0.1930)  ( 0.00    -0.1879)  ( 0.00    -0.1451)

 CYCLE    2
   MIX coefficients:  0.8000  0.2000
 SCF Error: norm([F,P])=      2.055177920181, max([F,P])=      0.171485690584
 orbitals (Q,E):
 ---------------
 A :131...141        ( 2.00    -0.3606)  ( 2.00    -0.3596)  ( 2.00    -0.3592)  ( 2.00    -0.3574)
                     ( 2.00    -0.3556)  ( 2.00    -0.3515)  ( 2.00    -0.3480)  ( 2.00    -0.3355)
                     ( 2.00    -0.3250)  ( 2.00    -0.2868)  ( 0.00    -0.2506)

 CYCLE    3
  SDIIS (wt  0.000): -0.9281  1.9281
 A-DIIS (wt  1.000):  0.0000  1.0000
  DIIS coefficients:  0.0000  1.0000
 SCF Error: norm([F,P])=      1.134781157843, max([F,P])=      0.084142470769
 orbitals (Q,E):
 ---------------
 A :131...141        ( 2.00    -0.1967)  ( 2.00    -0.1894)  ( 2.00    -0.1861)  ( 2.00    -0.1836)
                     ( 2.00    -0.1833)  ( 2.00    -0.1802)  ( 2.00    -0.1701)  ( 2.00    -0.1562)
                     ( 2.00    -0.1534)  ( 2.00    -0.1222)  ( 0.00    -0.0960)

 CYCLE    4
  SDIIS (wt  0.000):  0.3391  0.0958  0.5652
 A-DIIS (wt  1.000):  0.0000  0.5847  0.4153
  DIIS coefficients:  0.0000  0.5847  0.4153
 SCF Error: norm([F,P])=      1.426836366996, max([F,P])=      0.126152551906
 orbitals (Q,E):
 ---------------
 A :131...141        ( 2.00    -0.2561)  ( 2.00    -0.2553)  ( 2.00    -0.2542)  ( 2.00    -0.2484)
                     ( 2.00    -0.2469)  ( 2.00    -0.2386)  ( 2.00    -0.2313)  ( 2.00    -0.2168)
                     ( 2.00    -0.2111)  ( 2.00    -0.1729)  ( 0.00    -0.1410)

 CYCLE    5
  SDIIS (wt  0.613): -0.2108  0.4970  0.1058  0.6080
 A-DIIS (wt  0.387):  0.0000  0.0000  0.0000  1.0000
  DIIS coefficients: -0.1292  0.3046  0.0649  0.7597
 SCF Error: norm([F,P])=      0.294226837705, max([F,P])=      0.039323853706
 orbitals (Q,E):
 ---------------
 A :131...141        ( 2.00    -0.2661)  ( 2.00    -0.2610)  ( 2.00    -0.2597)  ( 2.00    -0.2569)
                     ( 2.00    -0.2552)  ( 2.00    -0.2541)  ( 2.00    -0.2396)  ( 2.00    -0.2279)
                     ( 2.00    -0.2271)  ( 2.00    -0.1954)  ( 0.00    -0.1635)

 CYCLE    6
  SDIIS (wt  0.000):  0.0386  0.0558  0.0886  0.4669  0.3501
 A-DIIS (wt  1.000):  0.0000  0.0000  0.0000  0.5596  0.4404
  DIIS coefficients:  0.0000  0.0000  0.0000  0.5596  0.4404
 SCF Error: norm([F,P])=      0.349297170725, max([F,P])=      0.058901563552
 orbitals (Q,E):
 ---------------
 A :131...141        ( 2.00    -0.2649)  ( 2.00    -0.2612)  ( 2.00    -0.2604)  ( 2.00    -0.2574)
                     ( 2.00    -0.2562)  ( 2.00    -0.2509)  ( 2.00    -0.2447)  ( 2.00    -0.2312)
                     ( 2.00    -0.2239)  ( 2.00    -0.1888)  ( 0.00    -0.1576)

 CYCLE    7
  SDIIS (wt  0.871): -0.0112  0.0536  0.0195  0.3390  0.2651  0.3341
 A-DIIS (wt  0.129):  0.0000  0.0000  0.0000  0.0000  0.0000  1.0000
  DIIS coefficients: -0.0098  0.0467  0.0170  0.2953  0.2310  0.4198
 SCF Error: norm([F,P])=      0.089742922415, max([F,P])=      0.013742384250
 orbitals (Q,E):
 ---------------
 A :131...141        ( 2.00    -0.2623)  ( 2.00    -0.2598)  ( 2.00    -0.2593)  ( 2.00    -0.2550)
                     ( 2.00    -0.2535)  ( 2.00    -0.2491)  ( 2.00    -0.2375)  ( 2.00    -0.2244)
                     ( 2.00    -0.2216)  ( 2.00    -0.1857)  ( 0.00    -0.1536)

 CYCLE    8
  SDIIS (wt  0.945): -0.0034  0.0162  0.0053  0.1523  0.1161  0.3015  0.4120
 A-DIIS (wt  0.055):  0.0000  0.0000  0.0000  0.0000  0.0000  0.1880  0.8120
  DIIS coefficients: -0.0032  0.0153  0.0050  0.1439  0.1097  0.2953  0.4340
 SCF Error: norm([F,P])=      0.038537315601, max([F,P])=      0.006452579254
 orbitals (Q,E):
 ---------------
 A :131...141        ( 2.00    -0.2629)  ( 2.00    -0.2600)  ( 2.00    -0.2595)  ( 2.00    -0.2553)
                     ( 2.00    -0.2539)  ( 2.00    -0.2493)  ( 2.00    -0.2398)  ( 2.00    -0.2265)
                     ( 2.00    -0.2221)  ( 2.00    -0.1865)  ( 0.00    -0.1546)

 CYCLE    9
  SDIIS (wt  1.000): -0.0029  0.0076  0.0009  0.0645  0.0474  0.1604  0.2862  0.4359
  DIIS coefficients: -0.0029  0.0076  0.0009  0.0645  0.0474  0.1604  0.2862  0.4359
 SCF Error: norm([F,P])=      0.007146860059, max([F,P])=      0.000962574980
 orbitals (Q,E):
 ---------------
 A :131...141        ( 2.00    -0.2629)  ( 2.00    -0.2600)  ( 2.00    -0.2594)  ( 2.00    -0.2554)
                     ( 2.00    -0.2540)  ( 2.00    -0.2494)  ( 2.00    -0.2395)  ( 2.00    -0.2263)
                     ( 2.00    -0.2221)  ( 2.00    -0.1864)  ( 0.00    -0.1546)

 CYCLE   10
  SDIIS (wt  1.000): -0.0011  0.0020 -0.0002  0.0162  0.0114  0.0524  0.1128  0.2559  0.5506
  DIIS coefficients: -0.0011  0.0020 -0.0002  0.0162  0.0114  0.0524  0.1128  0.2559  0.5506
 SCF Error: norm([F,P])=      0.001744026415, max([F,P])=      0.000137767643
 orbitals (Q,E):
 ---------------
 A :131...141        ( 2.00    -0.2629)  ( 2.00    -0.2600)  ( 2.00    -0.2595)  ( 2.00    -0.2554)
                     ( 2.00    -0.2540)  ( 2.00    -0.2494)  ( 2.00    -0.2396)  ( 2.00    -0.2264)
                     ( 2.00    -0.2221)  ( 2.00    -0.1865)  ( 0.00    -0.1546)

 CYCLE   11
  SDIIS (wt  1.000):  0.0002 -0.0001  0.0000  0.0037  0.0027  0.0169  0.0437  0.1252  0.4030  0.4048
  DIIS coefficients:  0.0002 -0.0001  0.0000  0.0037  0.0027  0.0169  0.0437  0.1252  0.4030  0.4048
 SCF Error: norm([F,P])=      0.001052438308, max([F,P])=      0.000093656658
 orbitals (Q,E):
 ---------------
 A :131...141        ( 2.00    -0.2629)  ( 2.00    -0.2600)  ( 2.00    -0.2595)  ( 2.00    -0.2554)
                     ( 2.00    -0.2540)  ( 2.00    -0.2494)  ( 2.00    -0.2396)  ( 2.00    -0.2264)
                     ( 2.00    -0.2221)  ( 2.00    -0.1865)  ( 0.00    -0.1546)

 CYCLE   12
  SDIIS (wt  1.000):  0.0001 -0.0000  0.0024  0.0016  0.0113  0.0296  0.0870  0.2914  0.3223  0.2542
  DIIS coefficients:  0.0001 -0.0000  0.0024  0.0016  0.0113  0.0296  0.0870  0.2914  0.3223  0.2542
 SCF Error: norm([F,P])=      0.000500462640, max([F,P])=      0.000105459693
 orbitals (Q,E):
 ---------------
 A :131...141        ( 2.00    -0.2629)  ( 2.00    -0.2600)  ( 2.00    -0.2595)  ( 2.00    -0.2554)
                     ( 2.00    -0.2540)  ( 2.00    -0.2494)  ( 2.00    -0.2396)  ( 2.00    -0.2263)
                     ( 2.00    -0.2221)  ( 2.00    -0.1865)  ( 0.00    -0.1546)

 CYCLE   13
  SDIIS (wt  1.000): -0.0000  0.0004  0.0001  0.0034  0.0102  0.0344  0.1334  0.1717  0.2790  0.3674
  DIIS coefficients: -0.0000  0.0004  0.0001  0.0034  0.0102  0.0344  0.1334  0.1717  0.2790  0.3674
 SCF Error: norm([F,P])=      0.000278520401, max([F,P])=      0.000057544083
 orbitals (Q,E):
 ---------------
 A :131...141        ( 2.00    -0.2629)  ( 2.00    -0.2600)  ( 2.00    -0.2595)  ( 2.00    -0.2554)
                     ( 2.00    -0.2540)  ( 2.00    -0.2494)  ( 2.00    -0.2396)  ( 2.00    -0.2263)
                     ( 2.00    -0.2221)  ( 2.00    -0.1865)  ( 0.00    -0.1546)

 CYCLE   14
  SDIIS (wt  1.000):  0.0000 -0.0001  0.0009  0.0030  0.0116  0.0498  0.0703  0.1589  0.2600  0.4455
  DIIS coefficients:  0.0000 -0.0001  0.0009  0.0030  0.0116  0.0498  0.0703  0.1589  0.2600  0.4455
 SCF Error: norm([F,P])=      0.000067532762, max([F,P])=      0.000010009902
 orbitals (Q,E):
 ---------------
 A :131...141        ( 2.00    -0.2629)  ( 2.00    -0.2600)  ( 2.00    -0.2595)  ( 2.00    -0.2554)
                     ( 2.00    -0.2540)  ( 2.00    -0.2494)  ( 2.00    -0.2396)  ( 2.00    -0.2263)
                     ( 2.00    -0.2221)  ( 2.00    -0.1865)  ( 0.00    -0.1546)

 CYCLE   15
  SDIIS (wt  1.000): -0.0001  0.0003  0.0011  0.0047  0.0202  0.0291  0.0739  0.1264  0.2629  0.4813
  DIIS coefficients: -0.0001  0.0003  0.0011  0.0047  0.0202  0.0291  0.0739  0.1264  0.2629  0.4813
 SCF Error: norm([F,P])=      0.000015547339, max([F,P])=      0.000001803775
 orbitals (Q,E):
 ---------------
 A :131...141        ( 2.00    -0.2629)  ( 2.00    -0.2600)  ( 2.00    -0.2595)  ( 2.00    -0.2554)
                     ( 2.00    -0.2540)  ( 2.00    -0.2494)  ( 2.00    -0.2396)  ( 2.00    -0.2263)
                     ( 2.00    -0.2221)  ( 2.00    -0.1865)  ( 0.00    -0.1546)

 CYCLE   16
  SDIIS (wt  1.000): -0.0000 -0.0002 -0.0003 -0.0012 -0.0006  0.0033  0.0097  0.0474  0.2467  0.6953
  DIIS coefficients: -0.0000 -0.0002 -0.0003 -0.0012 -0.0006  0.0033  0.0097  0.0474  0.2467  0.6953
 SCF Error: norm([F,P])=      0.000004768988, max([F,P])=      0.000000447611
 orbitals (Q,E):
 ---------------
 A :131...141        ( 2.00    -0.2629)  ( 2.00    -0.2600)  ( 2.00    -0.2595)  ( 2.00    -0.2554)
                     ( 2.00    -0.2540)  ( 2.00    -0.2494)  ( 2.00    -0.2396)  ( 2.00    -0.2263)
                     ( 2.00    -0.2221)  ( 2.00    -0.1865)  ( 0.00    -0.1546)

 SCF CONVERGED
 cosmo_calcen: 0.5 (esolb+esolc) (Hartrees) =   -0.026143

 Solvation energy (screening term,uncorrected) =    -16.404910 kcal/mol

 Solvation energy (dispersion and cavitation terms) =      2.859355 kcal/mol
 Solvation Energy Contributions (Hartrees)
          esola   esolb+esolc
     0.02614289   -0.05228577
 esol last cycle   -0.02614289

 CYCLE   17
1
 ***************************************************************************************************



                                                *******************
                                                *  R E S U L T S  *
                                                *******************
  
 *** Using FIT density in Focky
  SDIIS (wt  1.000): -0.0000  0.0001  0.0002  0.0008  0.0031  0.0065  0.0239  0.1184  0.4206  0.4265
  DIIS coefficients: -0.0000  0.0001  0.0002  0.0008  0.0031  0.0065  0.0239  0.1184  0.4206  0.4265
 SCF Error: norm([F,P])=      0.000003556125, max([F,P])=      0.000000370576

 Scaled ZORA Orbital Energies, per Irrep and Spin:
 =================================================
                        Occup              E (au)              E (eV)       Diff (eV) with prev. cycle
                        -----      --------------------        ------       --------------------------
 A
             131        2.000     -0.26293264788930E+00        -7.155               6.39E-07
             132        2.000     -0.26002559057911E+00        -7.076               1.35E-06
             133        2.000     -0.25947048050874E+00        -7.061               1.36E-06
             134        2.000     -0.25542494182067E+00        -6.950              -1.06E-07
             135        2.000     -0.25399477968803E+00        -6.912              -1.31E-07
             136        2.000     -0.24938219863735E+00        -6.786              -1.68E-06
             137        2.000     -0.23958084982508E+00        -6.519              -2.35E-06
             138        2.000     -0.22634950630735E+00        -6.159              -1.96E-06
             139        2.000     -0.22208182512171E+00        -6.043              -1.09E-06
             140        2.000     -0.18647802777132E+00        -5.074              -2.24E-06
             141        0.000     -0.15460456383402E+00        -4.207
             142        0.000     -0.87178333423732E-01        -2.372
             143        0.000     -0.78822376091003E-01        -2.145
             144        0.000     -0.77675681939644E-01        -2.114
             145        0.000     -0.70315905914363E-01        -1.913
             146        0.000     -0.66801033477105E-01        -1.818
             147        0.000     -0.59630116072959E-01        -1.623
             148        0.000     -0.39382026203189E-01        -1.072
             149        0.000     -0.33932472309509E-01        -0.923
             150        0.000     -0.35034639505994E-02        -0.095
  
 HOMO :      140 A                -0.18647802777132E+00
 LUMO :      141 A                -0.15460456383402E+00
  
 cosmo_calcen: 0.5 (esolb+esolc) (Hartrees) =   -0.026143

 Solvation energy (screening term,uncorrected) =    -16.404899 kcal/mol

 Solvation energy (dispersion and cavitation terms) =      2.859355 kcal/mol
 Solvation Energy Contributions (Hartrees)
          esola   esolb+esolc
     0.02614287   -0.05228573
 esol last cycle   -0.02614287


 All Electron Calculation, thus no Orbital Energies of the Core Orbitals are calculated


 Fit test: (difference of exact and fit density, squared integrated, result summed over spins)
         Sum-of-Fragments:                             0.00000000742650
         Orthogonalized Fragments:                     0.00043719898800
         SCF:                                          0.00117173525627



 ==========================
 Electron Density at Nuclei
 ==========================
  
 The electron density is calculated at points on a small sphere around the center of a nucleus.
 The printed electron density is the average electron density on these points.
 The radius of the sphere is the printed approximate finite nuclear radius.
 Note: ZORA-4 density is used, which includes small component density

         Atom        Nuclear Radius (Angstrom)             Electron Density (a.u.)
         ----        -------------------------             -----------------------
     1)   C                 0.0000320678                              127.03995
     2)   C                 0.0000320678                              127.03995
     3)   C                 0.0000320678                              127.04561
     4)   C                 0.0000320678                              127.04561
     5)   C                 0.0000320678                              127.01810
     6)   C                 0.0000320678                              127.01810
     7)   C                 0.0000320678                              127.06049
     8)   C                 0.0000320678                              127.06049
     9)   C                 0.0000320678                              127.02664
    10)   C                 0.0000320678                              127.02664
    11)   C                 0.0000320678                              127.05452
    12)   C                 0.0000320678                              127.05452
    13)   C                 0.0000320678                              127.10473
    14)   C                 0.0000320678                              127.10472
    15)   C                 0.0000320678                              127.01799
    16)   C                 0.0000320678                              127.01798
    17)   H                 0.0000181514                                0.49460
    18)   H                 0.0000181514                                0.49460
    19)   H                 0.0000181514                                0.49738
    20)   H                 0.0000181514                                0.49738
    21)   H                 0.0000181514                                0.49742
    22)   H                 0.0000181514                                0.49742
    23)   H                 0.0000181514                                0.49526
    24)   H                 0.0000181514                                0.49527
    25)   N                 0.0000333706                              205.74075
    26)   N                 0.0000333706                              205.74076
    27)   O                 0.0000345546                              313.97855
    28)   O                 0.0000345546                              313.97854
    29)   C                 0.0000320678                              127.01068
    30)   C                 0.0000320678                              127.04309
    31)   C                 0.0000320678                              127.05121
    32)   C                 0.0000320678                              127.05338
    33)   C                 0.0000320678                              127.05412
    34)   C                 0.0000320678                              127.03139
    35)   H                 0.0000181514                                0.49671
    36)   H                 0.0000181514                                0.49528
    37)   H                 0.0000181514                                0.49571
    38)   H                 0.0000181514                                0.49586
    39)   C                 0.0000320678                              126.96073
    40)   F                 0.0000361580                              450.99696
    41)   F                 0.0000361580                              450.98511
    42)   F                 0.0000361580                              450.98768
    43)   C                 0.0000320678                              127.01069
    44)   C                 0.0000320678                              127.04309
    45)   C                 0.0000320678                              127.05121
    46)   C                 0.0000320678                              127.05338
    47)   C                 0.0000320678                              127.05412
    48)   C                 0.0000320678                              127.03139
    49)   H                 0.0000181514                                0.49671
    50)   H                 0.0000181514                                0.49528
    51)   H                 0.0000181514                                0.49571
    52)   H                 0.0000181514                                0.49586
    53)   C                 0.0000320678                              126.96073
    54)   F                 0.0000361580                              450.99697
    55)   F                 0.0000361580                              450.98511
    56)   F                 0.0000361580                              450.98768



 =======================================
 M U L L I K E N   P O P U L A T I O N S
 =======================================
  
 The survey below gives for each atom:
 a) the total charge (Z minus electrons)
 b) the net spin polarization (nr of electrons spin-A minus spin-B)
 c) for each spin the atomic electron valence density (integrated) per L-value.

 Atom              Charge    Spin density          S         P         D         F
 ----              ------    ------------       ------    ------    ------    ------
 1 C              -0.1064                       3.1222    2.9038    0.0742    0.0062
 2 C              -0.1064                       3.1222    2.9038    0.0742    0.0062
 3 C               0.1934                       3.0679    2.6328    0.0981    0.0077
 4 C               0.1934                       3.0679    2.6328    0.0981    0.0077
 5 C               0.1673                       3.0745    2.6963    0.0571    0.0048
 6 C               0.1673                       3.0745    2.6963    0.0571    0.0048
 7 C               0.2061                       3.0892    2.6401    0.0597    0.0048
 8 C               0.2061                       3.0892    2.6401    0.0597    0.0048
 9 C               0.1557                       3.0835    2.6982    0.0579    0.0048
 10 C              0.1557                       3.0835    2.6982    0.0579    0.0048
 11 C              0.2141                       3.0863    2.6350    0.0598    0.0048
 12 C              0.2141                       3.0863    2.6350    0.0598    0.0048
 13 C              0.4679                       2.9981    2.3928    0.1325    0.0087
 14 C              0.4679                       2.9981    2.3928    0.1325    0.0087
 15 C              0.0887                       3.1243    2.6878    0.0919    0.0073
 16 C              0.0887                       3.1243    2.6878    0.0919    0.0073
 17 H             -0.1486                       1.0606    0.0825    0.0055    0.0000
 18 H             -0.1486                       1.0606    0.0825    0.0055    0.0000
 19 H             -0.1741                       1.0975    0.0715    0.0051    0.0000
 20 H             -0.1741                       1.0975    0.0715    0.0051    0.0000
 21 H             -0.1687                       1.0915    0.0721    0.0051    0.0000
 22 H             -0.1687                       1.0915    0.0721    0.0051    0.0000
 23 H             -0.1777                       1.0978    0.0747    0.0052    0.0000
 24 H             -0.1777                       1.0978    0.0747    0.0052    0.0000
 25 N             -0.3110                       3.4236    3.7896    0.0909    0.0069
 26 N             -0.3110                       3.4236    3.7896    0.0909    0.0069
 27 O             -0.5934                       3.8266    4.7084    0.0525    0.0058
 28 O             -0.5934                       3.8266    4.7084    0.0525    0.0058
 29 C              0.1396                       3.1029    2.6529    0.0972    0.0074
 30 C              0.2160                       3.0821    2.6395    0.0574    0.0049
 31 C              0.1961                       3.0852    2.6565    0.0573    0.0049
 32 C              0.2377                       3.0779    2.6205    0.0591    0.0049
 33 C              0.2370                       3.0801    2.6190    0.0590    0.0049
 34 C             -0.1451                       3.1316    2.9333    0.0742    0.0060
 35 H             -0.1593                       1.0729    0.0808    0.0056    0.0000
 36 H             -0.1534                       1.0701    0.0778    0.0055    0.0000
 37 H             -0.1776                       1.0947    0.0774    0.0054    0.0000
 38 H             -0.1721                       1.0898    0.0768    0.0054    0.0000
 39 C              1.1980                       2.7595    1.8182    0.2079    0.0164
 40 F             -0.4077                       3.9506    5.4160    0.0364    0.0047
 41 F             -0.4115                       3.9560    5.4139    0.0368    0.0048
 42 F             -0.4110                       3.9556    5.4137    0.0368    0.0048
 43 C              0.1396                       3.1029    2.6529    0.0972    0.0074
 44 C              0.2160                       3.0821    2.6395    0.0574    0.0049
 45 C              0.1961                       3.0852    2.6565    0.0573    0.0049
 46 C              0.2377                       3.0779    2.6205    0.0591    0.0049
 47 C              0.2370                       3.0801    2.6190    0.0590    0.0049
 48 C             -0.1451                       3.1316    2.9333    0.0742    0.0060
 49 H             -0.1593                       1.0729    0.0808    0.0056    0.0000
 50 H             -0.1534                       1.0701    0.0778    0.0055    0.0000
 51 H             -0.1776                       1.0947    0.0774    0.0054    0.0000
 52 H             -0.1721                       1.0898    0.0768    0.0054    0.0000
 53 C              1.1980                       2.7595    1.8182    0.2079    0.0164
 54 F             -0.4077                       3.9506    5.4160    0.0364    0.0047
 55 F             -0.4115                       3.9560    5.4139    0.0368    0.0048
 56 F             -0.4110                       3.9556    5.4137    0.0368    0.0048

 Populations of individual BAS functions
 ----------------------------------------
 1 C            0.4980  1.4977  0.3273  0.8416 -0.0425 -0.0317 -0.0531  0.1858  0.7751  0.7752
                0.7141  0.1862  0.1951  0.1571  0.0153  0.0203  0.0104  0.0306  0.0123 -0.0147
                0.0018  0.0003  0.0030  0.0038  0.0006 -0.0038  0.0071  0.0056 -0.0052 -0.0069
 2 C            0.4980  1.4977  0.3273  0.8416 -0.0425 -0.0317 -0.0531  0.1858  0.7751  0.7752
                0.7141  0.1862  0.1951  0.1571  0.0153  0.0203  0.0104  0.0306  0.0123 -0.0147
                0.0018  0.0003  0.0030  0.0038  0.0006 -0.0038  0.0071  0.0056 -0.0052 -0.0069
 3 C            0.4978  1.4987  0.2576  0.8584 -0.0445 -0.0899 -0.1568  0.0785  0.8158  0.7296
                0.7312  0.1964  0.1748  0.1533  0.0218  0.0251  0.0123  0.0314  0.0217 -0.0143
                0.0032  0.0008  0.0038  0.0032  0.0008 -0.0041  0.0068  0.0051 -0.0050 -0.0068
 4 C            0.4978  1.4987  0.2576  0.8584 -0.0445 -0.0899 -0.1568  0.0785  0.8158  0.7296
                0.7312  0.1964  0.1748  0.1533  0.0218  0.0251  0.0123  0.0314  0.0217 -0.0143
                0.0032  0.0008  0.0038  0.0032  0.0008 -0.0041  0.0068  0.0051 -0.0050 -0.0068
 5 C            0.4978  1.4980  0.2671  0.8549 -0.0432 -0.1301 -0.1284  0.0910  0.8120  0.7947
                0.7149  0.1928  0.1979  0.1513  0.0108  0.0172  0.0060  0.0251  0.0118 -0.0138
                0.0005  0.0001  0.0020  0.0040  0.0006 -0.0032  0.0057  0.0051 -0.0042 -0.0057
 6 C            0.4978  1.4980  0.2671  0.8549 -0.0432 -0.1301 -0.1284  0.0910  0.8120  0.7947
                0.7149  0.1928  0.1979  0.1513  0.0108  0.0172  0.0060  0.0251  0.0118 -0.0138
                0.0005  0.0001  0.0020  0.0040  0.0006 -0.0032  0.0057  0.0051 -0.0042 -0.0057
 7 C            0.4976  1.4983  0.2759  0.8611 -0.0436 -0.1026 -0.1854  0.0989  0.7880  0.8284
                0.6778  0.1932  0.1990  0.1427  0.0164  0.0194  0.0088  0.0172  0.0093 -0.0113
                0.0031  0.0014  0.0032  0.0015  0.0005 -0.0029  0.0035  0.0029 -0.0034 -0.0049
 8 C            0.4976  1.4983  0.2759  0.8611 -0.0437 -0.1026 -0.1854  0.0989  0.7880  0.8284
                0.6778  0.1932  0.1990  0.1427  0.0164  0.0194  0.0088  0.0172  0.0093 -0.0113
                0.0031  0.0014  0.0032  0.0015  0.0005 -0.0029  0.0035  0.0029 -0.0034 -0.0049
 9 C            0.4974  1.4984  0.2780  0.8527 -0.0430 -0.0845 -0.1721  0.1229  0.7734  0.8233
                0.6942  0.1932  0.1992  0.1487  0.0197  0.0173  0.0094  0.0164  0.0075 -0.0124
                0.0039  0.0023  0.0039  0.0010  0.0006 -0.0032  0.0027  0.0024 -0.0036 -0.0052
 10 C           0.4974  1.4984  0.2780  0.8527 -0.0430 -0.0845 -0.1721  0.1229  0.7734  0.8233
                0.6942  0.1932  0.1992  0.1487  0.0197  0.0173  0.0094  0.0164  0.0075 -0.0124
                0.0039  0.0023  0.0039  0.0010  0.0006 -0.0032  0.0027  0.0024 -0.0036 -0.0052
 11 C           0.4976  1.4984  0.2707  0.8638 -0.0442 -0.1595 -0.1123  0.0552  0.8224  0.8022
                0.6911  0.1939  0.2013  0.1408  0.0124  0.0158  0.0058  0.0261  0.0136 -0.0139
                0.0006  0.0002  0.0018  0.0038  0.0006 -0.0032  0.0056  0.0048 -0.0041 -0.0054
 12 C           0.4976  1.4984  0.2707  0.8638 -0.0442 -0.1595 -0.1123  0.0552  0.8224  0.8023
                0.6911  0.1939  0.2013  0.1408  0.0124  0.0158  0.0058  0.0261  0.0136 -0.0139
                0.0006  0.0002  0.0018  0.0038  0.0006 -0.0032  0.0056  0.0048 -0.0041 -0.0054
 13 C           0.4975  1.4992  0.1863  0.8615 -0.0464 -0.0341 -0.1908 -0.0226  0.6326  0.8150
                0.6670  0.1962  0.1861  0.1435  0.0328  0.0487  0.0238  0.0174  0.0169 -0.0071
                0.0062  0.0040  0.0058  0.0005  0.0011 -0.0035  0.0011  0.0017 -0.0029 -0.0054
 14 C           0.4975  1.4992  0.1863  0.8615 -0.0464 -0.0341 -0.1908 -0.0226  0.6326  0.8150
                0.6670  0.1962  0.1861  0.1435  0.0328  0.0487  0.0238  0.0174  0.0169 -0.0071
                0.0062  0.0040  0.0058  0.0005  0.0011 -0.0035  0.0011  0.0017 -0.0029 -0.0054
 15 C           0.4978  1.4982  0.3311  0.8380 -0.0409 -0.0916 -0.1267  0.1217  0.7427  0.7984
                0.7229  0.1724  0.1923  0.1556  0.0158  0.0271  0.0133  0.0314  0.0184 -0.0142
                0.0016  0.0008  0.0024  0.0047  0.0009 -0.0038  0.0063  0.0063 -0.0051 -0.0068
 16 C           0.4978  1.4982  0.3311  0.8380 -0.0409 -0.0916 -0.1267  0.1217  0.7427  0.7984
                0.7229  0.1724  0.1923  0.1556  0.0158  0.0271  0.0133  0.0314  0.0184 -0.0142
                0.0016  0.0008  0.0024  0.0047  0.0009 -0.0038  0.0063  0.0063 -0.0051 -0.0068
 29 C           0.4976  1.4988  0.3029  0.8460 -0.0423 -0.1327  0.0950 -0.0739  0.7509  0.7207
                0.7650  0.1824  0.1686  0.1769  0.0277  0.0200  0.0270 -0.0016  0.0112  0.0130
                0.0050  0.0040  0.0034 -0.0026  0.0012 -0.0001 -0.0038 -0.0010  0.0015 -0.0003
 30 C           0.4981  1.4973  0.2744  0.8550 -0.0426 -0.1731  0.0283 -0.0822  0.8247  0.7312
                0.7705  0.2015  0.1627  0.1759  0.0177  0.0099  0.0128 -0.0027  0.0094  0.0103
                0.0029  0.0020  0.0015 -0.0020  0.0008  0.0004 -0.0026 -0.0009  0.0018  0.0010
 31 C           0.4980  1.4975  0.2765  0.8561 -0.0429 -0.1563  0.0502 -0.1037  0.8080  0.7288
                0.7895  0.1993  0.1605  0.1801  0.0270  0.0129  0.0149 -0.0077  0.0065  0.0037
                0.0061  0.0051  0.0046 -0.0031  0.0006 -0.0014 -0.0047 -0.0016  0.0009 -0.0018
 32 C           0.4978  1.4980  0.2638  0.8622 -0.0439 -0.1453 -0.0276 -0.0922  0.8124  0.7476
                0.7909  0.1996  0.1580  0.1772  0.0274  0.0144  0.0152 -0.0070  0.0066  0.0026
                0.0061  0.0050  0.0047 -0.0030  0.0006 -0.0014 -0.0044 -0.0012  0.0008 -0.0023
 33 C           0.4980  1.4977  0.2661  0.8620 -0.0437 -0.1987  0.0017 -0.0642  0.8465  0.7288
                0.7695  0.2019  0.1563  0.1772  0.0174  0.0102  0.0137 -0.0021  0.0093  0.0104
                0.0029  0.0020  0.0015 -0.0021  0.0009  0.0005 -0.0026 -0.0008  0.0019  0.0009
 34 C           0.4978  1.4989  0.3265  0.8535 -0.0451 -0.0629  0.1369  0.0458  0.7909  0.7313
                0.7606  0.1862  0.1659  0.1786  0.0229  0.0155  0.0221 -0.0043  0.0092  0.0088
                0.0052  0.0039  0.0031 -0.0031  0.0010 -0.0005 -0.0040 -0.0014  0.0017  0.0001
 39 C           0.4967  1.5036 -0.0938  0.9081 -0.0551 -0.1719 -0.1785 -0.1669  0.6890  0.5605
                0.5865  0.1798  0.1562  0.1636  0.0295  0.0388  0.0457  0.0253  0.0453  0.0232
                0.0010  0.0003  0.0034  0.0003  0.0028  0.0029  0.0008  0.0032  0.0038 -0.0022
 43 C           0.4976  1.4988  0.3029  0.8460 -0.0423 -0.1327  0.0950 -0.0739  0.7509  0.7207
                0.7650  0.1824  0.1686  0.1769  0.0277  0.0200  0.0270 -0.0016  0.0112  0.0130
                0.0050  0.0040  0.0034 -0.0026  0.0012 -0.0001 -0.0038 -0.0010  0.0015 -0.0003
 44 C           0.4981  1.4973  0.2744  0.8550 -0.0426 -0.1731  0.0283 -0.0822  0.8247  0.7312
                0.7705  0.2015  0.1627  0.1759  0.0177  0.0099  0.0128 -0.0027  0.0094  0.0103
                0.0029  0.0020  0.0015 -0.0020  0.0008  0.0004 -0.0026 -0.0009  0.0018  0.0010
 45 C           0.4980  1.4975  0.2765  0.8561 -0.0429 -0.1563  0.0502 -0.1037  0.8080  0.7288
                0.7895  0.1993  0.1605  0.1801  0.0270  0.0129  0.0149 -0.0077  0.0065  0.0037
                0.0061  0.0051  0.0046 -0.0031  0.0006 -0.0014 -0.0047 -0.0016  0.0009 -0.0018
 46 C           0.4978  1.4980  0.2638  0.8622 -0.0439 -0.1453 -0.0276 -0.0922  0.8124  0.7476
                0.7909  0.1996  0.1580  0.1772  0.0274  0.0144  0.0152 -0.0070  0.0066  0.0026
                0.0061  0.0050  0.0047 -0.0030  0.0006 -0.0014 -0.0044 -0.0012  0.0008 -0.0023
 47 C           0.4980  1.4977  0.2661  0.8620 -0.0437 -0.1987  0.0017 -0.0642  0.8465  0.7288
                0.7695  0.2019  0.1563  0.1772  0.0174  0.0102  0.0137 -0.0021  0.0093  0.0104
                0.0029  0.0020  0.0015 -0.0021  0.0009  0.0005 -0.0026 -0.0008  0.0019  0.0009
 48 C           0.4978  1.4989  0.3265  0.8535 -0.0451 -0.0629  0.1369  0.0458  0.7909  0.7313
[...]
   40   -5.02194134329055E-11 -1.00974195868290E-25  0.00000000000000E+00 -5.66122411231292E-21
  
 First order spin-orbit coupled S0-T1 excitation E/eV =     0.68783
 transition dipole moment mu(x,y,z)             oscillator strength f    tau/s
 ------------------------------------------------------------------------------------
    T1_X -0.41670E-07  0.98796E-07  0.44202E-03          0.32924E-08       14.795    
    T1_Y  0.45477E-07 -0.26347E-07  0.85982E-06          0.12505E-13      0.38955E+07
    T1_Z  0.25302E-03 -0.11237E-04 -0.13976E-08          0.10810E-08       45.063    


 Symmetry A    

 Excit. no.:  40    Matrix dim.:  40    Total dim.:  40

 Excitation energies E under spin-orbital coupling in a.u. and eV

 no.    E/a.u.    E/eV          f         Err/a.u.      Ecorr/eV
 ----------------------------------------------------------------
   1    0.0253    0.6878    0.2362E-09    0.1064E-02     0.00000
   2    0.0253    0.6878    0.2416E-07    0.1064E-02     0.00000
   3    0.0253    0.6878    0.5566E-08    0.1064E-02     0.00000
   4    0.0478    1.3018    0.2188        0.1042E-02     0.00000
   5    0.0648    1.7638    0.1896E-07    0.1046E-02     0.00000
   6    0.0648    1.7638    0.7551E-09    0.1046E-02     0.00000
   7    0.0648    1.7638    0.5025E-06    0.1046E-02     0.00000
   8    0.0681    1.8523    0.1396E-06    0.1106E-02     0.00000
   9    0.0681    1.8523    0.3318E-09    0.1103E-02     0.00000
  10    0.0681    1.8523    0.8652E-06    0.1104E-02     0.00000
  11    0.0715    1.9446    0.2803E-02    0.1052E-02     0.00000
  12    0.0759    2.0661    0.2216E-01    0.1091E-02     0.00000
  13    0.0810    2.2029    0.8150E-07    0.1105E-02     0.00000
  14    0.0810    2.2029    0.1559E-07    0.1105E-02     0.00000
  15    0.0810    2.2029    0.2833E-05    0.1111E-02     0.00000
  16    0.0894    2.4322    0.8866E-03    0.1090E-02     0.00000
  17    0.0913    2.4847    0.1031E-08    0.1030E-02     0.00000
  18    0.0913    2.4847    0.2616E-07    0.1030E-02     0.00000
  19    0.0913    2.4847    0.1298E-06    0.1030E-02     0.00000
  20    0.0959    2.6088    0.2292E-06    0.8818E-03     0.00000
  21    0.0959    2.6088    0.9924E-08    0.8817E-03     0.00000
  22    0.0959    2.6088    0.1065E-07    0.8818E-03     0.00000
  23    0.0967    2.6326    0.2375E-06    0.9738E-03     0.00000
  24    0.0967    2.6326    0.1013E-05    0.9736E-03     0.00000
  25    0.0967    2.6326    0.2513E-07    0.9737E-03     0.00000
  26    0.0979    2.6629    0.4200E-06    0.1044E-02     0.00000
  27    0.0979    2.6629    0.2368E-09    0.1044E-02     0.00000
  28    0.0979    2.6630    0.1350E-06    0.1044E-02     0.00000
  29    0.0992    2.6988    0.8040E-01    0.1040E-02     0.00000
  30    0.1040    2.8299    0.6645E-02    0.1040E-02     0.00000
  31    0.1041    2.8332    0.3034E-05    0.1033E-02     0.00000
  32    0.1041    2.8332    0.1126E-07    0.1033E-02     0.00000
  33    0.1041    2.8332    0.3180E-06    0.1033E-02     0.00000
  34    0.1046    2.8465    0.1343E-06    0.1035E-02     0.00000
  35    0.1046    2.8465    0.7095E-05    0.1035E-02     0.00000
  36    0.1046    2.8465    0.9409E-06    0.1035E-02     0.00000
  37    0.1049    2.8555    0.1643        0.1036E-02     0.00000
  38    0.1052    2.8631    0.3709E-01    0.8450E-03     0.00000
  39    0.1063    2.8935    0.1834E-03    0.1030E-02     0.00000
  40    0.1073    2.9211    0.4053E-01    0.1039E-02     0.00000
                                                                          
 Major single group excitation contributions for the above excitations    
                                                                          
    Excitation   Single group       Excitation       weight       Contribution
     Nr.         excited states     energy /eV       (sum=1)          to f  
 
       1:       Triplet    1A         0.6878         0.5000
       1:       Triplet    1A         0.6878         0.5000
 
       2:       Triplet    1A         0.6878         1.0000
 
       3:       Triplet    1A         0.6878         0.5000
       3:       Triplet    1A         0.6878         0.5000
 
       4:       Singlet    1A         1.3018         1.0000       0.2188E+00
 
       5:       Triplet    2A         1.7638         0.5000
       5:       Triplet    2A         1.7638         0.5000
 
       6:       Triplet    2A         1.7638         0.9999
 
       7:       Triplet    2A         1.7638         0.5000
       7:       Triplet    2A         1.7638         0.5000
 
       8:       Triplet    3A         1.8523         0.5000
       8:       Triplet    3A         1.8523         0.5000
 
       9:       Triplet    3A         1.8523         0.5000
       9:       Triplet    3A         1.8523         0.5000
 
      10:       Triplet    3A         1.8523         0.9999
 
      11:       Singlet    2A         1.9446         1.0000       0.2803E-02
 
      12:       Singlet    3A         2.0661         1.0000       0.2216E-01
 
      13:       Triplet    4A         2.2029         0.5000
      13:       Triplet    4A         2.2029         0.5000
 
      14:       Triplet    4A         2.2029         1.0000
 
      15:       Triplet    4A         2.2029         0.5000
      15:       Triplet    4A         2.2029         0.5000
 
      16:       Singlet    4A         2.4322         0.9997       0.8866E-03
 
      17:       Triplet    5A         2.4847         0.5000
      17:       Triplet    5A         2.4847         0.5000
 
      18:       Triplet    5A         2.4847         1.0000
 
      19:       Triplet    5A         2.4847         0.4999
      19:       Triplet    5A         2.4847         0.4999
 
      20:       Triplet    6A         2.6088         0.5000
      20:       Triplet    6A         2.6088         0.5000
 
      21:       Triplet    6A         2.6088         0.5000
      21:       Triplet    6A         2.6088         0.5000
 
      22:       Triplet    6A         2.6088         1.0000
 
      23:       Triplet    7A         2.6326         0.5000
      23:       Triplet    7A         2.6326         0.5000
 
      24:       Triplet    7A         2.6326         0.5000
      24:       Triplet    7A         2.6326         0.5000
 
      25:       Triplet    7A         2.6326         1.0000
 
      26:       Triplet    8A         2.6629         0.9999
 
      27:       Triplet    8A         2.6629         0.5000
      27:       Triplet    8A         2.6629         0.5000
 
      28:       Triplet    8A         2.6629         0.4999
      28:       Triplet    8A         2.6629         0.4999
 
      29:       Singlet    5A         2.6988         1.0000       0.8040E-01
 
      30:       Singlet    6A         2.8299         0.9998       0.6645E-02
 
      31:       Triplet    9A         2.8332         0.5000
      31:       Triplet    9A         2.8332         0.5000
 
      32:       Triplet    9A         2.8332         0.5000
      32:       Triplet    9A         2.8332         0.5000
 
      33:       Triplet    9A         2.8332         0.9999
 
      34:       Triplet   10A         2.8465         0.5000
      34:       Triplet   10A         2.8465         0.5000
 
      35:       Triplet   10A         2.8465         0.9999
 
      36:       Triplet   10A         2.8465         0.4999
      36:       Triplet   10A         2.8465         0.4999
 
      37:       Singlet    7A         2.8555         0.9999       0.1643E+00
 
      38:       Singlet    8A         2.8631         1.0000       0.3709E-01
 
      39:       Singlet    9A         2.8935         1.0000       0.1834E-03
 
      40:       Singlet   10A         2.9211         1.0000       0.4053E-01
  

 Spin-orbit Matrix on basis of single group excited states
                 Single group      Excitation
     Nr.         excited state      energy/au     energy/eV     energy/cm-1
 NPRINT          10          10
 ---------------------------------------------------------------------------
      S1:      Singlet    1A         0.047841        1.3018        10499.93
      S2:      Singlet    2A         0.071463        1.9446        15684.21
      S3:      Singlet    3A         0.075928        2.0661        16664.37
      S4:      Singlet    4A         0.089383        2.4322        19617.36
      S5:      Singlet    5A         0.099178        2.6988        21767.12
      S6:      Singlet    6A         0.103997        2.8299        22824.67
      S7:      Singlet    7A         0.104938        2.8555        23031.15
      S8:      Singlet    8A         0.105217        2.8631        23092.52
      S9:      Singlet    9A         0.106333        2.8935        23337.33
     S10:      Singlet   10A         0.107347        2.9211        23560.01
 ---------------------------------------------------------------------------
      T1:      Triplet    1A         0.025277        0.6878         5547.68
      T2:      Triplet    2A         0.064819        1.7638        14226.12
      T3:      Triplet    3A         0.068070        1.8523        14939.73
      T4:      Triplet    4A         0.080955        2.2029        17767.53
      T5:      Triplet    5A         0.091311        2.4847        20040.41
      T6:      Triplet    6A         0.095870        2.6088        21041.04
      T7:      Triplet    7A         0.096747        2.6326        21233.58
      T8:      Triplet    8A         0.097861        2.6629        21477.99
      T9:      Triplet    9A         0.104119        2.8332        22851.53
     T10:      Triplet   10A         0.104605        2.8465        22958.24

 Spin-orbit couplings calculated as root mean squares: square root
 of (the sum of squares of spin-orbit coupling matrix elements of 
 all sublevels of the uncoupled states) in cm-1
                   T1        T2        T3        T4        T5        T6        T7        T8        T9       T10
                 -------   -------   -------   -------   -------   -------   -------   -------   -------   -------
 <S|Hso|T>
 ---------
      S1:           0.82      5.01      8.45     23.07      0.65      2.97      5.37      2.49      2.74      0.68
      S2:           6.94      0.08      4.81      1.87      1.03      1.55      2.60      6.12      0.52      1.82
      S3:           9.73      5.26      0.41      2.29      2.51     10.11     15.41      7.90      2.44      0.57
      S4:          26.65      1.75      0.59      0.87      5.04      4.85      7.78     20.10      0.99      5.87
      S5:           0.60      0.63      1.62      4.83      0.06      0.66      1.74      0.57      0.33      0.07
      S6:           4.44      2.68     10.05      6.07      2.20      0.22      0.27      0.79      0.18      1.63
      S7:           1.35      2.85      5.07      8.54      0.83      0.41      0.57      0.27      0.76      0.48
      S8:           2.62      0.01      4.72      1.63      0.36      0.02      0.59      1.33      0.23      0.18
      S9:           8.41      1.02      3.85      3.06      2.10      0.97      1.62      4.73      0.12      1.91
     S10:           0.72      2.34      2.72      7.28      0.03      2.16      3.07      1.40      1.00      0.34
 <T|Hso|T>
 ---------
      T1:           0.00      9.22     14.17     39.04      1.17      3.51      6.19      2.67      3.44      0.80
      T2:           9.22      0.00      7.94      2.94      1.08      2.26      3.49      8.51      0.66      2.41
      T3:          14.17      7.94      0.00      2.36      3.71     16.37     21.65     11.56      3.50      0.82
      T4:          39.04      2.94      2.36      0.00      7.95      7.87     10.73     29.26      1.34      8.74
      T5:           1.17      1.08      3.71      7.95      0.00      2.17      3.63      1.78      0.71      0.18
      T6:           3.51      2.26     16.37      7.87      2.17      0.00      0.47      1.25      0.70      1.72
      T7:           6.19      3.49     21.65     10.73      3.63      0.47      0.00      0.35      0.65      2.83
      T8:           2.67      8.51     11.56     29.26      1.78      1.25      0.35      0.00      2.40      0.62
      T9:           3.44      0.66      3.50      1.34      0.71      0.70      0.65      2.40      0.00      1.02
     T10:           0.80      2.41      0.82      8.74      0.18      1.72      2.83      0.62      1.02      0.00


 All Spin-Orbital Coupling Excitation Energies 

 no.     E/a.u.        E/eV      f           tau/s        Symmetry
 ------------------------------------------------------------------
   1:     0.02528      0.68782   0.2362E-09    206.3      A           
   2:     0.02528      0.68782   0.2416E-07    2.016      A           
   3:     0.02528      0.68782   0.5566E-08    8.752      A           
   4:     0.04784      1.30181   0.2188       0.6215E-07  A           
   5:     0.06482      1.76381   0.1896E-07   0.3908      A           
   6:     0.06482      1.76381   0.7551E-09    9.810      A           
   7:     0.06482      1.76381   0.5025E-06   0.1474E-01  A           
   8:     0.06807      1.85228   0.1396E-06   0.4810E-01  A           
   9:     0.06807      1.85229   0.3318E-09    20.25      A           
  10:     0.06807      1.85229   0.8652E-06   0.7764E-02  A           
  11:     0.07146      1.94460   0.2803E-02   0.2174E-05  A           
  12:     0.07593      2.06611   0.2216E-01   0.2436E-06  A           
  13:     0.08095      2.20288   0.8150E-07   0.5827E-01  A           
  14:     0.08095      2.20288   0.1559E-07   0.3045      A           
  15:     0.08095      2.20290   0.2833E-05   0.1677E-02  A           
  16:     0.08938      2.43221   0.8866E-03   0.4394E-05  A           
  17:     0.09131      2.48469   0.1031E-08    3.619      A           
  18:     0.09131      2.48469   0.2616E-07   0.1427      A           
  19:     0.09131      2.48470   0.1298E-06   0.2875E-01  A           
  20:     0.09587      2.60876   0.2292E-06   0.1477E-01  A           
  21:     0.09587      2.60876   0.9924E-08   0.3412      A           
  22:     0.09587      2.60876   0.1065E-07   0.3181      A           
  23:     0.09675      2.63264   0.2375E-06   0.1400E-01  A           
  24:     0.09675      2.63264   0.1013E-05   0.3282E-02  A           
  25:     0.09675      2.63264   0.2513E-07   0.1323      A           
  26:     0.09786      2.66295   0.4200E-06   0.7737E-02  A           
  27:     0.09786      2.66295   0.2368E-09    13.73      A           
  28:     0.09786      2.66296   0.1350E-06   0.2408E-01  A           
  29:     0.09918      2.69878   0.8040E-01   0.3935E-07  A           
  30:     0.10400      2.82990   0.6645E-02   0.4331E-06  A           
  31:     0.10412      2.83323   0.3034E-05   0.9461E-03  A           
  32:     0.10412      2.83323   0.1126E-07   0.2551      A           
  33:     0.10412      2.83323   0.3180E-06   0.9029E-02  A           
  34:     0.10461      2.84646   0.1343E-06   0.2118E-01  A           
  35:     0.10461      2.84646   0.7095E-05   0.4009E-03  A           
  36:     0.10461      2.84646   0.9409E-06   0.3023E-02  A           
  37:     0.10494      2.85550   0.1643       0.1720E-07  A           
  38:     0.10522      2.86311   0.3709E-01   0.7580E-07  A           
  39:     0.10633      2.89346   0.1834E-03   0.1501E-04  A           
  40:     0.10735      2.92107   0.4053E-01   0.6664E-07  A           

 tau: electric dipole radiative lifetime (in seconds)


 Normal termination of EXCITATION program part





 =======================================================================
 Electrostatic potential at the Nuclei due to electrons and other nuclei
 =======================================================================
  
         Atom                  Potential
         ----                  ---------
     1)   C                  14.76947519
     2)   C                  14.76947540
     3)   C                  14.71508748
     4)   C                  14.71508763
     5)   C                  14.75144772
     6)   C                  14.75144783
     7)   C                  14.75387598
     8)   C                  14.75387612
     9)   C                  14.76739963
    10)   C                  14.76739964
    11)   C                  14.76473746
    12)   C                  14.76473743
    13)   C                  14.70309770
    14)   C                  14.70309734
    15)   C                  14.71019362
    16)   C                  14.71019364
    17)   H                   1.05842145
    18)   H                   1.05842136
    19)   H                   1.06924309
    20)   H                   1.06924311
    21)   H                   1.08065636
    22)   H                   1.08065621
    23)   H                   1.08600320
    24)   H                   1.08600320
    25)   N                  18.31356486
    26)   N                  18.31356509
    27)   O                  22.42448754
    28)   O                  22.42448732
    29)   C                  14.70682897
    30)   C                  14.74639342
    31)   C                  14.75455870
    32)   C                  14.74801227
    33)   C                  14.75242816
    34)   C                  14.74458490
    35)   H                   1.04951778
    36)   H                   1.06378146
    37)   H                   1.06159424
    38)   H                   1.06724462
    39)   C                  14.53115462
    40)   F                  26.61018744
    41)   F                  26.60530731
    42)   F                  26.60758219
    43)   C                  14.70682887
    44)   C                  14.74639329
    45)   C                  14.75455844
    46)   C                  14.74801186
    47)   C                  14.75242790
    48)   C                  14.74458453
    49)   H                   1.04951765
    50)   H                   1.06378126
    51)   H                   1.06159391
    52)   H                   1.06724449
    53)   C                  14.53115436
    54)   F                  26.61018763
    55)   F                  26.60530713
    56)   F                  26.60758196
 Mulliken charges used for AMS results%charges...


    =====================
     CALCULATION RESULTS
    =====================

Energy (hartree)           -13.85946564


--------------
Atomic charges
--------------
  Index   Atom    Charge
      1      C   -0.1064
      2      C   -0.1064
      3      C    0.1934
      4      C    0.1934
      5      C    0.1673
      6      C    0.1673
      7      C    0.2061
      8      C    0.2061
      9      C    0.1557
     10      C    0.1557
     11      C    0.2141
     12      C    0.2141
     13      C    0.4679
     14      C    0.4679
     15      C    0.0887
     16      C    0.0887
     17      H   -0.1486
     18      H   -0.1486
     19      H   -0.1741
     20      H   -0.1741
     21      H   -0.1687
     22      H   -0.1687
     23      H   -0.1777
     24      H   -0.1777
     25      N   -0.3110
     26      N   -0.3110
     27      O   -0.5934
     28      O   -0.5934
     29      C    0.1396
     30      C    0.2160
     31      C    0.1961
     32      C    0.2377
     33      C    0.2370
     34      C   -0.1451
     35      H   -0.1593
     36      H   -0.1534
     37      H   -0.1776
     38      H   -0.1721
     39      C    1.1980
     40      F   -0.4077
     41      F   -0.4115
     42      F   -0.4110
     43      C    0.1396
     44      C    0.2160
     45      C    0.1961
     46      C    0.2377
     47      C    0.2370
     48      C   -0.1451
     49      H   -0.1593
     50      H   -0.1534
     51      H   -0.1776
     52      H   -0.1721
     53      C    1.1980
     54      F   -0.4077
     55      F   -0.4115
     56      F   -0.4110


Dipole moment vector    (Debye):    -0.00000206   -0.00000866    1.26642216
              magnitude (Debye):     1.26642216


AMS application finished. Exiting.
NORMAL TERMINATION
     Total cpu time:    4792.58
  Total system time:      31.22
 Total elapsed time:    5020.17
