13
 energy: -39.596896247772 xtb: 6.7.1 (edcfbbe)
C            1.73546538008831        4.94303654685535        0.84966825905158
W            0.15930613711911        0.48606007566823        0.11653122881684
C           -0.22889060905811       -1.37353165532847       -0.47813185841297
C           -0.72929434448316        0.46932418687661        1.89764988534781
C            0.94685310852205        0.51819982309692       -1.74924988480491
C            1.87313186783696       -0.09268416030580        0.97670499475569
C           -1.63417003278753        1.20501068361630       -0.41793741142851
O            2.11556972073636        5.96967104967691        1.12807967869818
O           -0.40627557748796       -2.42870775359415       -0.89274725683876
O           -1.43654085917141        0.40983149489513        2.78131863976097
O            1.21896827705345        0.17998692104914       -2.80485303545015
O            2.72159405819087       -0.56904493387707        1.55548031688438
O           -2.71249524909307        1.54420197198719       -0.49284096102332
