 argument  1 = n2.scf_chdens.nw
                                         
                                         


             Northwest Computational Chemistry Package (NWChem) 7.2.2
             --------------------------------------------------------


                    Environmental Molecular Sciences Laboratory
                       Pacific Northwest National Laboratory
                                Richland, WA 99352

                              Copyright (c) 1994-2022
                       Pacific Northwest National Laboratory
                            Battelle Memorial Institute

             NWChem is an open-source computational chemistry package
                        distributed under the terms of the
                      Educational Community License (ECL) 2.0
             A copy of the license is included with this distribution
                              in the LICENSE.TXT file

                                  ACKNOWLEDGMENT
                                  --------------

            This software and its documentation were developed at the
            EMSL at Pacific Northwest National Laboratory, a multiprogram
            national laboratory, operated for the U.S. Department of Energy
            by Battelle under Contract Number DE-AC05-76RL01830. Support
            for this work was provided by the Department of Energy Office
            of Biological and Environmental Research, Office of Basic
            Energy Sciences, and the Office of Advanced Scientific Computing.


           Job information
           ---------------

    hostname        = MIRO
    program         = nwchem
    date            = Sat Aug 23 15:44:43 2025

    compiled        = Mon_Apr_01_11:12:32_2024
    source          = /build/nwchem-qbYJLs/nwchem-7.2.2/build-openmpi
    nwchem branch   = 7.2.2
    nwchem revision = N/A
    ga revision     = N/A
    use scalapack   = T
    input           = n2.scf_chdens.nw
    prefix          = n2.
    data base       = ./n2.db
    status          = startup
    nproc           =        2
    time left       =     -1s



           Memory information
           ------------------

    heap     =   26214396 doubles =    200.0 Mbytes
    stack    =   26214401 doubles =    200.0 Mbytes
    global   =   52428800 doubles =    400.0 Mbytes (distinct from heap & stack)
    total    =  104857597 doubles =    800.0 Mbytes
    verify   = yes
    hardfail = no 


           Directory information
           ---------------------

  0 permanent = .
  0 scratch   = .




                                NWChem Input Module
                                -------------------



 Scaling coordinates for geometry "geometry" by  1.889725989
 (inverse scale =  0.529177249)

 ORDER OF PRIMARY AXIS IS BEING SET TO 4
 D4H symmetry detected

          ------
          auto-z
          ------
  no constraints, skipping    0.0000000000000000     
  no constraints, skipping    0.0000000000000000     


                             Geometry "geometry" -> ""
                             -------------------------

 Output coordinates in angstroms (scale by  1.889725989 to convert to a.u.)

  No.       Tag          Charge          X              Y              Z
 ---- ---------------- ---------- -------------- -------------- --------------
    1 n                    7.0000     0.00000000     0.00000000     0.53879155
    2 n                    7.0000     0.00000000     0.00000000    -0.53879155

      Atomic Mass 
      ----------- 

      n                 14.003070


 Effective nuclear repulsion energy (a.u.)      24.0628172444

            Nuclear Dipole moment (a.u.) 
            ----------------------------
        X                 Y               Z
 ---------------- ---------------- ----------------
     0.0000000000     0.0000000000     0.0000000000

      Symmetry information
      --------------------

 Group name             D4h       
 Group number             28
 Group order              16
 No. of unique centers     1

      Symmetry unique atoms

     1



                                Z-matrix (autoz)
                                -------- 

 Units are Angstrom for bonds and degrees for angles

      Type          Name      I     J     K     L     M      Value
      ----------- --------  ----- ----- ----- ----- ----- ----------
    1 Stretch                  1     2                       1.07758


            XYZ format geometry
            -------------------
     2
 geometry
 n                     0.00000000     0.00000000     0.53879155
 n                     0.00000000     0.00000000    -0.53879155

 ==============================================================================
                                internuclear distances
 ------------------------------------------------------------------------------
       center one      |      center two      | atomic units |  angstroms
 ------------------------------------------------------------------------------
    2 n                |   1 n                |     2.03634  |     1.07758
 ------------------------------------------------------------------------------
                         number of included internuclear distances:          1
 ==============================================================================



                      Basis "ao basis" -> "" (cartesian)
                      -----
  n (Nitrogen)
  ------------
            Exponent  Coefficients 
       -------------- ---------------------------------------------------------
  1 S  9.04600000E+03  0.000700
  1 S  1.35700000E+03  0.005389
  1 S  3.09300000E+02  0.027406
  1 S  8.77300000E+01  0.103207
  1 S  2.85600000E+01  0.278723
  1 S  1.02100000E+01  0.448540
  1 S  3.83800000E+00  0.278238
  1 S  7.46600000E-01  0.015440

  2 S  9.04600000E+03 -0.000153
  2 S  1.35700000E+03 -0.001208
  2 S  3.09300000E+02 -0.005992
  2 S  8.77300000E+01 -0.024544
  2 S  2.85600000E+01 -0.067459
  2 S  1.02100000E+01 -0.158078
  2 S  3.83800000E+00 -0.121831
  2 S  7.46600000E-01  0.549003

  3 S  2.24800000E-01  1.000000

  4 P  1.35500000E+01  0.039919
  4 P  2.91700000E+00  0.217169
  4 P  7.97300000E-01  0.510319

  5 P  2.18500000E-01  1.000000

  6 D  8.17000000E-01  1.000000



 Summary of "ao basis" -> "" (cartesian)
 ------------------------------------------------------------------------------
       Tag                 Description            Shells   Functions and Types
 ---------------- ------------------------------  ------  ---------------------
 n                          cc-pvdz                  6       15   3s2p1d


                                 NWChem SCF Module
                                 -----------------



  ao basis        = "ao basis"
  functions       =    30
  atoms           =     2
  closed shells   =     7
  open shells     =     0
  charge          =   0.00
  wavefunction    = RHF 
  input vectors   = atomic
  output vectors  = ./n2.movecs
  use symmetry    = T
  symmetry adapt  = T


 Summary of "ao basis" -> "ao basis" (cartesian)
 ------------------------------------------------------------------------------
       Tag                 Description            Shells   Functions and Types
 ---------------- ------------------------------  ------  ---------------------
 n                          cc-pvdz                  6       15   3s2p1d


      Symmetry analysis of basis
      --------------------------

        a1g         7
        a1u         0
        a2g         0
        a2u         7
        b1g         1
        b1u         1
        b2g         1
        b2u         1
        eg          6
        eu          6


 Forming initial guess at       0.0s


      Superposition of Atomic Density Guess
      -------------------------------------

 Sum of atomic energies:        -108.60004629

      Non-variational initial energy
      ------------------------------

 Total energy =    -109.181382
 1-e energy   =    -194.796865
 2-e energy   =      61.552665
 HOMO         =      -0.422231
 LUMO         =       0.043667


      Symmetry analysis of molecular orbitals - initial
      -------------------------------------------------


 !! scf_movecs_sym_adapt:    4 vectors were symmetry contaminated

  Symmetry fudging

 !! scf_movecs_sym_adapt:    4 vectors were symmetry contaminated

  Numbering of irreducible representations: 

     1 a1g         2 a1u         3 a2g         4 a2u         5 b1g     
     6 b1u         7 b2g         8 b2u         9 eg         10 eu      

  Orbital symmetries:

     1 a1g         2 a2u         3 a1g         4 a2u         5 eu      
     6 eu          7 a1g         8 eg          9 eg         10 a2u     
    11 a1g        12 eu         13 eu         14 a1g        15 eg      
    16 eg         17 a2u     


 Starting SCF solution at       0.1s



 ----------------------------------------------
         Quadratically convergent ROHF

 Convergence threshold     :          1.000E-04
 Maximum no. of iterations :           30
 Final Fock-matrix accuracy:          1.000E-07
 ----------------------------------------------


 #quartets = 2.094D+03 #integrals = 2.324D+04 #direct =  0.0% #cached =100.0%


 Integral file          = ./n2.aoints.0
 Record size in doubles =  65536        No. of integs per rec  =  43688
 Max. records in memory =      3        Max. records in file   = 879644
 No. of bits per label  =      8        No. of bits per value  =     64


File balance: exchanges=     0  moved=     0  time=   0.0


              iter       energy          gnorm     gmax       time
             ----- ------------------- --------- --------- --------
                 1     -108.9448513411  4.18D-01  1.88D-01      0.1
                 2     -108.9554437066  1.00D-01  4.86D-02      0.1
                 3     -108.9561229787  1.58D-03  9.45D-04      0.1
                 4     -108.9561231166  6.08D-06  4.21D-06      0.1


       Final RHF  results 
       ------------------ 

         Total SCF energy =   -108.956123116583
      One-electron energy =   -195.085335620833
      Two-electron energy =     62.066395259821
 Nuclear repulsion energy =     24.062817244429

        Time for solution =      0.0s



       Symmetry analysis of molecular orbitals - final
       -----------------------------------------------

  Numbering of irreducible representations: 

     1 a1g         2 a1u         3 a2g         4 a2u         5 b1g     
     6 b1u         7 b2g         8 b2u         9 eg         10 eu      

  Orbital symmetries:

     1 a1g         2 a2u         3 a1g         4 a2u         5 a1g     
     6 eu          7 eu          8 eg          9 eg         10 a2u     
    11 a1g        12 eu         13 eu         14 a1g        15 eg      
    16 eg         17 a2u     

             Final eigenvalues
             -----------------

              1      
    1  -15.6814
    2  -15.6775
    3   -1.4865
    4   -0.7680
    5   -0.6285
    6   -0.6172
    7   -0.6172
    8    0.1860
    9    0.1860
   10    0.5990
   11    0.7980
   12    0.8659
   13    0.8659
   14    0.8823
   15    1.0554
   16    1.0554
   17    1.1346

                       ROHF Final Molecular Orbital Analysis
                       -------------------------------------

 Vector    2  Occ=2.000000D+00  E=-1.567750D+01  Symmetry=a2u
              MO Center= -4.7D-21,  8.7D-21, -4.4D-17, r^2= 3.1D-01
   Bfn.  Coefficient  Atom+Function         Bfn.  Coefficient  Atom+Function  
  ----- ------------  ---------------      ----- ------------  ---------------
     1      0.708337  1 N  s                 16     -0.708337  2 N  s          

 Vector    3  Occ=2.000000D+00  E=-1.486456D+00  Symmetry=a1g
              MO Center= -1.5D-36,  1.1D-37,  2.4D-17, r^2= 4.3D-01
   Bfn.  Coefficient  Atom+Function         Bfn.  Coefficient  Atom+Function  
  ----- ------------  ---------------      ----- ------------  ---------------
     2      0.331384  1 N  s                 17      0.331384  2 N  s          
     6     -0.222268  1 N  pz                21      0.222268  2 N  pz         
     3      0.183742  1 N  s                 18      0.183742  2 N  s          

 Vector    4  Occ=2.000000D+00  E=-7.680312D-01  Symmetry=a2u
              MO Center=  3.3D-18, -5.2D-18,  3.1D-17, r^2= 1.3D+00
   Bfn.  Coefficient  Atom+Function         Bfn.  Coefficient  Atom+Function  
  ----- ------------  ---------------      ----- ------------  ---------------
     3      0.434583  1 N  s                 18     -0.434583  2 N  s          
     2      0.324062  1 N  s                 17     -0.324062  2 N  s          
     6      0.220831  1 N  pz                21      0.220831  2 N  pz         

 Vector    5  Occ=2.000000D+00  E=-6.285062D-01  Symmetry=a1g
              MO Center=  7.8D-33,  4.5D-34, -1.3D-16, r^2= 1.2D+00
   Bfn.  Coefficient  Atom+Function         Bfn.  Coefficient  Atom+Function  
  ----- ------------  ---------------      ----- ------------  ---------------
     6      0.453089  1 N  pz                21     -0.453089  2 N  pz         
     3      0.345356  1 N  s                 18      0.345356  2 N  s          
     9      0.209617  1 N  pz                24     -0.209617  2 N  pz         

 Vector    6  Occ=2.000000D+00  E=-6.172011D-01  Symmetry=eu
              MO Center=  1.0D-17, -2.2D-17,  8.7D-18, r^2= 8.9D-01
   Bfn.  Coefficient  Atom+Function         Bfn.  Coefficient  Atom+Function  
  ----- ------------  ---------------      ----- ------------  ---------------
     5      0.380724  1 N  py                20      0.380724  2 N  py         
     8      0.224299  1 N  py                23      0.224299  2 N  py         
     4     -0.195907  1 N  px                19     -0.195907  2 N  px         

 Vector    7  Occ=2.000000D+00  E=-6.172011D-01  Symmetry=eu
              MO Center= -3.0D-17, -1.7D-17, -6.5D-19, r^2= 8.9D-01
   Bfn.  Coefficient  Atom+Function         Bfn.  Coefficient  Atom+Function  
  ----- ------------  ---------------      ----- ------------  ---------------
     4      0.380724  1 N  px                19      0.380724  2 N  px         
     7      0.224299  1 N  px                22      0.224299  2 N  px         
     5      0.195907  1 N  py                20      0.195907  2 N  py         

 Vector    8  Occ=0.000000D+00  E= 1.859870D-01  Symmetry=eg
              MO Center=  3.8D-17, -5.1D-17, -1.6D-16, r^2= 1.4D+00
   Bfn.  Coefficient  Atom+Function         Bfn.  Coefficient  Atom+Function  
  ----- ------------  ---------------      ----- ------------  ---------------
     8      0.649935  1 N  py                23     -0.649935  2 N  py         
     5      0.397503  1 N  py                20     -0.397503  2 N  py         
     7     -0.246943  1 N  px                22      0.246943  2 N  px         
     4     -0.151031  1 N  px                19      0.151031  2 N  px         

 Vector    9  Occ=0.000000D+00  E= 1.859870D-01  Symmetry=eg
              MO Center= -5.9D-18, -1.3D-17,  9.2D-19, r^2= 1.4D+00
   Bfn.  Coefficient  Atom+Function         Bfn.  Coefficient  Atom+Function  
  ----- ------------  ---------------      ----- ------------  ---------------
     7      0.649935  1 N  px                22     -0.649935  2 N  px         
     4      0.397503  1 N  px                19     -0.397503  2 N  px         
     8      0.246943  1 N  py                23     -0.246943  2 N  py         
     5      0.151031  1 N  py                20     -0.151031  2 N  py         

 Vector   10  Occ=0.000000D+00  E= 5.989657D-01  Symmetry=a2u
              MO Center= -1.6D-18,  4.9D-18,  2.2D-15, r^2= 3.3D+00
   Bfn.  Coefficient  Atom+Function         Bfn.  Coefficient  Atom+Function  
  ----- ------------  ---------------      ----- ------------  ---------------
     3      4.049260  1 N  s                 18     -4.049260  2 N  s          
     9     -2.679456  1 N  pz                24     -2.679456  2 N  pz         
     2      0.176259  1 N  s                 17     -0.176259  2 N  s          

 Vector   11  Occ=0.000000D+00  E= 7.980336D-01  Symmetry=a1g
              MO Center=  4.7D-19, -8.0D-19,  1.7D-16, r^2= 1.8D+00
   Bfn.  Coefficient  Atom+Function         Bfn.  Coefficient  Atom+Function  
  ----- ------------  ---------------      ----- ------------  ---------------
     9      0.871304  1 N  pz                24     -0.871304  2 N  pz         
     2      0.522503  1 N  s                 17      0.522503  2 N  s          
     3     -0.421146  1 N  s                 18     -0.421146  2 N  s          
     6     -0.336772  1 N  pz                21      0.336772  2 N  pz         
     1      0.272862  1 N  s                 16      0.272862  2 N  s          

 Vector   12  Occ=0.000000D+00  E= 8.659339D-01  Symmetry=eu
              MO Center= -1.8D-14, -3.0D-16, -2.1D-15, r^2= 1.7D+00
   Bfn.  Coefficient  Atom+Function         Bfn.  Coefficient  Atom+Function  
  ----- ------------  ---------------      ----- ------------  ---------------
     4      0.635637  1 N  px                19      0.635637  2 N  px         
     7     -0.619209  1 N  px                22     -0.619209  2 N  px         
    12     -0.179942  1 N  dxz               27      0.179942  2 N  dxz        

 Vector   13  Occ=0.000000D+00  E= 8.659339D-01  Symmetry=eu
              MO Center=  8.5D-18, -7.2D-16,  1.5D-16, r^2= 1.7D+00
   Bfn.  Coefficient  Atom+Function         Bfn.  Coefficient  Atom+Function  
  ----- ------------  ---------------      ----- ------------  ---------------
     5      0.635637  1 N  py                20      0.635637  2 N  py         
     8     -0.619209  1 N  py                23     -0.619209  2 N  py         
    14     -0.179942  1 N  dyz               29      0.179942  2 N  dyz        

 Vector   14  Occ=0.000000D+00  E= 8.822551D-01  Symmetry=a1g
              MO Center=  1.8D-14,  1.0D-15,  2.4D-16, r^2= 2.4D+00
   Bfn.  Coefficient  Atom+Function         Bfn.  Coefficient  Atom+Function  
  ----- ------------  ---------------      ----- ------------  ---------------
     3      1.079925  1 N  s                 18      1.079925  2 N  s          
     2     -0.709332  1 N  s                 17     -0.709332  2 N  s          
     9      0.447009  1 N  pz                24     -0.447009  2 N  pz         
     6     -0.408309  1 N  pz                21      0.408309  2 N  pz         
     1     -0.324251  1 N  s                 16     -0.324251  2 N  s          

 Vector   15  Occ=0.000000D+00  E= 1.055369D+00  Symmetry=eg
              MO Center=  1.7D-16, -4.6D-16,  3.5D-16, r^2= 1.9D+00
   Bfn.  Coefficient  Atom+Function         Bfn.  Coefficient  Atom+Function  
  ----- ------------  ---------------      ----- ------------  ---------------
     8      1.102965  1 N  py                23     -1.102965  2 N  py         
     5     -0.691811  1 N  py                20      0.691811  2 N  py         
     7     -0.391658  1 N  px                22      0.391658  2 N  px         
     4      0.245659  1 N  px                19     -0.245659  2 N  px         

 Vector   16  Occ=0.000000D+00  E= 1.055369D+00  Symmetry=eg
              MO Center=  9.8D-19,  3.5D-19,  1.6D-15, r^2= 1.9D+00
   Bfn.  Coefficient  Atom+Function         Bfn.  Coefficient  Atom+Function  
  ----- ------------  ---------------      ----- ------------  ---------------
     7      1.102965  1 N  px                22     -1.102965  2 N  px         
     4     -0.691811  1 N  px                19      0.691811  2 N  px         
     8      0.391658  1 N  py                23     -0.391658  2 N  py         
     5     -0.245659  1 N  py                20      0.245659  2 N  py         

 Vector   17  Occ=0.000000D+00  E= 1.134646D+00  Symmetry=a2u
              MO Center= -1.9D-16,  4.9D-16,  8.3D-17, r^2= 1.3D+00
   Bfn.  Coefficient  Atom+Function         Bfn.  Coefficient  Atom+Function  
  ----- ------------  ---------------      ----- ------------  ---------------
     3      2.202794  1 N  s                 18     -2.202794  2 N  s          
     6     -0.660920  1 N  pz                21     -0.660920  2 N  pz         
     9     -0.461433  1 N  pz                24     -0.461433  2 N  pz         
    15     -0.380757  1 N  dzz               30      0.380757  2 N  dzz        
     2     -0.375824  1 N  s                 17      0.375824  2 N  s          


 center of mass
 --------------
 x =   0.00000000 y =   0.00000000 z =   0.00000000

 moments of inertia (a.u.)
 ------------------
          29.033037760134           0.000000000000           0.000000000000
           0.000000000000          29.033037760134           0.000000000000
           0.000000000000           0.000000000000           0.000000000000

  Mulliken analysis of the total density
  --------------------------------------

    Atom       Charge   Shell Charges
 -----------   ------   -------------------------------------------------------
    1 N    7     7.00   2.00  0.85  0.90  2.15  1.04  0.06
    2 N    7     7.00   2.00  0.85  0.90  2.15  1.04  0.06

       Multipole analysis of the density wrt the origin
       ------------------------------------------------

     L   x y z        total         open         nuclear
     -   - - -        -----         ----         -------
     0   0 0 0     -0.000000      0.000000     14.000000

     1   1 0 0      0.000000      0.000000      0.000000
     1   0 1 0      0.000000      0.000000      0.000000
     1   0 0 1      0.000000      0.000000      0.000000

     2   2 0 0     -7.496881      0.000000      0.000000
     2   1 1 0      0.000000      0.000000      0.000000
     2   1 0 1      0.000000      0.000000      0.000000
     2   0 2 0     -7.496881      0.000000      0.000000
     2   0 1 1      0.000000      0.000000      0.000000
     2   0 0 2     -8.649493      0.000000     14.513336


 Parallel integral file used       2 records with       0 large values


 Task  times  cpu:        0.1s     wall:        0.1s


                                NWChem Input Module
                                -------------------



  Limits (a.u.) specified for the density plot:
  ---------------------------------------------

        From        To      # of spacings
X    -5.66918     5.66918        10
Y    -5.66918     5.66918        10
Z    -5.66918     5.66918        10

  Total number of grid points =                  1331

  1-st set of MOs      : n2.movecs
  Output is written to : chargedensity.cube
  Type of picture      : CHARGE DENSITY
  Format used          : Gaussian9x Cube
  Spin                 : TOTAL   
  The density is computed using all orbitals
  The density is computed on the specified grid
  Grid minima (bohr)  -5.669180 -5.669180 -5.669180
  Grid maxima (bohr)   5.669180  5.669180  5.669180
  max element    41.440006815649966     

  Tol_rho              =                    0.10000E-39
  Sum of elements      =                       88.48768
  Integration volume   =                        1.45764
  Integrated Charge    =                      128.98328

 Task  times  cpu:        0.0s     wall:        0.0s


                                NWChem Input Module
                                -------------------


 Summary of allocated global arrays
-----------------------------------
  No active global arrays


MA_summarize_allocated_blocks: starting scan ...
MA_summarize_allocated_blocks: scan completed: 0 heap blocks, 0 stack blocks
MA usage statistics:

	allocation statistics:
					      heap	     stack
					      ----	     -----
	current number of blocks	         0	         0
	maximum number of blocks	        18	        26
	current total bytes		         0	         0
	maximum total bytes		   1585568	  22509736
	maximum total K-bytes		      1586	     22510
	maximum total M-bytes		         2	        23


                                     CITATION
                                     --------
                Please cite the following reference when publishing
                           results obtained with NWChem:

          E. Apra, E. J. Bylaska, W. A. de Jong, N. Govind, K. Kowalski,
       T. P. Straatsma, M. Valiev, H. J. J. van Dam, Y. Alexeev, J. Anchell,
       V. Anisimov, F. W. Aquino, R. Atta-Fynn, J. Autschbach, N. P. Bauman,
     J. C. Becca, D. E. Bernholdt, K. Bhaskaran-Nair, S. Bogatko, P. Borowski,
         J. Boschen, J. Brabec, A. Bruner, E. Cauet, Y. Chen, G. N. Chuev,
      C. J. Cramer, J. Daily, M. J. O. Deegan, T. H. Dunning Jr., M. Dupuis,
   K. G. Dyall, G. I. Fann, S. A. Fischer, A. Fonari, H. Fruchtl, L. Gagliardi,
      J. Garza, N. Gawande, S. Ghosh, K. Glaesemann, A. W. Gotz, J. Hammond,
       V. Helms, E. D. Hermes, K. Hirao, S. Hirata, M. Jacquelin, L. Jensen,
   B. G. Johnson, H. Jonsson, R. A. Kendall, M. Klemm, R. Kobayashi, V. Konkov,
      S. Krishnamoorthy, M. Krishnan, Z. Lin, R. D. Lins, R. J. Littlefield,
      A. J. Logsdail, K. Lopata, W. Ma, A. V. Marenich, J. Martin del Campo,
   D. Mejia-Rodriguez, J. E. Moore, J. M. Mullin, T. Nakajima, D. R. Nascimento,
    J. A. Nichols, P. J. Nichols, J. Nieplocha, A. Otero-de-la-Roza, B. Palmer,
    A. Panyala, T. Pirojsirikul, B. Peng, R. Peverati, J. Pittner, L. Pollack,
   R. M. Richard, P. Sadayappan, G. C. Schatz, W. A. Shelton, D. W. Silverstein,
   D. M. A. Smith, T. A. Soares, D. Song, M. Swart, H. L. Taylor, G. S. Thomas,
            V. Tipparaju, D. G. Truhlar, K. Tsemekhman, T. Van Voorhis,
      A. Vazquez-Mayagoitia, P. Verma, O. Villa, A. Vishnu, K. D. Vogiatzis,
        D. Wang, J. H. Weare, M. J. Williamson, T. L. Windus, K. Wolinski,
        A. T. Wong, Q. Wu, C. Yang, Q. Yu, M. Zacharias, Z. Zhang, Y. Zhao,
                                and R. J. Harrison
                        "NWChem: Past, present, and future
                         J. Chem. Phys. 152, 184102 (2020)
                               doi:10.1063/5.0004997

                                      AUTHORS
                                      -------
  E. Apra, E. J. Bylaska, N. Govind, K. Kowalski, M. Valiev, D. Mejia-Rodriguez,
       A. Kunitsa, N. P. Bauman, A. Panyala, W. A. de Jong, T. P. Straatsma,
   H. J. J. van Dam, D. Wang, T. L. Windus, J. Hammond, J. Autschbach, A. Woods,
    K. Bhaskaran-Nair, J. Brabec, K. Lopata, S. A. Fischer, S. Krishnamoorthy,
     M. Jacquelin, W. Ma, M. Klemm, O. Villa, Y. Chen, V. Anisimov, F. Aquino,
     S. Hirata, M. T. Hackler, E. Hermes, L. Jensen, J. E. Moore, J. C. Becca,
      V. Konjkov, T. Risthaus, M. Malagoli, A. Marenich, A. Otero-de-la-Roza,
        J. Mullin, P. Nichols, R. Peverati, J. Pittner, Y. Zhao, P.-D. Fan,
        A. Fonari, M. J. Williamson, R. J. Harrison, J. R. Rehr, M. Dupuis,
     D. Silverstein, D. M. A. Smith, J. Nieplocha, V. Tipparaju, M. Krishnan,
     B. E. Van Kuiken, A. Vazquez-Mayagoitia, M. Swart, Q. Wu, T. Van Voorhis,
     A. A. Auer, M. Nooijen, L. D. Crosby, E. Brown, G. Cisneros, G. I. Fann,
   H. Fruchtl, J. Garza, K. Hirao, R. A. Kendall, J. A. Nichols, K. Tsemekhman,
    K. Wolinski, J. Anchell, D. E. Bernholdt, P. Borowski, T. Clark, D. Clerc,
   H. Dachsel, M. J. O. Deegan, K. Dyall, D. Elwood, E. Glendening, M. Gutowski,
   A. C. Hess, J. Jaffe, B. G. Johnson, J. Ju, R. Kobayashi, R. Kutteh, Z. Lin,
   R. Littlefield, X. Long, B. Meng, T. Nakajima, S. Niu, L. Pollack, M. Rosing,
   K. Glaesemann, G. Sandrone, M. Stave, H. Taylor, G. Thomas, J. H. van Lenthe,
                               A. T. Wong, Z. Zhang.

 Total times  cpu:        0.1s     wall:        0.2s
