2
 energy: -6.121850241824 gnorm: 0.000140178733 xtb: 6.7.1 (edcfbbe)
O           -0.64462794209922        0.00000337526269        0.00000225016723
C            0.48273435992102       -0.00000252759021       -0.00000168505423
