
     Program PWSCF v.7.4.1 starts on 25May2025 at  7:40: 6 
        Git branch: develop
        Last git commit: 95bc91b9c3ff25f565697dd77c0850e0757537c6
        Last git commit date: Sun May 11 00:26:41 2025 +0000
        Last git commit subject: Merge branch 'print-cmake-flags' into 'develop'

     This program is part of the open-source Quantum ESPRESSO suite
     for quantum simulation of materials; please cite
         "P. Giannozzi et al., J. Phys.:Condens. Matter 21 395502 (2009);
         "P. Giannozzi et al., J. Phys.:Condens. Matter 29 465901 (2017);
         "P. Giannozzi et al., J. Chem. Phys. 152 154105 (2020);
          URL http://www.quantum-espresso.org", 
     in publications or presentations arising from this work. More details at
     http://www.quantum-espresso.org/quote

     Parallel version (MPI), running on   120 processors

     MPI processes distributed on     4 nodes
     1385688 MiB available memory on the printing compute node when the environment starts
 
     Waiting for input...
     Reading input from standard input
Warning: card &CELL ignored

     Current dimensions of program PWSCF are:
     Max number of different atomic species (ntypx) = 10
     Max number of k-points (npk) =  40000
     Max angular momentum in pseudopotentials (lmaxx) =  4
 
     K-points division:     npool     =       4
     R & G space division:  proc/nbgrp/npool/nimage =      30
     Subspace diagonalization in iterative solution of the eigenvalue problem:
     one sub-group per band group will be used
     custom distributed-memory algorithm (size of sub-group:  5*  5 procs)

 
     Parallelization info
     --------------------
     sticks:   dense  smooth     PW     G-vecs:    dense   smooth      PW
     Min         599     599    155                75085    75085    9925
     Max         600     600    156                75088    75088    9930
     Sum       17979   17979   4657              2252595  2252595  297815
 
     Using Slab Decomposition
 


     bravais-lattice index     =            0
     lattice parameter (alat)  =      24.6592  a.u.
     unit-cell volume          =   23302.3946 (a.u.)^3
     number of atoms/cell      =           55
     number of atomic types    =            2
     number of electrons       =       886.00
     number of Kohn-Sham states=         1064
     kinetic-energy cutoff     =      80.0000  Ry
     charge density cutoff     =     320.0000  Ry
     scf convergence threshold =      1.0E-09
     mixing beta               =       0.2000
     number of iterations used =            8  plain     mixing
     energy convergence thresh.=      1.0E-08
     force convergence thresh. =      1.0E-04
     Exchange-correlation= PBE
                           (   1   4   3   4   0   0   0)
     nstep                     =          250

     Non magnetic calculation with spin-orbit


     celldm(1)=  24.659173  celldm(2)=   0.000000  celldm(3)=   0.000000
     celldm(4)=   0.000000  celldm(5)=   0.000000  celldm(6)=   0.000000

     crystal axes: (cart. coord. in units of alat)
               a(1) = (   1.000000   0.000000   0.000000 )  
               a(2) = (   0.000000   1.159736   0.000000 )  
               a(3) = (   0.000000   0.000000   1.340003 )  

     reciprocal axes: (cart. coord. in units 2 pi/alat)
               b(1) = (  1.000000 -0.000000  0.000000 )  
               b(2) = ( -0.000000  0.862265  0.000000 )  
               b(3) = (  0.000000  0.000000  0.746267 )  


     PseudoPot. # 1 for Se read from file:
     ./Se_r.upf
     MD5 check sum: cb2cefba1335ec1a0ef320de5a6fd81a
     Pseudo is Norm-conserving + core correction, Zval = 16.0
     Generated using ONCVPSP code by D. R. Hamann
     Using radial grid of 1214 points, 10 beta functions with: 
                l(1) =   0
                l(2) =   0
                l(3) =   1
                l(4) =   1
                l(5) =   1
                l(6) =   1
                l(7) =   2
                l(8) =   2
                l(9) =   2
               l(10) =   2

     PseudoPot. # 2 for Fl read from file:
     ./Fl-6spd_r.upf
     MD5 check sum: b85b9b71a88d70a023db0b659bf16840
     Pseudo is Norm-conserving + core correction, Zval = 22.0
     Generated using ONCVPSP code by D. R. Hamann
     Using radial grid of 2000 points, 12 beta functions with: 
                l(1) =   0
                l(2) =   0
                l(3) =   1
                l(4) =   1
                l(5) =   1
                l(6) =   1
                l(7) =   2
                l(8) =   2
                l(9) =   2
               l(10) =   2
               l(11) =   3
               l(12) =   3

     atomic species   valence    mass     pseudopotential
     Se               16.00    78.96000     Se( 1.00)
     Fl               22.00   289.00000     Fl( 1.00)

     No symmetry found


                                    s                        frac. trans.

      isym =  1     identity                                     

 cryst.   s( 1) = (     1          0          0      )
                  (     0          1          0      )
                  (     0          0          1      )

 cart.    s( 1) = (  1.0000000  0.0000000  0.0000000 )
                  (  0.0000000  1.0000000  0.0000000 )
                  (  0.0000000  0.0000000  1.0000000 )


   Cartesian axes

     site n.     atom                  positions (alat units)
         1        Se     tau(   1) = (   0.1265139   0.1290319   0.2899348  )
         2        Se     tau(   2) = (   0.2973158   0.1280496   0.5687483  )
         3        Se     tau(   3) = (   0.2424917   0.2574301   0.2214487  )
         4        Se     tau(   4) = (   0.0760817   0.2584016   0.5063187  )
         5        Se     tau(   5) = (   0.1310203   0.0010567   0.1588305  )
         6        Se     tau(   6) = (   0.2921905   0.0002726   0.4375454  )
         7        Se     tau(   7) = (   0.4598471   0.1290321   0.2899346  )
         8        Se     tau(   8) = (   0.6299803   0.1283228   0.5689520  )
         9        Se     tau(   9) = (   0.5758247   0.2574302   0.2214482  )
        10        Se     tau(  10) = (   0.4098437   0.2575206   0.5053950  )
        11        Se     tau(  11) = (   0.4643531   0.0010568   0.1588304  )
        12        Se     tau(  12) = (   0.6242380   0.0085819   0.4313932  )
        13        Se     tau(  13) = (   0.7931807   0.1290319   0.2899341  )
        14        Se     tau(  14) = (   0.9656268   0.1276518   0.5688908  )
        15        Se     tau(  15) = (   0.9091586   0.2574301   0.2214482  )
        16        Se     tau(  16) = (   0.7458318   0.2524867   0.5046476  )
        17        Se     tau(  17) = (   0.7976871   0.0010567   0.1588299  )
        18        Se     tau(  18) = (   0.9625903   0.0016803   0.4353056  )
        19        Se     tau(  19) = (   0.1264983   0.5155936   0.2899296  )
        20        Se     tau(  20) = (   0.2969726   0.5136271   0.5681790  )
        21        Se     tau(  21) = (   0.2424688   0.6440249   0.2214632  )
        22        Se     tau(  22) = (   0.0752292   0.6448320   0.5058441  )
        23        Se     tau(  23) = (   0.1310206   0.3876536   0.1587981  )
        24        Se     tau(  24) = (   0.2934719   0.3854065   0.4368159  )
        25        Se     tau(  25) = (   0.4598315   0.5155937   0.2899294  )
        26        Se     tau(  26) = (   0.6462999   0.5109060   0.5402579  )
        27        Se     tau(  27) = (   0.5758018   0.6440250   0.2214627  )
        28        Se     tau(  28) = (   0.4061699   0.6436013   0.5027792  )
        29        Se     tau(  29) = (   0.4643534   0.3876537   0.1587979  )
        30        Se     tau(  30) = (   0.6278084   0.3699494   0.4224306  )
        31        Se     tau(  31) = (   0.7931651   0.5155936   0.2899289  )
        32        Se     tau(  32) = (   0.9632030   0.5139081   0.5666913  )
        33        Se     tau(  33) = (   0.9091357   0.6440249   0.2214627  )
        34        Se     tau(  34) = (   0.7529417   0.6375283   0.4642193  )
        35        Se     tau(  35) = (   0.7976875   0.3876535   0.1587975  )
        36        Se     tau(  36) = (   0.9602072   0.3856663   0.4355035  )
        37        Se     tau(  37) = (   0.1264959   0.9021877   0.2899756  )
        38        Se     tau(  38) = (   0.2975291   0.9016391   0.5683027  )
        39        Se     tau(  39) = (   0.2424890   1.0305767   0.2214989  )
        40        Se     tau(  40) = (   0.0756686   1.0312589   0.5055182  )
        41        Se     tau(  41) = (   0.1310011   0.7742540   0.1588314  )
        42        Se     tau(  42) = (   0.2909525   0.7738330   0.4363150  )
        43        Se     tau(  43) = (   0.4598291   0.9021878   0.2899754  )
        44        Se     tau(  44) = (   0.6377429   0.9105047   0.5432327  )
        45        Se     tau(  45) = (   0.5758220   1.0305769   0.2214984  )
        46        Se     tau(  46) = (   0.4092338   1.0316718   0.5054364  )
        47        Se     tau(  47) = (   0.4643340   0.7742541   0.1588312  )
        48        Se     tau(  48) = (   0.6372967   0.7735268   0.4122773  )
        49        Se     tau(  49) = (   0.7931627   0.9021876   0.2899749  )
        50        Se     tau(  50) = (   0.9642211   0.9009061   0.5681755  )
        51        Se     tau(  51) = (   0.9091559   1.0305767   0.2214984  )
        52        Se     tau(  52) = (   0.7501550   1.0478910   0.4941099  )
        53        Se     tau(  53) = (   0.7976680   0.7742539   0.1588308  )
        54        Se     tau(  54) = (   0.9603153   0.7733207   0.4355144  )
        55        Fl     tau(  55) = (   0.5835190   0.7125450   0.6574096  )

     Fixed atoms
     site n.  direction
         1    0   0   0
         2    1   1   1
         3    0   0   0
         4    1   1   1
         5    0   0   0
         6    1   1   1
         7    0   0   0
         8    1   1   1
         9    0   0   0
        10    1   1   1
        11    0   0   0
        12    1   1   1
        13    0   0   0
        14    1   1   1
        15    0   0   0
        16    1   1   1
        17    0   0   0
        18    1   1   1
        19    0   0   0
        20    1   1   1
        21    0   0   0
        22    1   1   1
        23    0   0   0
        24    1   1   1
        25    0   0   0
        26    1   1   1
        27    0   0   0
        28    1   1   1
        29    0   0   0
        30    1   1   1
        31    0   0   0
        32    1   1   1
        33    0   0   0
        34    1   1   1
        35    0   0   0
        36    1   1   1
        37    0   0   0
        38    1   1   1
        39    0   0   0
        40    1   1   1
        41    0   0   0
        42    1   1   1
        43    0   0   0
        44    1   1   1
        45    0   0   0
        46    1   1   1
        47    0   0   0
        48    1   1   1
        49    0   0   0
        50    1   1   1
        51    0   0   0
        52    1   1   1
        53    0   0   0
        54    1   1   1
        55    1   1   1

   Crystallographic axes

     site n.     atom                  positions (cryst. coord.)
         1        Se     tau(   1) = (  0.1265139  0.1112597  0.2163687  )
         2        Se     tau(   2) = (  0.2973158  0.1104127  0.4244380  )
         3        Se     tau(   3) = (  0.2424917  0.2219730  0.1652598  )
         4        Se     tau(   4) = (  0.0760817  0.2228107  0.3778489  )
         5        Se     tau(   5) = (  0.1310203  0.0009112  0.1185300  )
         6        Se     tau(   6) = (  0.2921905  0.0002351  0.3265257  )
         7        Se     tau(   7) = (  0.4598471  0.1112598  0.2163686  )
         8        Se     tau(   8) = (  0.6299803  0.1106483  0.4245900  )
         9        Se     tau(   9) = (  0.5758247  0.2219731  0.1652594  )
        10        Se     tau(  10) = (  0.4098437  0.2220510  0.3771595  )
        11        Se     tau(  11) = (  0.4643531  0.0009112  0.1185298  )
        12        Se     tau(  12) = (  0.6242380  0.0073998  0.3219344  )
        13        Se     tau(  13) = (  0.7931807  0.1112596  0.2163682  )
        14        Se     tau(  14) = (  0.9656268  0.1100696  0.4245443  )
        15        Se     tau(  15) = (  0.9091586  0.2219729  0.1652594  )
        16        Se     tau(  16) = (  0.7458318  0.2177104  0.3766018  )
        17        Se     tau(  17) = (  0.7976871  0.0009111  0.1185295  )
        18        Se     tau(  18) = (  0.9625903  0.0014488  0.3248541  )
        19        Se     tau(  19) = (  0.1264983  0.4445784  0.2163648  )
        20        Se     tau(  20) = (  0.2969726  0.4428827  0.4240131  )
        21        Se     tau(  21) = (  0.2424688  0.5553202  0.1652706  )
        22        Se     tau(  22) = (  0.0752292  0.5560162  0.3774947  )
        23        Se     tau(  23) = (  0.1310206  0.3342602  0.1185057  )
        24        Se     tau(  24) = (  0.2934719  0.3323226  0.3259812  )
        25        Se     tau(  25) = (  0.4598315  0.4445785  0.2163647  )
        26        Se     tau(  26) = (  0.6462999  0.4405364  0.4031766  )
        27        Se     tau(  27) = (  0.5758018  0.5553203  0.1652703  )
        28        Se     tau(  28) = (  0.4061698  0.5549550  0.3752074  )
        29        Se     tau(  29) = (  0.4643534  0.3342602  0.1185056  )
        30        Se     tau(  30) = (  0.6278084  0.3189945  0.3152460  )
        31        Se     tau(  31) = (  0.7931651  0.4445783  0.2163643  )
        32        Se     tau(  32) = (  0.9632030  0.4431250  0.4229029  )
        33        Se     tau(  33) = (  0.9091357  0.5553201  0.1652702  )
        34        Se     tau(  34) = (  0.7529416  0.5497184  0.3464315  )
        35        Se     tau(  35) = (  0.7976875  0.3342601  0.1185053  )
        36        Se     tau(  36) = (  0.9602072  0.3325465  0.3250018  )
        37        Se     tau(  37) = (  0.1264959  0.7779250  0.2163992  )
        38        Se     tau(  38) = (  0.2975290  0.7774520  0.4241055  )
        39        Se     tau(  39) = (  0.2424890  0.8886304  0.1652973  )
        40        Se     tau(  40) = (  0.0756686  0.8892186  0.3772515  )
        41        Se     tau(  41) = (  0.1310011  0.6676122  0.1185306  )
        42        Se     tau(  42) = (  0.2909525  0.6672492  0.3256074  )
        43        Se     tau(  43) = (  0.4598290  0.7779251  0.2163991  )
        44        Se     tau(  44) = (  0.6377429  0.7850964  0.4053966  )
        45        Se     tau(  45) = (  0.5758219  0.8886305  0.1652969  )
        46        Se     tau(  46) = (  0.4092338  0.8895746  0.3771904  )
        47        Se     tau(  47) = (  0.4643339  0.6676123  0.1185305  )
        48        Se     tau(  48) = (  0.6372967  0.6669851  0.3076689  )
        49        Se     tau(  49) = (  0.7931626  0.7779249  0.2163987  )
        50        Se     tau(  50) = (  0.9642211  0.7768199  0.4240105  )
        51        Se     tau(  51) = (  0.9091558  0.8886303  0.1652969  )
        52        Se     tau(  52) = (  0.7501549  0.9035599  0.3687378  )
        53        Se     tau(  53) = (  0.7976680  0.6676121  0.1185301  )
        54        Se     tau(  54) = (  0.9603153  0.6668074  0.3250099  )
        55        Fl     tau(  55) = (  0.5835190  0.6144027  0.4906030  )

     number of k points=    20  Gaussian smearing, width (Ry)=  0.0200
                       cart. coord. in units 2pi/alat
        k(    1) = (   0.0000000   0.0000000   0.0000000), wk =   0.0277778
        k(    2) = (  -0.0000000   0.1437109   0.0000000), wk =   0.0555556
        k(    3) = (  -0.0000000   0.2874217   0.0000000), wk =   0.0555556
        k(    4) = (   0.0000000  -0.4311326   0.0000000), wk =   0.0277778
        k(    5) = (   0.1666667  -0.0000000   0.0000000), wk =   0.0555556
        k(    6) = (   0.1666667   0.1437109   0.0000000), wk =   0.0555556
        k(    7) = (   0.1666666   0.2874217   0.0000000), wk =   0.0555556
        k(    8) = (   0.1666667  -0.4311326   0.0000000), wk =   0.0555556
        k(    9) = (   0.3333333  -0.0000000   0.0000000), wk =   0.0555556
        k(   10) = (   0.3333333   0.1437108   0.0000000), wk =   0.0555556
        k(   11) = (   0.3333333   0.2874217   0.0000000), wk =   0.0555556
        k(   12) = (   0.3333334  -0.4311326   0.0000000), wk =   0.0555556
        k(   13) = (  -0.5000000   0.0000000   0.0000000), wk =   0.0277778
        k(   14) = (  -0.5000000   0.1437109   0.0000000), wk =   0.0555556
        k(   15) = (  -0.5000000   0.2874217   0.0000000), wk =   0.0555556
        k(   16) = (  -0.5000000  -0.4311326   0.0000000), wk =   0.0277778
        k(   17) = (  -0.1666667   0.1437109   0.0000000), wk =   0.0555556
        k(   18) = (  -0.1666667   0.2874217   0.0000000), wk =   0.0555556
        k(   19) = (  -0.3333333   0.1437109   0.0000000), wk =   0.0555556
        k(   20) = (  -0.3333334   0.2874217   0.0000000), wk =   0.0555556

                       cryst. coord.
        k(    1) = (   0.0000000   0.0000000   0.0000000), wk =   0.0277778
        k(    2) = (   0.0000000   0.1666667   0.0000000), wk =   0.0555556
        k(    3) = (   0.0000000   0.3333333   0.0000000), wk =   0.0555556
        k(    4) = (   0.0000000  -0.5000000   0.0000000), wk =   0.0277778
        k(    5) = (   0.1666667   0.0000000   0.0000000), wk =   0.0555556
        k(    6) = (   0.1666667   0.1666667   0.0000000), wk =   0.0555556
        k(    7) = (   0.1666667   0.3333333   0.0000000), wk =   0.0555556
        k(    8) = (   0.1666667  -0.5000000   0.0000000), wk =   0.0555556
        k(    9) = (   0.3333333   0.0000000   0.0000000), wk =   0.0555556
        k(   10) = (   0.3333333   0.1666667   0.0000000), wk =   0.0555556
        k(   11) = (   0.3333333   0.3333333   0.0000000), wk =   0.0555556
        k(   12) = (   0.3333333  -0.5000000   0.0000000), wk =   0.0555556
        k(   13) = (  -0.5000000   0.0000000   0.0000000), wk =   0.0277778
        k(   14) = (  -0.5000000   0.1666667   0.0000000), wk =   0.0555556
        k(   15) = (  -0.5000000   0.3333333   0.0000000), wk =   0.0555556
        k(   16) = (  -0.5000000  -0.5000000   0.0000000), wk =   0.0277778
        k(   17) = (  -0.1666667   0.1666667   0.0000000), wk =   0.0555556
        k(   18) = (  -0.1666667   0.3333333   0.0000000), wk =   0.0555556
        k(   19) = (  -0.3333333   0.1666667   0.0000000), wk =   0.0555556
        k(   20) = (  -0.3333333   0.3333333   0.0000000), wk =   0.0555556

     Dense  grid:  2252595 G-vectors     FFT dimensions: ( 144, 180, 192)

     Dynamical RAM for                 wfc:     304.74 MB

     Dynamical RAM for     wfc (w. buffer):    1828.43 MB

     Dynamical RAM for           str. fact:       2.29 MB

     Dynamical RAM for           local pot:       0.00 MB

     Dynamical RAM for          nlocal pot:     269.80 MB

     Dynamical RAM for                qrad:      14.93 MB

     Dynamical RAM for          rho,v,vnew:      30.36 MB

     Dynamical RAM for               rhoin:      10.12 MB

     Dynamical RAM for            rho*nmix:      73.33 MB

     Dynamical RAM for           G-vectors:       4.87 MB

     Dynamical RAM for          h,s,v(r/c):       8.27 MB

     Dynamical RAM for          <psi|beta>:      61.17 MB

     Dynamical RAM for                 phi:    1218.95 MB

     Dynamical RAM for                hphi:    1218.95 MB

     Dynamical RAM for                hpsi:     304.74 MB

     Dynamical RAM for                kpsi:     304.74 MB

     Dynamical RAM for               hkpsi:     304.74 MB

     Dynamical RAM for      wfcinit/wfcrot:     483.03 MB

     Estimated static dynamical RAM per process >       2.12 GB

     Estimated max dynamical RAM per process >       5.54 GB

     Estimated total dynamical RAM >     658.03 GB
 ----2D----2D----2D----2D----2D----2D----2D----2D----2D----2D----2D----2D
  The code is running with the 2D cutoff
  Please refer to:
  Sohier, T., Calandra, M., & Mauri, F. (2017), 
  Density functional perturbation theory for gated two-dimensional heterostructu
 res:
  Theoretical developments and application to flexural phonons in graphene.
  Physical Review B, 96(7), 75448. https://doi.org/10.1103/PhysRevB.96.075448
 ----2D----2D----2D----2D----2D----2D----2D----2D----2D----2D----2D----2D

     Initial potential from superposition of free atoms

     starting charge     885.9890, renormalised to     886.0000

     negative rho (up, down):  1.161E-04 0.000E+00
     Starting wfcs are  998 randomized atomic wfcs +   66 random wfcs

     total cpu time spent up to now is      568.7 secs

     Self-consistent Calculation

     iteration #  1     ecut=    80.00 Ry     beta= 0.20
     Davidson diagonalization with overlap

---- Real-time Memory Report at c_bands before calling an iterative solver
          2754 MiB given to the printing process from OS
         -1844 MiB allocation reported by mallinfo(arena+hblkhd)
       1305717 MiB available memory on the node where the printing process lives
------------------
     ethr =  1.00E-02,  avg # of iterations =  7.8

     Threshold (ethr) on eigenvalues was too large:
     Diagonalizing with lowered threshold

     Davidson diagonalization with overlap

---- Real-time Memory Report at c_bands before calling an iterative solver
          3755 MiB given to the printing process from OS
         -1821 MiB allocation reported by mallinfo(arena+hblkhd)
       1288308 MiB available memory on the node where the printing process lives
------------------
     ethr =  8.25E-05,  avg # of iterations = 10.2

     negative rho (up, down):  9.055E-05 0.000E+00

     total cpu time spent up to now is     5295.9 secs

     total energy              =  -13476.08529992 Ry
     estimated scf accuracy    <       0.70831047 Ry

     iteration #  2     ecut=    80.00 Ry     beta= 0.20
     Davidson diagonalization with overlap

---- Real-time Memory Report at c_bands before calling an iterative solver
          3809 MiB given to the printing process from OS
         -1752 MiB allocation reported by mallinfo(arena+hblkhd)
       1302866 MiB available memory on the node where the printing process lives
------------------
     ethr =  7.99E-05,  avg # of iterations =  2.0

     negative rho (up, down):  5.361E-05 0.000E+00

     total cpu time spent up to now is     7190.9 secs

     total energy              =  -13476.01954400 Ry
     estimated scf accuracy    <       0.36349647 Ry

     iteration #  3     ecut=    80.00 Ry     beta= 0.20
     RMM-DIIS diagonalization

---- Real-time Memory Report at c_bands before calling an iterative solver
          3825 MiB given to the printing process from OS
         -1743 MiB allocation reported by mallinfo(arena+hblkhd)
       1249838 MiB available memory on the node where the printing process lives
------------------
     ethr =  4.10E-05,  avg # of iterations =  2.5

     negative rho (up, down):  2.502E-05 0.000E+00

     total cpu time spent up to now is     8910.0 secs

     total energy              =  -13476.00475583 Ry
     estimated scf accuracy    <       0.15842549 Ry

     iteration #  4     ecut=    80.00 Ry     beta= 0.20
     RMM-DIIS diagonalization

---- Real-time Memory Report at c_bands before calling an iterative solver
          5972 MiB given to the printing process from OS
         -1734 MiB allocation reported by mallinfo(arena+hblkhd)
       1221580 MiB available memory on the node where the printing process lives
------------------
     ethr =  1.79E-05,  avg # of iterations =  2.6

     negative rho (up, down):  8.510E-06 0.000E+00

     total cpu time spent up to now is    10727.6 secs

     total energy              =  -13476.01746931 Ry
     estimated scf accuracy    <       0.02810078 Ry

     iteration #  5     ecut=    80.00 Ry     beta= 0.20
     Davidson diagonalization with overlap

---- Real-time Memory Report at c_bands before calling an iterative solver
          5982 MiB given to the printing process from OS
         -1724 MiB allocation reported by mallinfo(arena+hblkhd)
       1231141 MiB available memory on the node where the printing process lives
------------------
     ethr =  3.17E-06,  avg # of iterations = 15.3

     negative rho (up, down):  4.371E-06 0.000E+00

     total cpu time spent up to now is    13435.4 secs

     total energy              =  -13476.02106850 Ry
     estimated scf accuracy    <       0.00566165 Ry

     iteration #  6     ecut=    80.00 Ry     beta= 0.20
     RMM-DIIS diagonalization

---- Real-time Memory Report at c_bands before calling an iterative solver
          5982 MiB given to the printing process from OS
         -1696 MiB allocation reported by mallinfo(arena+hblkhd)
       1223149 MiB available memory on the node where the printing process lives
------------------
     ethr =  6.39E-07,  avg # of iterations =  2.5

     negative rho (up, down):  1.229E-06 0.000E+00

     total cpu time spent up to now is    15111.4 secs

     total energy              =  -13476.02142082 Ry
     estimated scf accuracy    <       0.00161933 Ry

     iteration #  7     ecut=    80.00 Ry     beta= 0.20
     RMM-DIIS diagonalization

---- Real-time Memory Report at c_bands before calling an iterative solver
          6036 MiB given to the printing process from OS
         -1696 MiB allocation reported by mallinfo(arena+hblkhd)
       1217352 MiB available memory on the node where the printing process lives
------------------
     ethr =  1.83E-07,  avg # of iterations =  2.8

     negative rho (up, down):  3.121E-07 0.000E+00

     total cpu time spent up to now is    16961.2 secs

     total energy              =  -13476.02161012 Ry
     estimated scf accuracy    <       0.00047971 Ry

     iteration #  8     ecut=    80.00 Ry     beta= 0.20
     RMM-DIIS diagonalization

---- Real-time Memory Report at c_bands before calling an iterative solver
          6037 MiB given to the printing process from OS
         -1696 MiB allocation reported by mallinfo(arena+hblkhd)
       1222291 MiB available memory on the node where the printing process lives
------------------
     ethr =  5.41E-08,  avg # of iterations =  2.7

     negative rho (up, down):  2.339E-08 0.000E+00

     total cpu time spent up to now is    18807.9 secs

     total energy              =  -13476.02163773 Ry
     estimated scf accuracy    <       0.00017303 Ry

     iteration #  9     ecut=    80.00 Ry     beta= 0.20
     RMM-DIIS diagonalization

---- Real-time Memory Report at c_bands before calling an iterative solver
          6038 MiB given to the printing process from OS
         -1688 MiB allocation reported by mallinfo(arena+hblkhd)
       1228790 MiB available memory on the node where the printing process lives
------------------
     ethr =  1.95E-08,  avg # of iterations =  2.8

     total cpu time spent up to now is    20686.0 secs

     total energy              =  -13476.02166085 Ry
     estimated scf accuracy    <       0.00003258 Ry

     iteration # 10     ecut=    80.00 Ry     beta= 0.20
     Davidson diagonalization with overlap

---- Real-time Memory Report at c_bands before calling an iterative solver
          6046 MiB given to the printing process from OS
         -1679 MiB allocation reported by mallinfo(arena+hblkhd)
       1221510 MiB available memory on the node where the printing process lives
------------------
     ethr =  3.68E-09,  avg # of iterations =  3.1

     total cpu time spent up to now is    22773.7 secs

     total energy              =  -13476.02166580 Ry
     estimated scf accuracy    <       0.00000799 Ry

     iteration # 11     ecut=    80.00 Ry     beta= 0.20
     RMM-DIIS diagonalization

---- Real-time Memory Report at c_bands before calling an iterative solver
          6046 MiB given to the printing process from OS
         -1648 MiB allocation reported by mallinfo(arena+hblkhd)
       1235239 MiB available memory on the node where the printing process lives
------------------
     ethr =  9.02E-10,  avg # of iterations =  2.6

     total cpu time spent up to now is    24551.7 secs

     total energy              =  -13476.02166646 Ry
     estimated scf accuracy    <       0.00000192 Ry

     iteration # 12     ecut=    80.00 Ry     beta= 0.20
     RMM-DIIS diagonalization

---- Real-time Memory Report at c_bands before calling an iterative solver
          6091 MiB given to the printing process from OS
         -1648 MiB allocation reported by mallinfo(arena+hblkhd)
       1227128 MiB available memory on the node where the printing process lives
------------------
     ethr =  2.17E-10,  avg # of iterations =  3.1

     total cpu time spent up to now is    26514.5 secs

     total energy              =  -13476.02166680 Ry
     estimated scf accuracy    <       0.00000056 Ry

     iteration # 13     ecut=    80.00 Ry     beta= 0.20
     RMM-DIIS diagonalization

---- Real-time Memory Report at c_bands before calling an iterative solver
          6091 MiB given to the printing process from OS
         -1648 MiB allocation reported by mallinfo(arena+hblkhd)
       1231832 MiB available memory on the node where the printing process lives
------------------
     ethr =  6.26E-11,  avg # of iterations =  2.6

     total cpu time spent up to now is    28236.0 secs

     total energy              =  -13476.02166686 Ry
     estimated scf accuracy    <       0.00000023 Ry

     iteration # 14     ecut=    80.00 Ry     beta= 0.20
     RMM-DIIS diagonalization

---- Real-time Memory Report at c_bands before calling an iterative solver
          6093 MiB given to the printing process from OS
         -1648 MiB allocation reported by mallinfo(arena+hblkhd)
       1255086 MiB available memory on the node where the printing process lives
------------------
     ethr =  2.56E-11,  avg # of iterations =  3.1

     total cpu time spent up to now is    30235.8 secs

     total energy              =  -13476.02166692 Ry
     estimated scf accuracy    <       0.00000005 Ry

     iteration # 15     ecut=    80.00 Ry     beta= 0.20
     Davidson diagonalization with overlap

---- Real-time Memory Report at c_bands before calling an iterative solver
          6094 MiB given to the printing process from OS
         -1648 MiB allocation reported by mallinfo(arena+hblkhd)
       1254768 MiB available memory on the node where the printing process lives
------------------
     ethr =  5.51E-12,  avg # of iterations =  3.0

     total cpu time spent up to now is    32656.3 secs

     total energy              =  -13476.02166693 Ry
     estimated scf accuracy    <       0.00000003 Ry

     iteration # 16     ecut=    80.00 Ry     beta= 0.20
     RMM-DIIS diagonalization

---- Real-time Memory Report at c_bands before calling an iterative solver
          6094 MiB given to the printing process from OS
         -1648 MiB allocation reported by mallinfo(arena+hblkhd)
       1254983 MiB available memory on the node where the printing process lives
------------------
     ethr =  2.88E-12,  avg # of iterations =  2.7

     total cpu time spent up to now is    34526.2 secs

     total energy              =  -13476.02166694 Ry
     estimated scf accuracy    <          8.3E-09 Ry

     iteration # 17     ecut=    80.00 Ry     beta= 0.20
     RMM-DIIS diagonalization

---- Real-time Memory Report at c_bands before calling an iterative solver
          6099 MiB given to the printing process from OS
         -1648 MiB allocation reported by mallinfo(arena+hblkhd)
       1240496 MiB available memory on the node where the printing process lives
------------------
     ethr =  9.35E-13,  avg # of iterations =  2.8

     total cpu time spent up to now is    36486.1 secs

     total energy              =  -13476.02166694 Ry
     estimated scf accuracy    <          1.5E-09 Ry

     iteration # 18     ecut=    80.00 Ry     beta= 0.20
     RMM-DIIS diagonalization

---- Real-time Memory Report at c_bands before calling an iterative solver
          6099 MiB given to the printing process from OS
         -1648 MiB allocation reported by mallinfo(arena+hblkhd)
       1229815 MiB available memory on the node where the printing process lives
------------------
     ethr =  1.65E-13,  avg # of iterations =  2.8

     total cpu time spent up to now is    38296.4 secs

     End of self-consistent calculation

          k = 0.0000 0.0000 0.0000 (281581 PWs)   bands (ev):

  -160.7556-160.7556-117.5883-117.5883 -64.6137 -64.6137 -64.5967 -64.5967
   -53.6688 -53.6688 -53.6496 -53.6496 -53.6380 -53.6380 -53.6329 -53.6329
   -53.6217 -53.6217 -53.6184 -53.6184 -53.6084 -53.6084 -53.6064 -53.6064
   -53.6056 -53.6056 -53.6018 -53.6018 -53.5988 -53.5988 -53.5861 -53.5861
   -53.5849 -53.5849 -53.5839 -53.5839 -53.5766 -53.5766 -53.5764 -53.5764
   -53.5675 -53.5675 -53.5669 -53.5669 -53.5582 -53.5582 -53.5447 -53.5447
   -53.5408 -53.5408 -53.5405 -53.5405 -53.5374 -53.5374 -53.5347 -53.5347
   -53.5265 -53.5265 -53.5255 -53.5255 -53.5238 -53.5238 -53.5227 -53.5227
   -53.5207 -53.5207 -53.5164 -53.5164 -53.5092 -53.5092 -53.5055 -53.5055
   -53.5021 -53.5021 -53.4828 -53.4828 -53.4785 -53.4785 -53.4720 -53.4720
   -53.4704 -53.4704 -53.4542 -53.4542 -53.4539 -53.4539 -53.4495 -53.4495
   -53.4414 -53.4414 -53.4367 -53.4367 -53.4363 -53.4363 -53.4275 -53.4275
   -53.4252 -53.4252 -53.4250 -53.4250 -53.4139 -53.4139 -53.4064 -53.4064
   -53.3992 -53.3992 -53.3898 -53.3898 -53.3809 -53.3809 -53.3790 -53.3790
   -53.3721 -53.3721 -53.3709 -53.3709 -53.3626 -53.3626 -53.3561 -53.3561
   -53.3536 -53.3536 -53.3490 -53.3490 -53.3478 -53.3478 -53.3476 -53.3476
   -53.3449 -53.3449 -53.3445 -53.3445 -53.3318 -53.3318 -53.3248 -53.3248
   -53.3206 -53.3206 -53.3193 -53.3193 -53.3172 -53.3172 -53.3115 -53.3115
   -53.3042 -53.3042 -53.2876 -53.2876 -53.2873 -53.2873 -53.2854 -53.2854
   -53.2853 -53.2853 -53.2704 -53.2704 -53.2646 -53.2646 -53.2622 -53.2622
   -53.2619 -53.2619 -53.2551 -53.2551 -53.2541 -53.2541 -53.2539 -53.2539
   -53.2479 -53.2479 -53.2408 -53.2408 -53.2374 -53.2374 -53.2324 -53.2324
   -53.2289 -53.2289 -53.2187 -53.2187 -53.2137 -53.2137 -53.2126 -53.2126
   -53.2041 -53.2041 -53.2026 -53.2026 -53.1919 -53.1919 -53.1872 -53.1872
   -53.1857 -53.1857 -53.1843 -53.1843 -53.1719 -53.1719 -53.1594 -53.1594
   -53.1572 -53.1572 -53.1553 -53.1553 -53.1538 -53.1538 -53.1487 -53.1487
   -53.1355 -53.1355 -53.1275 -53.1275 -53.1015 -53.1015 -53.0826 -53.0826
   -53.0649 -53.0649 -53.0189 -53.0189 -52.9662 -52.9662 -52.9076 -52.9076
   -52.8120 -52.8120 -52.8004 -52.8004 -52.7867 -52.7867 -52.7757 -52.7757
   -52.7681 -52.7681 -52.7664 -52.7664 -52.7574 -52.7574 -52.7535 -52.7535
   -52.7500 -52.7500 -52.7498 -52.7498 -52.7459 -52.7459 -52.7321 -52.7321
   -52.7293 -52.7293 -52.7276 -52.7276 -52.7247 -52.7247 -52.7245 -52.7245
   -52.7154 -52.7154 -52.7152 -52.7152 -52.7059 -52.7059 -52.6929 -52.6929
   -52.6892 -52.6892 -52.6874 -52.6874 -52.6859 -52.6859 -52.6821 -52.6821
   -52.6743 -52.6743 -52.6726 -52.6726 -52.6725 -52.6725 -52.6706 -52.6706
   -52.6674 -52.6674 -52.6631 -52.6631 -52.6571 -52.6571 -52.6524 -52.6524
   -52.6496 -52.6496 -52.6276 -52.6276 -52.6219 -52.6219 -52.6173 -52.6173
   -52.6162 -52.6162 -52.6133 -52.6133 -52.5982 -52.5982 -52.5980 -52.5980
   -52.5928 -52.5928 -52.5856 -52.5856 -52.5810 -52.5810 -52.5775 -52.5775
   -52.5716 -52.5716 -52.5701 -52.5701 -52.5693 -52.5693 -52.5677 -52.5677
   -52.5630 -52.5630 -52.5578 -52.5578 -52.5571 -52.5571 -52.5510 -52.5510
   -52.5487 -52.5487 -52.5464 -52.5464 -52.5413 -52.5413 -52.5383 -52.5383
   -52.5348 -52.5348 -52.5324 -52.5324 -52.5311 -52.5311 -52.5285 -52.5285
   -52.5213 -52.5213 -52.5170 -52.5170 -52.5157 -52.5157 -52.5120 -52.5120
   -52.5063 -52.5063 -52.5053 -52.5053 -52.4971 -52.4971 -52.4916 -52.4916
   -52.4886 -52.4886 -52.4756 -52.4756 -52.4721 -52.4721 -52.4704 -52.4704
   -52.4697 -52.4697 -52.4625 -52.4625 -52.4614 -52.4614 -52.4598 -52.4598
   -52.4575 -52.4575 -52.4563 -52.4563 -52.4530 -52.4530 -52.4491 -52.4491
   -52.4479 -52.4479 -52.4477 -52.4477 -52.4453 -52.4453 -52.4453 -52.4453
   -52.4392 -52.4392 -52.4383 -52.4383 -52.4359 -52.4359 -52.4325 -52.4325
   -52.4318 -52.4318 -52.4314 -52.4314 -52.4284 -52.4284 -52.4279 -52.4279
   -52.4269 -52.4269 -52.4249 -52.4249 -52.4238 -52.4238 -52.4228 -52.4228
   -52.4202 -52.4202 -52.4104 -52.4104 -52.4043 -52.4043 -52.4040 -52.4040
   -52.4034 -52.4034 -52.3998 -52.3998 -52.3982 -52.3982 -52.3946 -52.3946
   -52.3920 -52.3920 -52.3907 -52.3907 -52.3815 -52.3815 -52.3790 -52.3790
   -52.3772 -52.3772 -52.3748 -52.3748 -52.3739 -52.3739 -52.3676 -52.3676
   -52.3660 -52.3660 -52.3634 -52.3634 -52.3611 -52.3611 -52.3606 -52.3606
   -52.3489 -52.3489 -52.3488 -52.3488 -52.3462 -52.3462 -52.3457 -52.3457
   -52.3452 -52.3452 -52.3419 -52.3419 -52.3376 -52.3376 -52.3362 -52.3362
   -52.3306 -52.3306 -52.3282 -52.3282 -52.3277 -52.3277 -52.3263 -52.3263
   -52.3233 -52.3233 -52.3174 -52.3174 -52.3170 -52.3170 -52.3131 -52.3131
   -52.3081 -52.3081 -52.3037 -52.3037 -52.3000 -52.3000 -52.2934 -52.2934
   -52.2875 -52.2875 -52.2860 -52.2860 -52.2778 -52.2778 -52.2770 -52.2770
   -52.2727 -52.2727 -52.2721 -52.2721 -52.2609 -52.2609 -52.2592 -52.2592
   -52.2579 -52.2579 -52.2500 -52.2500 -52.2454 -52.2454 -52.2307 -52.2307
   -52.2287 -52.2287 -52.2273 -52.2273 -52.2218 -52.2218 -52.2117 -52.2117
   -52.2088 -52.2088 -52.2044 -52.2044 -52.1767 -52.1767 -52.1580 -52.1580
   -52.1560 -52.1560 -52.1413 -52.1413 -52.0987 -52.0987 -52.0906 -52.0906
   -52.0399 -52.0399 -51.9787 -51.9787 -20.3503 -20.3503 -20.0922 -20.0922
   -20.0681 -20.0681 -19.9891 -19.9891 -19.9155 -19.9155 -19.8749 -19.8749
   -19.8292 -19.8292 -19.7957 -19.7957 -19.6592 -19.6592 -19.6147 -19.6147
   -19.5918 -19.5918 -19.5613 -19.5613 -19.5417 -19.5417 -19.5024 -19.5024
   -19.4420 -19.4420 -19.4096 -19.4096 -19.3897 -19.3897 -19.3065 -19.3065
   -18.4816 -18.4816 -18.4383 -18.4383 -18.3533 -18.3533 -18.3255 -18.3255
   -18.3099 -18.3099 -18.2872 -18.2872 -18.2711 -18.2711 -18.2555 -18.2555
   -18.2157 -18.2157 -18.1967 -18.1967 -18.1624 -18.1624 -18.1283 -18.1283
   -17.4651 -17.4651 -17.4399 -17.4399 -16.8701 -16.8701 -16.8657 -16.8657
   -16.8441 -16.8441 -16.8158 -16.8158 -16.8019 -16.8019 -16.5954 -16.5954
   -16.5140 -16.5140 -16.4845 -16.4845 -16.4153 -16.4153 -16.3933 -16.3933
   -16.3735 -16.3735 -16.2983 -16.2983 -15.5903 -15.5903 -15.5566 -15.5566
   -15.5402 -15.5402 -15.4993 -15.4993 -15.3702 -15.3702 -15.3261 -15.3261
   -15.2832 -15.2832 -15.2503 -15.2503 -15.2298 -15.2298 -15.2088 -15.2088
   -14.7842 -14.7842 -14.7538 -14.7538 -13.9851 -13.9851 -13.2427 -13.2427
   -13.2261 -13.2261 -13.2077 -13.2077 -10.1981 -10.1981 -10.1705 -10.1705
   -10.1457 -10.1457 -10.1172 -10.1172 -10.0984 -10.0984 -10.0545 -10.0545
   -10.0215 -10.0215  -9.9942  -9.9942  -9.9632  -9.9632  -9.9314  -9.9314
    -9.8042  -9.8042  -9.7644  -9.7644  -9.7096  -9.7096  -9.6980  -9.6980
    -9.6761  -9.6761  -9.6608  -9.6608  -9.6468  -9.6468  -9.6324  -9.6324
    -9.5890  -9.5890  -9.4882  -9.4882  -9.4334  -9.4334  -9.3857  -9.3857
    -9.3609  -9.3609  -9.3288  -9.3288  -9.2720  -9.2720  -9.2638  -9.2638
    -9.2218  -9.2218  -9.2058  -9.2058  -9.1936  -9.1936  -9.1844  -9.1844
    -9.1583  -9.1583  -9.0912  -9.0912  -8.8136  -8.8136  -8.7946  -8.7946
    -8.7415  -8.7415  -8.6979  -8.6979  -8.6861  -8.6861  -8.6466  -8.6466
    -8.5527  -8.5527  -8.5061  -8.5061  -8.3521  -8.3521  -8.3312  -8.3312
    -8.3146  -8.3146  -8.2910  -8.2910  -8.2475  -8.2475  -8.2337  -8.2337
    -8.1618  -8.1618  -8.1423  -8.1423  -8.0933  -8.0933  -8.0440  -8.0440
    -7.9838  -7.9838  -7.9610  -7.9610  -7.8862  -7.8862  -7.8436  -7.8436
    -7.4023  -7.4023  -7.3840  -7.3840  -7.3083  -7.3083  -7.2857  -7.2857
    -7.2067  -7.2067  -6.8942  -6.8942  -6.8433  -6.8433  -6.7809  -6.7809
    -6.7574  -6.7574  -6.7307  -6.7307  -6.7225  -6.7225  -6.6831  -6.6831
    -6.6545  -6.6545  -6.6363  -6.6363  -6.6247  -6.6247  -6.6011  -6.6011
    -6.5712  -6.5712  -6.5306  -6.5306  -6.4980  -6.4980  -6.4649  -6.4649
    -6.4440  -6.4440  -6.4094  -6.4094  -6.3848  -6.3848  -6.3107  -6.3107
    -6.2963  -6.2963  -6.2676  -6.2676  -6.2513  -6.2513  -6.2291  -6.2291
    -6.1908  -6.1908  -6.1714  -6.1714  -6.1384  -6.1384  -6.1054  -6.1054
    -6.0797  -6.0797  -6.0646  -6.0646  -6.0253  -6.0253  -5.9906  -5.9906
    -5.9516  -5.9516  -5.9338  -5.9338  -5.8325  -5.8325  -5.7660  -5.7660
    -5.6856  -5.6856  -5.6593  -5.6593  -5.6307  -5.6307  -5.4884  -5.4884
    -5.4609  -5.4609  -5.3709  -5.3709  -5.3511  -5.3511  -5.3002  -5.3002
    -5.2531  -5.2531  -5.1688  -5.1688  -5.0781  -5.0781  -5.0507  -5.0507
    -4.9452  -4.9452  -4.9052  -4.9052  -4.4629  -4.4629  -3.5938  -3.5938
    -3.4756  -3.4756  -3.4183  -3.4183  -3.3609  -3.3609  -3.3290  -3.3290
    -3.2848  -3.2848  -3.2691  -3.2691  -3.2262  -3.2262  -3.2081  -3.2081
    -3.1443  -3.1443  -3.1147  -3.1147  -3.1008  -3.1008  -3.0710  -3.0710
    -3.0459  -3.0459  -2.9952  -2.9952  -2.9685  -2.9685  -2.9374  -2.9374
    -2.9090  -2.9090  -2.8976  -2.8976  -2.8451  -2.8451  -2.7913  -2.7913
    -2.6454  -2.6454  -2.6049  -2.6049  -2.5824  -2.5824  -2.5331  -2.5331
    -2.5027  -2.5027  -2.4777  -2.4777  -2.4564  -2.4564  -2.4339  -2.4339
    -2.4010  -2.4010  -2.3824  -2.3824  -2.3467  -2.3467  -2.3141  -2.3141
    -2.3047  -2.3047  -2.2841  -2.2841  -2.2575  -2.2575  -2.2225  -2.2225
    -2.1733  -2.1733  -2.1283  -2.1283  -2.0975  -2.0975  -2.0694  -2.0694
    -2.0426  -2.0426  -1.9988  -1.9988  -1.9366  -1.9366  -1.8688  -1.8688
    -1.7459  -1.7459  -1.7186  -1.7186  -1.6834  -1.6834  -1.6516  -1.6516
    -1.5736  -1.5736  -1.5582  -1.5582  -1.4231  -1.4231  -1.4000  -1.4000
    -1.3145  -1.3145  -0.1617  -0.1617   0.3416   0.3416   0.6727   0.6727
     0.7776   0.7776   0.9495   0.9495   1.0020   1.0020   1.0219   1.0219
     1.0689   1.0689   1.1051   1.1051   1.2707   1.2707   1.3030   1.3030
     1.3511   1.3511   1.3758   1.3758   1.3947   1.3947   1.5071   1.5071
     1.5607   1.5607   1.6061   1.6061   1.6550   1.6550   1.6701   1.6701
     1.7076   1.7076   1.7290   1.7290   1.7775   1.7775   1.7886   1.7886
     1.8202   1.8202   1.8489   1.8489   1.8662   1.8662   1.9180   1.9180
     1.9632   1.9632   2.0306   2.0306   2.0457   2.0457   2.0881   2.0881
     2.1200   2.1200   2.2203   2.2203   2.2507   2.2507   2.2965   2.2965

     occupation numbers 
     1.0000   1.0000   1.0000   1.0000   1.0000   1.0000   1.0000   1.0000
     1.0000   1.0000   1.0000   1.0000   1.0000   1.0000   1.0000   1.0000
     1.0000   1.0000   1.0000   1.0000   1.0000   1.0000   1.0000   1.0000
     1.0000   1.0000   1.0000   1.0000   1.0000   1.0000   1.0000   1.0000
     1.0000   1.0000   1.0000   1.0000   1.0000   1.0000   1.0000   1.0000
     1.0000   1.0000   1.0000   1.0000   1.0000   1.0000   1.0000   1.0000
     1.0000   1.0000   1.0000   1.0000   1.0000   1.0000   1.0000   1.0000
     1.0000   1.0000   1.0000   1.0000   1.0000   1.0000   1.0000   1.0000
     1.0000   1.0000   1.0000   1.0000   1.0000   1.0000   1.0000   1.0000
     1.0000   1.0000   1.0000   1.0000   1.0000   1.0000   1.0000   1.0000
     1.0000   1.0000   1.0000   1.0000   1.0000   1.0000   1.0000   1.0000
     1.0000   1.0000   1.0000   1.0000   1.0000   1.0000   1.0000   1.0000
     1.0000   1.0000   1.0000   1.0000   1.0000   1.0000   1.0000   1.0000
     1.0000   1.0000   1.0000   1.0000   1.0000   1.0000   1.0000   1.0000
     1.0000   1.0000   1.0000   1.0000   1.0000   1.0000   1.0000   1.0000
     1.0000   1.0000   1.0000   1.0000   1.0000   1.0000   1.0000   1.0000
     1.0000   1.0000   1.0000   1.0000   1.0000   1.0000   1.0000   1.0000
     1.0000   1.0000   1.0000   1.0000   1.0000   1.0000   1.0000   1.0000
     1.0000   1.0000   1.0000   1.0000   1.0000   1.0000   1.0000   1.0000
     1.0000   1.0000   1.0000   1.0000   1.0000   1.0000   1.0000   1.0000
     1.0000   1.0000   1.0000   1.0000   1.0000   1.0000   1.0000   1.0000
     1.0000   1.0000   1.0000   1.0000   1.0000   1.0000   1.0000   1.0000
     1.0000   1.0000   1.0000   1.0000   1.0000   1.0000   1.0000   1.0000
     1.0000   1.0000   1.0000   1.0000   1.0000   1.0000   1.0000   1.0000
     1.0000   1.0000   1.0000   1.0000   1.0000   1.0000   1.0000   1.0000
     1.0000   1.0000   1.0000   1.0000   1.0000   1.0000   1.0000   1.0000
     1.0000   1.0000   1.0000   1.0000   1.0000   1.0000   1.0000   1.0000
     1.0000   1.0000   1.0000   1.0000   1.0000   1.0000   1.0000   1.0000
     1.0000   1.0000   1.0000   1.0000   1.0000   1.0000   1.0000   1.0000
     1.0000   1.0000   1.0000   1.0000   1.0000   1.0000   1.0000   1.0000
     1.0000   1.0000   1.0000   1.0000   1.0000   1.0000   1.0000   1.0000
     1.0000   1.0000   1.0000   1.0000   1.0000   1.0000   1.0000   1.0000
     1.0000   1.0000   1.0000   1.0000   1.0000   1.0000   1.0000   1.0000
     1.0000   1.0000   1.0000   1.0000   1.0000   1.0000   1.0000   1.0000
     1.0000   1.0000   1.0000   1.0000   1.0000   1.0000   1.0000   1.0000
     1.0000   1.0000   1.0000   1.0000   1.0000   1.0000   1.0000   1.0000
     1.0000   1.0000   1.0000   1.0000   1.0000   1.0000   1.0000   1.0000
     1.0000   1.0000   1.0000   1.0000   1.0000   1.0000   1.0000   1.0000
     1.0000   1.0000   1.0000   1.0000   1.0000   1.0000   1.0000   1.0000
     1.0000   1.0000   1.0000   1.0000   1.0000   1.0000   1.0000   1.0000
     1.0000   1.0000   1.0000   1.0000   1.0000   1.0000   1.0000   1.0000
     1.0000   1.0000   1.0000   1.0000   1.0000   1.0000   1.0000   1.0000
     1.0000   1.0000   1.0000   1.0000   1.0000   1.0000   1.0000   1.0000
     1.0000   1.0000   1.0000   1.0000   1.0000   1.0000   1.0000   1.0000
     1.0000   1.0000   1.0000   1.0000   1.0000   1.0000   1.0000   1.0000
     1.0000   1.0000   1.0000   1.0000   1.0000   1.0000   1.0000   1.0000
     1.0000   1.0000   1.0000   1.0000   1.0000   1.0000   1.0000   1.0000
     1.0000   1.0000   1.0000   1.0000   1.0000   1.0000   1.0000   1.0000
     1.0000   1.0000   1.0000   1.0000   1.0000   1.0000   1.0000   1.0000
     1.0000   1.0000   1.0000   1.0000   1.0000   1.0000   1.0000   1.0000
     1.0000   1.0000   1.0000   1.0000   1.0000   1.0000   1.0000   1.0000
     1.0000   1.0000   1.0000   1.0000   1.0000   1.0000   1.0000   1.0000
     1.0000   1.0000   1.0000   1.0000   1.0000   1.0000   1.0000   1.0000
     1.0000   1.0000   1.0000   1.0000   1.0000   1.0000   1.0000   1.0000
     1.0000   1.0000   1.0000   1.0000   1.0000   1.0000   1.0000   1.0000
     1.0000   1.0000   1.0000   1.0000   1.0000   1.0000   1.0000   1.0000
     1.0000   1.0000   1.0000   1.0000   1.0000   1.0000   1.0000   1.0000
     1.0000   1.0000   1.0000   1.0000   1.0000   1.0000   1.0000   1.0000
     1.0000   1.0000   1.0000   1.0000   1.0000   1.0000   1.0000   1.0000
     1.0000   1.0000   1.0000   1.0000   1.0000   1.0000   1.0000   1.0000
     1.0000   1.0000   1.0000   1.0000   1.0000   1.0000   1.0000   1.0000
     1.0000   1.0000   1.0000   1.0000   1.0000   1.0000   1.0000   1.0000
     1.0000   1.0000   1.0000   1.0000   1.0000   1.0000   1.0000   1.0000
     1.0000   1.0000   1.0000   1.0000   1.0000   1.0000   1.0000   1.0000
     1.0000   1.0000   1.0000   1.0000   1.0000   1.0000   1.0000   1.0000
     1.0000   1.0000   1.0000   1.0000   1.0000   1.0000   1.0000   1.0000
     1.0000   1.0000   1.0000   1.0000   1.0000   1.0000   1.0000   1.0000
     1.0000   1.0000   1.0000   1.0000   1.0000   1.0000   1.0000   1.0000
     1.0000   1.0000   1.0000   1.0000   1.0000   1.0000   1.0000   1.0000
     1.0000   1.0000   1.0000   1.0000   1.0000   1.0000   1.0000   1.0000
     1.0000   1.0000   1.0000   1.0000   1.0000   1.0000   1.0000   1.0000
     1.0000   1.0000   1.0000   1.0000   1.0000   1.0000   1.0000   1.0000
     1.0000   1.0000   1.0000   1.0000   1.0000   1.0000   1.0000   1.0000
     1.0000   1.0000   1.0000   1.0000   1.0000   1.0000   1.0000   1.0000
     1.0000   1.0000   1.0000   1.0000   1.0000   1.0000   1.0000   1.0000
     1.0000   1.0000   1.0000   1.0000   1.0000   1.0000   1.0000   1.0000
     1.0000   1.0000   1.0000   1.0000   1.0000   1.0000   1.0000   1.0000
     1.0000   1.0000   1.0000   1.0000   1.0000   1.0000   1.0000   1.0000
     1.0000   1.0000   1.0000   1.0000   1.0000   1.0000   1.0000   1.0000
     1.0000   1.0000   1.0000   1.0000   1.0000   1.0000   1.0000   1.0000
     1.0000   1.0000   1.0000   1.0000   1.0000   1.0000   1.0000   1.0000
     1.0000   1.0000   1.0000   1.0000   1.0000   1.0000   1.0000   1.0000
     1.0000   1.0000   1.0000   1.0000   1.0000   1.0000   1.0000   1.0000
     1.0000   1.0000   1.0000   1.0000   1.0000   1.0000   1.0000   1.0000
     1.0000   1.0000   1.0000   1.0000   1.0000   1.0000   1.0000   1.0000
     1.0000   1.0000   1.0000   1.0000   1.0000   1.0000   1.0000   1.0000
     1.0000   1.0000   1.0000   1.0000   1.0000   1.0000   1.0000   1.0000
     1.0000   1.0000   1.0000   1.0000   1.0000   1.0000   1.0000   1.0000
     1.0000   1.0000   1.0000   1.0000   1.0000   1.0000   1.0000   1.0000
     1.0000   1.0000   1.0000   1.0000   1.0000   1.0000   1.0000   1.0000
     1.0000   1.0000   1.0000   1.0000   1.0000   1.0000   1.0000   1.0000
     1.0000   1.0000   1.0000   1.0000   1.0000   1.0000   1.0000   1.0000
     1.0000   1.0000   1.0000   1.0000   1.0000   1.0000   1.0000   1.0000
     1.0000   1.0000   1.0000   1.0000   1.0000   1.0000   1.0000   1.0000
     1.0000   1.0000   1.0000   1.0000   1.0000   1.0000   1.0000   1.0000
     1.0000   1.0000   1.0000   1.0000   1.0000   1.0000   1.0000   1.0000
     1.0000   1.0000   1.0000   1.0000   1.0000   1.0000   1.0000   1.0000
     1.0000   1.0000   1.0000   1.0000   1.0000   1.0000   1.0000   1.0000
     1.0000   1.0000   1.0000   1.0000   1.0000   1.0000   1.0000   1.0000
     1.0000   1.0000   1.0000   1.0000   1.0000   1.0000   1.0000   1.0000
     1.0000   1.0000   1.0000   1.0000   1.0000   1.0000   1.0000   1.0000
     1.0000   1.0000   1.0000   1.0000   1.0000   1.0000   1.0000   1.0000
     1.0000   1.0000   1.0000   1.0000   1.0000   1.0000   1.0000   1.0000
     1.0000   1.0000   1.0000   1.0000   1.0000   1.0000   1.0000   1.0000
     1.0000   1.0000   1.0000   1.0000   1.0000   1.0000   1.0000   1.0000
     1.0000   1.0000   1.0000   1.0000   1.0000   1.0000   1.0000   1.0000
     1.0000   1.0000   1.0000   1.0000   1.0000   1.0000   1.0000   1.0000
     1.0000   1.0000   1.0000   1.0000   1.0000   1.0000   1.0000   1.0000
     1.0000   1.0000   1.0000   1.0000   1.0000   1.0000   1.0000   1.0000
     1.0000   1.0000   1.0000   1.0000   1.0000   1.0000   1.0000   1.0000
     1.0000   1.0000   1.0000   1.0000   0.9836   0.9836   0.0086   0.0086
     0.0014   0.0014   0.0005   0.0005   0.0002   0.0002   0.0001   0.0001
     0.0000   0.0000   0.0000   0.0000   0.0000   0.0000   0.0000   0.0000
     0.0000   0.0000   0.0000   0.0000   0.0000   0.0000   0.0000   0.0000
     0.0000   0.0000   0.0000   0.0000   0.0000   0.0000   0.0000   0.0000
     0.0000   0.0000   0.0000   0.0000   0.0000   0.0000   0.0000   0.0000
     0.0000   0.0000   0.0000   0.0000   0.0000   0.0000   0.0000   0.0000
     0.0000   0.0000   0.0000   0.0000   0.0000   0.0000   0.0000   0.0000
     0.0000   0.0000   0.0000   0.0000   0.0000   0.0000   0.0000   0.0000
     0.0000   0.0000   0.0000   0.0000   0.0000   0.0000   0.0000   0.0000
     0.0000   0.0000   0.0000   0.0000   0.0000   0.0000   0.0000   0.0000
     0.0000   0.0000   0.0000   0.0000   0.0000   0.0000   0.0000   0.0000
     0.0000   0.0000   0.0000   0.0000   0.0000   0.0000   0.0000   0.0000
     0.0000   0.0000   0.0000   0.0000   0.0000   0.0000   0.0000   0.0000
     0.0000   0.0000   0.0000   0.0000   0.0000   0.0000   0.0000   0.0000
     0.0000   0.0000   0.0000   0.0000   0.0000   0.0000   0.0000   0.0000
     0.0000   0.0000   0.0000   0.0000   0.0000   0.0000   0.0000   0.0000
     0.0000   0.0000   0.0000   0.0000   0.0000   0.0000   0.0000   0.0000
     0.0000   0.0000   0.0000   0.0000   0.0000   0.0000   0.0000   0.0000
     0.0000   0.0000   0.0000   0.0000   0.0000   0.0000   0.0000   0.0000
     0.0000   0.0000   0.0000   0.0000   0.0000   0.0000   0.0000   0.0000
     0.0000   0.0000   0.0000   0.0000   0.0000   0.0000   0.0000   0.0000
     0.0000   0.0000   0.0000   0.0000   0.0000   0.0000   0.0000   0.0000

          k =-0.0000 0.1437 0.0000 (281561 PWs)   bands (ev):

  -160.7556-160.7556-117.5883-117.5883 -64.6137 -64.6137 -64.5967 -64.5967
   -53.6688 -53.6688 -53.6496 -53.6496 -53.6379 -53.6379 -53.6329 -53.6329
   -53.6217 -53.6217 -53.6184 -53.6184 -53.6084 -53.6084 -53.6064 -53.6064
   -53.6056 -53.6056 -53.6018 -53.6018 -53.5988 -53.5988 -53.5861 -53.5861
   -53.5849 -53.5849 -53.5839 -53.5839 -53.5766 -53.5766 -53.5764 -53.5764
   -53.5675 -53.5675 -53.5669 -53.5669 -53.5582 -53.5582 -53.5447 -53.5447
   -53.5408 -53.5408 -53.5405 -53.5405 -53.5374 -53.5374 -53.5347 -53.5347
   -53.5265 -53.5265 -53.5255 -53.5255 -53.5238 -53.5238 -53.5227 -53.5227
   -53.5207 -53.5207 -53.5164 -53.5164 -53.5092 -53.5092 -53.5055 -53.5055
   -53.5021 -53.5021 -53.4828 -53.4828 -53.4785 -53.4785 -53.4720 -53.4720
   -53.4704 -53.4704 -53.4542 -53.4542 -53.4539 -53.4539 -53.4495 -53.4495
   -53.4414 -53.4414 -53.4367 -53.4367 -53.4363 -53.4363 -53.4275 -53.4275
   -53.4252 -53.4252 -53.4250 -53.4250 -53.4139 -53.4139 -53.4064 -53.4064
   -53.3992 -53.3992 -53.3898 -53.3898 -53.3809 -53.3809 -53.3790 -53.3790
   -53.3721 -53.3721 -53.3709 -53.3709 -53.3626 -53.3626 -53.3561 -53.3561
   -53.3536 -53.3536 -53.3490 -53.3490 -53.3478 -53.3478 -53.3476 -53.3476
   -53.3449 -53.3449 -53.3445 -53.3445 -53.3318 -53.3318 -53.3248 -53.3248
   -53.3206 -53.3206 -53.3193 -53.3193 -53.3172 -53.3172 -53.3115 -53.3115
   -53.3042 -53.3042 -53.2876 -53.2876 -53.2873 -53.2873 -53.2854 -53.2854
   -53.2853 -53.2853 -53.2704 -53.2704 -53.2646 -53.2646 -53.2622 -53.2622
   -53.2619 -53.2619 -53.2551 -53.2551 -53.2541 -53.2541 -53.2539 -53.2539
   -53.2479 -53.2479 -53.2408 -53.2408 -53.2374 -53.2374 -53.2324 -53.2324
   -53.2289 -53.2289 -53.2187 -53.2187 -53.2137 -53.2137 -53.2126 -53.2126
   -53.2041 -53.2041 -53.2026 -53.2026 -53.1919 -53.1919 -53.1872 -53.1872
   -53.1857 -53.1857 -53.1842 -53.1842 -53.1719 -53.1719 -53.1594 -53.1594
   -53.1572 -53.1572 -53.1553 -53.1553 -53.1538 -53.1538 -53.1487 -53.1487
   -53.1355 -53.1355 -53.1275 -53.1275 -53.1015 -53.1015 -53.0826 -53.0826
   -53.0649 -53.0649 -53.0189 -53.0189 -52.9662 -52.9662 -52.9076 -52.9076
   -52.8120 -52.8120 -52.8004 -52.8004 -52.7867 -52.7867 -52.7757 -52.7757
   -52.7681 -52.7681 -52.7664 -52.7664 -52.7574 -52.7574 -52.7535 -52.7535
   -52.7500 -52.7500 -52.7498 -52.7498 -52.7459 -52.7459 -52.7321 -52.7321
   -52.7293 -52.7293 -52.7276 -52.7276 -52.7247 -52.7247 -52.7245 -52.7245
   -52.7154 -52.7154 -52.7152 -52.7152 -52.7059 -52.7059 -52.6929 -52.6929
   -52.6892 -52.6892 -52.6874 -52.6874 -52.6859 -52.6859 -52.6821 -52.6821
   -52.6743 -52.6743 -52.6726 -52.6726 -52.6725 -52.6725 -52.6706 -52.6706
   -52.6674 -52.6674 -52.6631 -52.6631 -52.6571 -52.6571 -52.6524 -52.6524
   -52.6496 -52.6496 -52.6276 -52.6276 -52.6219 -52.6219 -52.6173 -52.6173
   -52.6162 -52.6162 -52.6133 -52.6133 -52.5982 -52.5982 -52.5980 -52.5980
   -52.5928 -52.5928 -52.5856 -52.5856 -52.5810 -52.5810 -52.5775 -52.5775
   -52.5716 -52.5716 -52.5701 -52.5701 -52.5693 -52.5693 -52.5677 -52.5677
   -52.5630 -52.5630 -52.5578 -52.5578 -52.5571 -52.5571 -52.5510 -52.5510
   -52.5487 -52.5487 -52.5464 -52.5464 -52.5413 -52.5413 -52.5383 -52.5383
   -52.5348 -52.5348 -52.5324 -52.5324 -52.5311 -52.5311 -52.5285 -52.5285
   -52.5213 -52.5213 -52.5170 -52.5170 -52.5157 -52.5157 -52.5120 -52.5120
   -52.5063 -52.5063 -52.5053 -52.5053 -52.4971 -52.4971 -52.4916 -52.4916
   -52.4886 -52.4886 -52.4756 -52.4756 -52.4721 -52.4721 -52.4705 -52.4704
   -52.4697 -52.4697 -52.4625 -52.4625 -52.4614 -52.4614 -52.4598 -52.4598
   -52.4575 -52.4575 -52.4563 -52.4563 -52.4530 -52.4530 -52.4491 -52.4491
   -52.4479 -52.4479 -52.4477 -52.4477 -52.4453 -52.4453 -52.4453 -52.4453
   -52.4392 -52.4392 -52.4383 -52.4383 -52.4359 -52.4359 -52.4325 -52.4325
   -52.4318 -52.4318 -52.4314 -52.4314 -52.4284 -52.4284 -52.4279 -52.4279
   -52.4269 -52.4269 -52.4249 -52.4249 -52.4238 -52.4238 -52.4228 -52.4228
   -52.4202 -52.4202 -52.4104 -52.4104 -52.4043 -52.4043 -52.4040 -52.4040
   -52.4034 -52.4034 -52.3998 -52.3998 -52.3982 -52.3982 -52.3946 -52.3946
   -52.3920 -52.3920 -52.3907 -52.3907 -52.3815 -52.3815 -52.3790 -52.3790
   -52.3772 -52.3772 -52.3748 -52.3748 -52.3739 -52.3739 -52.3676 -52.3676
   -52.3660 -52.3660 -52.3634 -52.3634 -52.3611 -52.3611 -52.3606 -52.3606
   -52.3489 -52.3489 -52.3488 -52.3488 -52.3462 -52.3462 -52.3457 -52.3457
   -52.3452 -52.3452 -52.3419 -52.3419 -52.3376 -52.3376 -52.3362 -52.3362
   -52.3306 -52.3306 -52.3282 -52.3282 -52.3277 -52.3277 -52.3263 -52.3263
   -52.3233 -52.3233 -52.3174 -52.3174 -52.3170 -52.3170 -52.3131 -52.3131
   -52.3081 -52.3081 -52.3037 -52.3037 -52.3000 -52.3000 -52.2934 -52.2934
   -52.2875 -52.2875 -52.2860 -52.2860 -52.2778 -52.2778 -52.2770 -52.2770
   -52.2727 -52.2727 -52.2721 -52.2721 -52.2609 -52.2609 -52.2592 -52.2592
   -52.2579 -52.2579 -52.2500 -52.2500 -52.2454 -52.2454 -52.2307 -52.2307
   -52.2287 -52.2287 -52.2273 -52.2273 -52.2218 -52.2218 -52.2117 -52.2117
   -52.2088 -52.2088 -52.2044 -52.2044 -52.1767 -52.1767 -52.1580 -52.1580
   -52.1560 -52.1560 -52.1413 -52.1413 -52.0987 -52.0987 -52.0906 -52.0906
   -52.0399 -52.0399 -51.9787 -51.9787 -20.3372 -20.3368 -20.0818 -20.0813
   -20.0555 -20.0550 -20.0147 -20.0130 -19.9710 -19.9705 -19.8646 -19.8640
   -19.8223 -19.8222 -19.7630 -19.7615 -19.7428 -19.7401 -19.6799 -19.6791
   -19.6399 -19.6398 -19.5631 -19.5605 -19.5134 -19.5111 -19.4421 -19.4384
   -19.4212 -19.4187 -19.3583 -19.3545 -19.2686 -19.2644 -19.2006 -19.1964
   -18.7397 -18.7355 -18.5826 -18.5780 -18.5659 -18.5614 -18.5135 -18.5081
   -18.4510 -18.4456 -18.3929 -18.3859 -18.1597 -18.1541 -18.0623 -18.0568
   -18.0429 -18.0391 -18.0081 -18.0004 -17.9634 -17.9569 -17.9103 -17.9005
   -17.4738 -17.4636 -17.4501 -17.4233 -17.0154 -17.0133 -17.0018 -17.0003
   -16.9691 -16.9624 -16.9438 -16.9395 -16.9095 -16.9019 -16.8356 -16.8322
   -16.4044 -16.4007 -16.3934 -16.3908 -16.2811 -16.2791 -16.2558 -16.2529
   -16.2221 -16.2196 -16.1134 -16.1112 -15.7006 -15.6914 -15.6684 -15.6613
   -15.5024 -15.4986 -15.4573 -15.4539 -15.4311 -15.4280 -15.4182 -15.4145
   -15.3730 -15.3671 -15.2350 -15.2306 -15.1563 -15.1521 -15.1117 -15.1073
   -14.9791 -14.9738 -14.6123 -14.6078 -13.9865 -13.9864 -13.2427 -13.2424
   -13.2263 -13.2258 -13.2077 -13.2076 -10.2832 -10.2604 -10.2513 -10.2282
   -10.2170 -10.1908 -10.1106 -10.0985 -10.0862 -10.0684 -10.0364 -10.0162
    -9.9847  -9.9805  -9.9729  -9.9387  -9.9236  -9.9085  -9.8794  -9.8541
    -9.8020  -9.7934  -9.7804  -9.7673  -9.7260  -9.7032  -9.6958  -9.6780
    -9.6597  -9.6531  -9.6452  -9.6423  -9.6318  -9.6208  -9.6113  -9.5893
    -9.5756  -9.5430  -9.5390  -9.5036  -9.4793  -9.4538  -9.4389  -9.3942
    -9.3871  -9.3727  -9.3539  -9.3492  -9.3258  -9.2998  -9.2762  -9.2557
    -9.2479  -9.2232  -9.2054  -9.1971  -9.1816  -9.1725  -9.1639  -9.1539
    -9.1293  -9.1054  -9.0687  -9.0384  -8.9553  -8.9210  -8.9051  -8.8854
    -8.8251  -8.7792  -8.6958  -8.6530  -8.6193  -8.6032  -8.5655  -8.5584
    -8.5285  -8.5166  -8.5064  -8.4721  -8.4521  -8.4247  -8.4120  -8.3807
    -8.3283  -8.3065  -8.2881  -8.2660  -8.2319  -8.2085  -8.1875  -8.1506
    -8.1384  -8.1254  -8.1087  -8.0988  -8.0838  -8.0724  -8.0503  -8.0366
    -7.9886  -7.9756  -7.9677  -7.9469  -7.9112  -7.8725  -7.8660  -7.8313
    -7.4592  -7.4458  -7.3739  -7.3629  -7.2904  -7.2748  -7.2519  -7.2316
    -7.2047  -7.1721  -7.0899  -7.0634  -6.9993  -6.9678  -6.8989  -6.8610
    -6.8314  -6.8226  -6.7929  -6.7679  -6.7473  -6.7260  -6.6983  -6.6729
    -6.6575  -6.6552  -6.6367  -6.6060  -6.5945  -6.5887  -6.5720  -6.5443
    -6.5343  -6.5212  -6.5171  -6.5064  -6.4880  -6.4698  -6.4618  -6.4444
    -6.4409  -6.4014  -6.3984  -6.3840  -6.3625  -6.3563  -6.3375  -6.3173
    -6.2941  -6.2794  -6.2708  -6.2506  -6.2337  -6.2265  -6.2082  -6.1894
    -6.1735  -6.1632  -6.1433  -6.1333  -6.1248  -6.1123  -6.0939  -6.0800
    -6.0638  -6.0574  -6.0477  -6.0423  -6.0238  -6.0090  -5.9914  -5.9744
    -5.9242  -5.9141  -5.8930  -5.8595  -5.8340  -5.8195  -5.7455  -5.7014
    -5.6940  -5.6698  -5.6546  -5.6321  -5.6144  -5.5874  -5.5288  -5.5072
    -5.4336  -5.4067  -5.3885  -5.3773  -5.3614  -5.3428  -5.3182  -5.2919
    -5.2728  -5.2560  -5.2314  -5.1947  -5.1780  -5.1314  -5.0800  -5.0448
    -5.0135  -4.9968  -4.9015  -4.8695  -4.4763  -4.4527  -3.6048  -3.5889
    -3.5215  -3.4945  -3.4763  -3.4466  -3.4309  -3.3848  -3.3662  -3.3355
    -3.3170  -3.2987  -3.2804  -3.2512  -3.2444  -3.2168  -3.1982  -3.1719
    -3.1602  -3.1499  -3.1336  -3.1171  -3.0970  -3.0874  -3.0343  -3.0223
    -3.0065  -2.9928  -2.9891  -2.9784  -2.9652  -2.9496  -2.9482  -2.9276
    -2.9173  -2.9008  -2.8803  -2.8609  -2.8306  -2.8112  -2.7939  -2.7551
    -2.6477  -2.6330  -2.5977  -2.5921  -2.5851  -2.5664  -2.5499  -2.5321
    -2.5201  -2.5089  -2.4836  -2.4719  -2.4661  -2.4521  -2.4381  -2.4226
    -2.4149  -2.4014  -2.3903  -2.3782  -2.3489  -2.3448  -2.3281  -2.3161
    -2.3104  -2.3051  -2.2959  -2.2885  -2.2626  -2.2473  -2.2307  -2.2210
    -2.1851  -2.1754  -2.1626  -2.1529  -2.1245  -2.1138  -2.0832  -2.0414
    -2.0025  -2.0007  -1.9808  -1.9530  -1.9339  -1.9101  -1.8672  -1.8504
    -1.8320  -1.8186  -1.7728  -1.7380  -1.6201  -1.6163  -1.6088  -1.5995
    -1.5896  -1.5803  -1.5622  -1.5558  -1.4441  -1.4390  -1.4215  -1.4112
    -1.3349  -1.3231  -0.1632  -0.1592   0.3287   0.3484   0.6955   0.7197
     0.8026   0.8067   0.9304   0.9382   1.0060   1.0190   1.0565   1.0713
     1.0989   1.1117   1.1216   1.1370   1.1622   1.1807   1.2602   1.2711
     1.3344   1.3420   1.3722   1.3789   1.4126   1.4306   1.4651   1.4901
     1.5171   1.5281   1.5985   1.6088   1.6345   1.6392   1.6497   1.6582
     1.6714   1.6733   1.6933   1.7065   1.7165   1.7287   1.7530   1.7621
     1.7814   1.7971   1.8236   1.8365   1.8991   1.9144   1.9472   1.9643
     2.0133   2.0260   2.0537   2.0678   2.0816   2.0945   2.1077   2.1167
     2.1551   2.1643   2.2150   2.2293   2.2415   2.2548   2.2944   2.3095

     occupation numbers 
     1.0000   1.0000   1.0000   1.0000   1.0000   1.0000   1.0000   1.0000
     1.0000   1.0000   1.0000   1.0000   1.0000   1.0000   1.0000   1.0000
     1.0000   1.0000   1.0000   1.0000   1.0000   1.0000   1.0000   1.0000
     1.0000   1.0000   1.0000   1.0000   1.0000   1.0000   1.0000   1.0000
     1.0000   1.0000   1.0000   1.0000   1.0000   1.0000   1.0000   1.0000
     1.0000   1.0000   1.0000   1.0000   1.0000   1.0000   1.0000   1.0000
     1.0000   1.0000   1.0000   1.0000   1.0000   1.0000   1.0000   1.0000
     1.0000   1.0000   1.0000   1.0000   1.0000   1.0000   1.0000   1.0000
     1.0000   1.0000   1.0000   1.0000   1.0000   1.0000   1.0000   1.0000
     1.0000   1.0000   1.0000   1.0000   1.0000   1.0000   1.0000   1.0000
     1.0000   1.0000   1.0000   1.0000   1.0000   1.0000   1.0000   1.0000
     1.0000   1.0000   1.0000   1.0000   1.0000   1.0000   1.0000   1.0000
     1.0000   1.0000   1.0000   1.0000   1.0000   1.0000   1.0000   1.0000
     1.0000   1.0000   1.0000   1.0000   1.0000   1.0000   1.0000   1.0000
     1.0000   1.0000   1.0000   1.0000   1.0000   1.0000   1.0000   1.0000
     1.0000   1.0000   1.0000   1.0000   1.0000   1.0000   1.0000   1.0000
     1.0000   1.0000   1.0000   1.0000   1.0000   1.0000   1.0000   1.0000
     1.0000   1.0000   1.0000   1.0000   1.0000   1.0000   1.0000   1.0000
     1.0000   1.0000   1.0000   1.0000   1.0000   1.0000   1.0000   1.0000
     1.0000   1.0000   1.0000   1.0000   1.0000   1.0000   1.0000   1.0000
     1.0000   1.0000   1.0000   1.0000   1.0000   1.0000   1.0000   1.0000
     1.0000   1.0000   1.0000   1.0000   1.0000   1.0000   1.0000   1.0000
     1.0000   1.0000   1.0000   1.0000   1.0000   1.0000   1.0000   1.0000
     1.0000   1.0000   1.0000   1.0000   1.0000   1.0000   1.0000   1.0000
     1.0000   1.0000   1.0000   1.0000   1.0000   1.0000   1.0000   1.0000
     1.0000   1.0000   1.0000   1.0000   1.0000   1.0000   1.0000   1.0000
     1.0000   1.0000   1.0000   1.0000   1.0000   1.0000   1.0000   1.0000
     1.0000   1.0000   1.0000   1.0000   1.0000   1.0000   1.0000   1.0000
     1.0000   1.0000   1.0000   1.0000   1.0000   1.0000   1.0000   1.0000
     1.0000   1.0000   1.0000   1.0000   1.0000   1.0000   1.0000   1.0000
     1.0000   1.0000   1.0000   1.0000   1.0000   1.0000   1.0000   1.0000
     1.0000   1.0000   1.0000   1.0000   1.0000   1.0000   1.0000   1.0000
     1.0000   1.0000   1.0000   1.0000   1.0000   1.0000   1.0000   1.0000
     1.0000   1.0000   1.0000   1.0000   1.0000   1.0000   1.0000   1.0000
     1.0000   1.0000   1.0000   1.0000   1.0000   1.0000   1.0000   1.0000
     1.0000   1.0000   1.0000   1.0000   1.0000   1.0000   1.0000   1.0000
     1.0000   1.0000   1.0000   1.0000   1.0000   1.0000   1.0000   1.0000
     1.0000   1.0000   1.0000   1.0000   1.0000   1.0000   1.0000   1.0000
     1.0000   1.0000   1.0000   1.0000   1.0000   1.0000   1.0000   1.0000
     1.0000   1.0000   1.0000   1.0000   1.0000   1.0000   1.0000   1.0000
     1.0000   1.0000   1.0000   1.0000   1.0000   1.0000   1.0000   1.0000
     1.0000   1.0000   1.0000   1.0000   1.0000   1.0000   1.0000   1.0000
     1.0000   1.0000   1.0000   1.0000   1.0000   1.0000   1.0000   1.0000
     1.0000   1.0000   1.0000   1.0000   1.0000   1.0000   1.0000   1.0000
     1.0000   1.0000   1.0000   1.0000   1.0000   1.0000   1.0000   1.0000
     1.0000   1.0000   1.0000   1.0000   1.0000   1.0000   1.0000   1.0000
     1.0000   1.0000   1.0000   1.0000   1.0000   1.0000   1.0000   1.0000
     1.0000   1.0000   1.0000   1.0000   1.0000   1.0000   1.0000   1.0000
     1.0000   1.0000   1.0000   1.0000   1.0000   1.0000   1.0000   1.0000
     1.0000   1.0000   1.0000   1.0000   1.0000   1.0000   1.0000   1.0000
     1.0000   1.0000   1.0000   1.0000   1.0000   1.0000   1.0000   1.0000
     1.0000   1.0000   1.0000   1.0000   1.0000   1.0000   1.0000   1.0000
     1.0000   1.0000   1.0000   1.0000   1.0000   1.0000   1.0000   1.0000
     1.0000   1.0000   1.0000   1.0000   1.0000   1.0000   1.0000   1.0000
     1.0000   1.0000   1.0000   1.0000   1.0000   1.0000   1.0000   1.0000
     1.0000   1.0000   1.0000   1.0000   1.0000   1.0000   1.0000   1.0000
     1.0000   1.0000   1.0000   1.0000   1.0000   1.0000   1.0000   1.0000
     1.0000   1.0000   1.0000   1.0000   1.0000   1.0000   1.0000   1.0000
     1.0000   1.0000   1.0000   1.0000   1.0000   1.0000   1.0000   1.0000
     1.0000   1.0000   1.0000   1.0000   1.0000   1.0000   1.0000   1.0000
     1.0000   1.0000   1.0000   1.0000   1.0000   1.0000   1.0000   1.0000
     1.0000   1.0000   1.0000   1.0000   1.0000   1.0000   1.0000   1.0000
     1.0000   1.0000   1.0000   1.0000   1.0000   1.0000   1.0000   1.0000
     1.0000   1.0000   1.0000   1.0000   1.0000   1.0000   1.0000   1.0000
     1.0000   1.0000   1.0000   1.0000   1.0000   1.0000   1.0000   1.0000
     1.0000   1.0000   1.0000   1.0000   1.0000   1.0000   1.0000   1.0000
     1.0000   1.0000   1.0000   1.0000   1.0000   1.0000   1.0000   1.0000
     1.0000   1.0000   1.0000   1.0000   1.0000   1.0000   1.0000   1.0000
     1.0000   1.0000   1.0000   1.0000   1.0000   1.0000   1.0000   1.0000
     1.0000   1.0000   1.0000   1.0000   1.0000   1.0000   1.0000   1.0000
     1.0000   1.0000   1.0000   1.0000   1.0000   1.0000   1.0000   1.0000
     1.0000   1.0000   1.0000   1.0000   1.0000   1.0000   1.0000   1.0000
     1.0000   1.0000   1.0000   1.0000   1.0000   1.0000   1.0000   1.0000
     1.0000   1.0000   1.0000   1.0000   1.0000   1.0000   1.0000   1.0000
     1.0000   1.0000   1.0000   1.0000   1.0000   1.0000   1.0000   1.0000
     1.0000   1.0000   1.0000   1.0000   1.0000   1.0000   1.0000   1.0000
     1.0000   1.0000   1.0000   1.0000   1.0000   1.0000   1.0000   1.0000
     1.0000   1.0000   1.0000   1.0000   1.0000   1.0000   1.0000   1.0000
     1.0000   1.0000   1.0000   1.0000   1.0000   1.0000   1.0000   1.0000
     1.0000   1.0000   1.0000   1.0000   1.0000   1.0000   1.0000   1.0000
     1.0000   1.0000   1.0000   1.0000   1.0000   1.0000   1.0000   1.0000
     1.0000   1.0000   1.0000   1.0000   1.0000   1.0000   1.0000   1.0000
     1.0000   1.0000   1.0000   1.0000   1.0000   1.0000   1.0000   1.0000
     1.0000   1.0000   1.0000   1.0000   1.0000   1.0000   1.0000   1.0000
     1.0000   1.0000   1.0000   1.0000   1.0000   1.0000   1.0000   1.0000
     1.0000   1.0000   1.0000   1.0000   1.0000   1.0000   1.0000   1.0000
     1.0000   1.0000   1.0000   1.0000   1.0000   1.0000   1.0000   1.0000
     1.0000   1.0000   1.0000   1.0000   1.0000   1.0000   1.0000   1.0000
     1.0000   1.0000   1.0000   1.0000   1.0000   1.0000   1.0000   1.0000
     1.0000   1.0000   1.0000   1.0000   1.0000   1.0000   1.0000   1.0000
     1.0000   1.0000   1.0000   1.0000   1.0000   1.0000   1.0000   1.0000
     1.0000   1.0000   1.0000   1.0000   1.0000   1.0000   1.0000   1.0000
     1.0000   1.0000   1.0000   1.0000   1.0000   1.0000   1.0000   1.0000
     1.0000   1.0000   1.0000   1.0000   1.0000   1.0000   1.0000   1.0000
     1.0000   1.0000   1.0000   1.0000   1.0000   1.0000   1.0000   1.0000
     1.0000   1.0000   1.0000   1.0000   1.0000   1.0000   1.0000   1.0000
     1.0000   1.0000   1.0000   1.0000   1.0000   1.0000   1.0000   1.0000
     1.0000   1.0000   1.0000   1.0000   1.0000   1.0000   1.0000   1.0000
     1.0000   1.0000   1.0000   1.0000   1.0000   1.0000   1.0000   1.0000
     1.0000   1.0000   1.0000   1.0000   1.0000   1.0000   1.0000   1.0000
     1.0000   1.0000   1.0000   1.0000   1.0000   1.0000   1.0000   1.0000
     1.0000   1.0000   1.0000   1.0000   1.0000   1.0000   1.0000   1.0000
     1.0000   1.0000   1.0000   1.0000   1.0000   1.0000   1.0000   1.0000
     1.0000   1.0000   1.0000   1.0000   1.0000   1.0000   1.0000   1.0000
     1.0000   1.0000   1.0000   1.0000   1.0000   1.0000   1.0000   1.0000
     1.0000   1.0000   1.0000   1.0000   1.0000   1.0000   1.0000   1.0000
     1.0000   1.0000   1.0000   1.0000   1.0000   1.0000   1.0000   1.0000
     1.0000   1.0000   1.0000   1.0000   1.0000   1.0000   1.0000   1.0000
     1.0000   1.0000   1.0000   1.0000   1.0000   1.0000   1.0000   1.0000
     1.0000   1.0000   1.0000   1.0000   1.0000   1.0000   1.0000   1.0000
     1.0000   1.0000   1.0000   1.0000   0.9862   0.9813   0.0100   0.0080
     0.0029   0.0019   0.0014   0.0008   0.0006   0.0003   0.0002   0.0001
     0.0001   0.0000   0.0000   0.0000   0.0000   0.0000   0.0000   0.0000
     0.0000   0.0000   0.0000   0.0000   0.0000   0.0000   0.0000   0.0000
     0.0000   0.0000   0.0000   0.0000   0.0000   0.0000   0.0000   0.0000
     0.0000   0.0000   0.0000   0.0000   0.0000   0.0000   0.0000   0.0000
     0.0000   0.0000   0.0000   0.0000   0.0000   0.0000   0.0000   0.0000
     0.0000   0.0000   0.0000   0.0000   0.0000   0.0000   0.0000   0.0000
     0.0000   0.0000   0.0000   0.0000   0.0000   0.0000   0.0000   0.0000
     0.0000   0.0000   0.0000   0.0000   0.0000   0.0000   0.0000   0.0000
     0.0000   0.0000   0.0000   0.0000   0.0000   0.0000   0.0000   0.0000
     0.0000   0.0000   0.0000   0.0000   0.0000   0.0000   0.0000   0.0000
     0.0000   0.0000   0.0000   0.0000   0.0000   0.0000   0.0000   0.0000
     0.0000   0.0000   0.0000   0.0000   0.0000   0.0000   0.0000   0.0000
     0.0000   0.0000   0.0000   0.0000   0.0000   0.0000   0.0000   0.0000
     0.0000   0.0000   0.0000   0.0000   0.0000   0.0000   0.0000   0.0000
     0.0000   0.0000   0.0000   0.0000   0.0000   0.0000   0.0000   0.0000
     0.0000   0.0000   0.0000   0.0000   0.0000   0.0000   0.0000   0.0000
     0.0000   0.0000   0.0000   0.0000   0.0000   0.0000   0.0000   0.0000
     0.0000   0.0000   0.0000   0.0000   0.0000   0.0000   0.0000   0.0000
     0.0000   0.0000   0.0000   0.0000   0.0000   0.0000   0.0000   0.0000
     0.0000   0.0000   0.0000   0.0000   0.0000   0.0000   0.0000   0.0000
     0.0000   0.0000   0.0000   0.0000   0.0000   0.0000   0.0000   0.0000

          k =-0.0000 0.2874 0.0000 (281512 PWs)   bands (ev):

  -160.7556-160.7556-117.5883-117.5883 -64.6137 -64.6137 -64.5967 -64.5967
   -53.6688 -53.6688 -53.6496 -53.6496 -53.6379 -53.6379 -53.6329 -53.6329
   -53.6217 -53.6217 -53.6184 -53.6184 -53.6084 -53.6084 -53.6064 -53.6064
   -53.6056 -53.6056 -53.6018 -53.6018 -53.5988 -53.5988 -53.5861 -53.5861
   -53.5849 -53.5849 -53.5839 -53.5839 -53.5766 -53.5766 -53.5764 -53.5764
   -53.5675 -53.5675 -53.5669 -53.5669 -53.5582 -53.5582 -53.5447 -53.5447
   -53.5408 -53.5408 -53.5405 -53.5405 -53.5374 -53.5374 -53.5347 -53.5347
   -53.5265 -53.5265 -53.5255 -53.5255 -53.5238 -53.5238 -53.5227 -53.5227
   -53.5207 -53.5207 -53.5164 -53.5164 -53.5092 -53.5092 -53.5055 -53.5055
   -53.5021 -53.5021 -53.4828 -53.4828 -53.4785 -53.4785 -53.4720 -53.4720
   -53.4704 -53.4704 -53.4542 -53.4542 -53.4539 -53.4539 -53.4495 -53.4495
   -53.4414 -53.4414 -53.4367 -53.4367 -53.4363 -53.4363 -53.4275 -53.4275
   -53.4252 -53.4252 -53.4250 -53.4250 -53.4139 -53.4139 -53.4064 -53.4064
   -53.3992 -53.3992 -53.3898 -53.3898 -53.3809 -53.3809 -53.3790 -53.3790
   -53.3721 -53.3721 -53.3709 -53.3709 -53.3626 -53.3626 -53.3561 -53.3561
   -53.3536 -53.3536 -53.3490 -53.3490 -53.3478 -53.3478 -53.3476 -53.3476
   -53.3449 -53.3449 -53.3445 -53.3445 -53.3318 -53.3318 -53.3248 -53.3248
   -53.3206 -53.3206 -53.3193 -53.3193 -53.3172 -53.3172 -53.3115 -53.3115
   -53.3042 -53.3042 -53.2876 -53.2876 -53.2873 -53.2873 -53.2854 -53.2854
   -53.2853 -53.2853 -53.2704 -53.2704 -53.2646 -53.2646 -53.2622 -53.2622
   -53.2619 -53.2619 -53.2551 -53.2551 -53.2541 -53.2541 -53.2539 -53.2539
   -53.2479 -53.2479 -53.2408 -53.2408 -53.2374 -53.2374 -53.2324 -53.2324
   -53.2289 -53.2289 -53.2187 -53.2187 -53.2137 -53.2137 -53.2126 -53.2126
   -53.2041 -53.2041 -53.2026 -53.2026 -53.1919 -53.1919 -53.1872 -53.1872
   -53.1857 -53.1857 -53.1842 -53.1842 -53.1719 -53.1719 -53.1594 -53.1594
   -53.1572 -53.1572 -53.1553 -53.1553 -53.1538 -53.1538 -53.1487 -53.1487
   -53.1355 -53.1355 -53.1275 -53.1275 -53.1015 -53.1015 -53.0826 -53.0826
   -53.0649 -53.0649 -53.0189 -53.0189 -52.9662 -52.9662 -52.9076 -52.9076
   -52.8120 -52.8120 -52.8004 -52.8004 -52.7867 -52.7867 -52.7757 -52.7757
   -52.7681 -52.7681 -52.7664 -52.7664 -52.7574 -52.7574 -52.7535 -52.7535
   -52.7500 -52.7500 -52.7498 -52.7498 -52.7459 -52.7459 -52.7321 -52.7321
   -52.7293 -52.7293 -52.7276 -52.7276 -52.7247 -52.7247 -52.7245 -52.7245
   -52.7154 -52.7154 -52.7152 -52.7152 -52.7059 -52.7059 -52.6929 -52.6929
   -52.6892 -52.6892 -52.6874 -52.6874 -52.6859 -52.6859 -52.6821 -52.6821
   -52.6743 -52.6743 -52.6726 -52.6726 -52.6725 -52.6725 -52.6706 -52.6706
   -52.6674 -52.6674 -52.6631 -52.6631 -52.6571 -52.6571 -52.6524 -52.6524
   -52.6496 -52.6496 -52.6276 -52.6276 -52.6219 -52.6219 -52.6173 -52.6173
   -52.6162 -52.6162 -52.6133 -52.6133 -52.5982 -52.5982 -52.5980 -52.5980
   -52.5928 -52.5928 -52.5856 -52.5856 -52.5810 -52.5810 -52.5775 -52.5775
   -52.5716 -52.5716 -52.5701 -52.5700 -52.5693 -52.5693 -52.5677 -52.5677
   -52.5630 -52.5630 -52.5578 -52.5578 -52.5571 -52.5571 -52.5510 -52.5510
   -52.5487 -52.5487 -52.5464 -52.5464 -52.5413 -52.5413 -52.5383 -52.5383
   -52.5348 -52.5347 -52.5324 -52.5324 -52.5311 -52.5311 -52.5285 -52.5285
   -52.5213 -52.5213 -52.5170 -52.5170 -52.5157 -52.5157 -52.5120 -52.5120
   -52.5063 -52.5063 -52.5053 -52.5053 -52.4971 -52.4971 -52.4916 -52.4916
   -52.4886 -52.4886 -52.4756 -52.4756 -52.4721 -52.4721 -52.4704 -52.4704
   -52.4697 -52.4697 -52.4625 -52.4625 -52.4614 -52.4614 -52.4598 -52.4598
   -52.4575 -52.4575 -52.4563 -52.4563 -52.4530 -52.4530 -52.4491 -52.4491
   -52.4479 -52.4479 -52.4477 -52.4477 -52.4453 -52.4453 -52.4453 -52.4453
   -52.4392 -52.4392 -52.4383 -52.4383 -52.4359 -52.4359 -52.4325 -52.4325
   -52.4318 -52.4318 -52.4314 -52.4314 -52.4284 -52.4284 -52.4279 -52.4279
   -52.4269 -52.4269 -52.4249 -52.4249 -52.4238 -52.4238 -52.4228 -52.4228
   -52.4202 -52.4202 -52.4104 -52.4104 -52.4043 -52.4043 -52.4040 -52.4040
   -52.4034 -52.4034 -52.3998 -52.3998 -52.3982 -52.3982 -52.3946 -52.3946
   -52.3920 -52.3920 -52.3907 -52.3907 -52.3815 -52.3815 -52.3790 -52.3790
   -52.3772 -52.3772 -52.3748 -52.3748 -52.3739 -52.3739 -52.3676 -52.3676
   -52.3660 -52.3660 -52.3634 -52.3634 -52.3611 -52.3611 -52.3606 -52.3606
   -52.3489 -52.3489 -52.3488 -52.3488 -52.3462 -52.3462 -52.3457 -52.3457
   -52.3452 -52.3452 -52.3419 -52.3419 -52.3376 -52.3376 -52.3362 -52.3362
   -52.3306 -52.3306 -52.3282 -52.3282 -52.3277 -52.3277 -52.3263 -52.3263
   -52.3233 -52.3233 -52.3174 -52.3174 -52.3170 -52.3170 -52.3131 -52.3131
   -52.3081 -52.3081 -52.3037 -52.3037 -52.3000 -52.3000 -52.2934 -52.2934
   -52.2875 -52.2875 -52.2860 -52.2860 -52.2778 -52.2778 -52.2770 -52.2770
   -52.2727 -52.2727 -52.2721 -52.2721 -52.2609 -52.2609 -52.2592 -52.2592
   -52.2579 -52.2579 -52.2500 -52.2500 -52.2454 -52.2454 -52.2307 -52.2307
   -52.2287 -52.2287 -52.2273 -52.2273 -52.2218 -52.2218 -52.2117 -52.2117
   -52.2088 -52.2088 -52.2044 -52.2044 -52.1767 -52.1767 -52.1580 -52.1580
   -52.1560 -52.1560 -52.1413 -52.1413 -52.0987 -52.0987 -52.0906 -52.0906
   -52.0399 -52.0399 -51.9787 -51.9787 -20.2984 -20.2976 -20.1312 -20.1296
   -20.0418 -20.0410 -20.0167 -20.0155 -19.9384 -19.9374 -19.8763 -19.8747
   -19.8619 -19.8600 -19.8228 -19.8220 -19.7943 -19.7932 -19.7509 -19.7507
   -19.6741 -19.6717 -19.6130 -19.6106 -19.4643 -19.4611 -19.2630 -19.2592
   -19.2531 -19.2495 -19.1878 -19.1838 -19.1028 -19.0986 -19.0472 -19.0438
   -18.9862 -18.9839 -18.8171 -18.8130 -18.7971 -18.7930 -18.7416 -18.7367
   -18.6735 -18.6682 -18.6115 -18.6054 -17.8586 -17.8485 -17.7989 -17.7890
   -17.7733 -17.7690 -17.7471 -17.7350 -17.7116 -17.7047 -17.6631 -17.6507
   -17.5019 -17.4673 -17.4524 -17.3945 -17.2535 -17.2493 -17.2429 -17.2411
   -17.2074 -17.1999 -17.1862 -17.1805 -17.1611 -17.1380 -17.1248 -17.1130
   -16.2196 -16.2145 -16.2037 -16.1990 -16.0728 -16.0690 -16.0359 -16.0319
   -15.9970 -15.9934 -15.8575 -15.8485 -15.8265 -15.8201 -15.8047 -15.8032
   -15.6665 -15.6605 -15.6059 -15.6000 -15.5586 -15.5526 -15.3969 -15.3939
   -15.3654 -15.3629 -15.2321 -15.2272 -15.1659 -15.1634 -15.0849 -15.0825
   -15.0394 -15.0369 -14.5119 -14.5093 -13.9894 -13.9893 -13.2423 -13.2420
   -13.2263 -13.2259 -13.2078 -13.2077 -10.3422 -10.3255 -10.3154 -10.2985
   -10.2793 -10.2652 -10.1646 -10.1550 -10.1368 -10.1286  -9.9468  -9.9272
    -9.9204  -9.9021  -9.8898  -9.8580  -9.8539  -9.8239  -9.8126  -9.7983
    -9.7808  -9.7707  -9.7524  -9.7267  -9.6858  -9.6782  -9.6608  -9.6555
    -9.6297  -9.6243  -9.6152  -9.6039  -9.5924  -9.5874  -9.5767  -9.5716
    -9.5603  -9.5450  -9.5316  -9.5184  -9.4938  -9.4775  -9.4704  -9.4650
    -9.4535  -9.4295  -9.4133  -9.4043  -9.3572  -9.3395  -9.3167  -9.3016
    -9.2604  -9.2494  -9.2310  -9.2265  -9.1822  -9.1655  -9.1575  -9.1508
    -9.1159  -9.0903  -9.0453  -8.9922  -8.9670  -8.9550  -8.9222  -8.8991
    -8.8842  -8.8475  -8.7247  -8.6729  -8.6622  -8.6437  -8.6295  -8.6114
    -8.5922  -8.5708  -8.5521  -8.5131  -8.3597  -8.3368  -8.3257  -8.2922
    -8.2745  -8.2576  -8.2523  -8.2106  -8.1906  -8.1683  -8.1517  -8.1265
    -8.1103  -8.0932  -8.0845  -8.0626  -8.0489  -8.0419  -8.0261  -7.9989
    -7.9779  -7.9700  -7.9523  -7.9486  -7.9367  -7.9007  -7.8786  -7.8673
    -7.4941  -7.4721  -7.3934  -7.3805  -7.3143  -7.2920  -7.2639  -7.2377
    -7.1925  -7.1750  -7.1591  -7.1480  -7.1342  -7.1005  -7.0389  -6.9573
    -6.9194  -6.9001  -6.8804  -6.8326  -6.8166  -6.8019  -6.7933  -6.7662
[...]
     atom   34 type  1   force =     0.00000000    0.00000000    0.00000000
     atom   35 type  1   force =     0.00000000    0.00000000    0.00000000
     atom   36 type  1   force =     0.00000000    0.00000000    0.00000000
     atom   37 type  1   force =     0.00000000    0.00000000    0.00000000
     atom   38 type  1   force =     0.00000000    0.00000000    0.00000000
     atom   39 type  1   force =     0.00000000    0.00000000    0.00000000
     atom   40 type  1   force =     0.00000000    0.00000000    0.00000000
     atom   41 type  1   force =     0.00000000    0.00000000    0.00000000
     atom   42 type  1   force =     0.00000000    0.00000000    0.00000000
     atom   43 type  1   force =     0.00000000    0.00000000    0.00000000
     atom   44 type  1   force =     0.00000000    0.00000000    0.00000000
     atom   45 type  1   force =     0.00000000    0.00000000    0.00000000
     atom   46 type  1   force =     0.00000000    0.00000000    0.00000000
     atom   47 type  1   force =     0.00000000    0.00000000    0.00000000
     atom   48 type  1   force =     0.00000000    0.00000000    0.00000000
     atom   49 type  1   force =     0.00000000    0.00000000    0.00000000
     atom   50 type  1   force =     0.00000000    0.00000000    0.00000000
     atom   51 type  1   force =     0.00000000    0.00000000    0.00000000
     atom   52 type  1   force =     0.00000000    0.00000000    0.00000000
     atom   53 type  1   force =     0.00000000    0.00000000    0.00000000
     atom   54 type  1   force =     0.00000000    0.00000000    0.00000000
     atom   55 type  2   force =     0.00000000    0.00000000    0.00000000
     The SCF correction term to forces
     atom    1 type  1   force =     0.00000000    0.00000000    0.00000000
     atom    2 type  1   force =     0.00000746    0.00000871   -0.00000628
     atom    3 type  1   force =     0.00000000    0.00000000    0.00000000
     atom    4 type  1   force =    -0.00001913    0.00000016   -0.00000154
     atom    5 type  1   force =     0.00000000    0.00000000    0.00000000
     atom    6 type  1   force =     0.00001291   -0.00000510    0.00000681
     atom    7 type  1   force =     0.00000000    0.00000000    0.00000000
     atom    8 type  1   force =     0.00000330    0.00000680   -0.00000442
     atom    9 type  1   force =     0.00000000    0.00000000    0.00000000
     atom   10 type  1   force =    -0.00001828   -0.00000033   -0.00000275
     atom   11 type  1   force =     0.00000000    0.00000000    0.00000000
     atom   12 type  1   force =     0.00001481   -0.00000456    0.00000689
     atom   13 type  1   force =     0.00000000    0.00000000    0.00000000
     atom   14 type  1   force =     0.00000261    0.00000783   -0.00000393
     atom   15 type  1   force =     0.00000000    0.00000000    0.00000000
     atom   16 type  1   force =    -0.00002087    0.00000039   -0.00000434
     atom   17 type  1   force =     0.00000000    0.00000000    0.00000000
     atom   18 type  1   force =     0.00000620   -0.00000394    0.00000634
     atom   19 type  1   force =     0.00000000    0.00000000    0.00000000
     atom   20 type  1   force =    -0.00000242    0.00000292   -0.00000066
     atom   21 type  1   force =     0.00000000    0.00000000    0.00000000
     atom   22 type  1   force =    -0.00001778   -0.00000290   -0.00000548
     atom   23 type  1   force =     0.00000000    0.00000000    0.00000000
     atom   24 type  1   force =     0.00000894    0.00000457    0.00000622
     atom   25 type  1   force =     0.00000000    0.00000000    0.00000000
     atom   26 type  1   force =     0.00000381    0.00000854   -0.00000504
     atom   27 type  1   force =     0.00000000    0.00000000    0.00000000
     atom   28 type  1   force =    -0.00000387    0.00000040   -0.00000181
     atom   29 type  1   force =     0.00000000    0.00000000    0.00000000
     atom   30 type  1   force =     0.00000667   -0.00000096    0.00000018
     atom   31 type  1   force =     0.00000000    0.00000000    0.00000000
     atom   32 type  1   force =     0.00000838    0.00001101   -0.00000936
     atom   33 type  1   force =     0.00000000    0.00000000    0.00000000
     atom   34 type  1   force =    -0.00002614   -0.00000452   -0.00000501
     atom   35 type  1   force =     0.00000000    0.00000000    0.00000000
     atom   36 type  1   force =     0.00000852    0.00000801    0.00000372
     atom   37 type  1   force =     0.00000000    0.00000000    0.00000000
     atom   38 type  1   force =     0.00000453   -0.00000227   -0.00000608
     atom   39 type  1   force =     0.00000000    0.00000000    0.00000000
     atom   40 type  1   force =    -0.00001930   -0.00001557    0.00000054
     atom   41 type  1   force =     0.00000000    0.00000000    0.00000000
     atom   42 type  1   force =     0.00000559    0.00000371    0.00000299
     atom   43 type  1   force =     0.00000000    0.00000000    0.00000000
     atom   44 type  1   force =    -0.00000246   -0.00000361   -0.00000517
     atom   45 type  1   force =     0.00000000    0.00000000    0.00000000
     atom   46 type  1   force =    -0.00002074   -0.00001295    0.00000103
     atom   47 type  1   force =     0.00000000    0.00000000    0.00000000
     atom   48 type  1   force =     0.00000521   -0.00000189    0.00001535
     atom   49 type  1   force =     0.00000000    0.00000000    0.00000000
     atom   50 type  1   force =     0.00000272    0.00000192   -0.00000686
     atom   51 type  1   force =     0.00000000    0.00000000    0.00000000
     atom   52 type  1   force =    -0.00001476   -0.00000754   -0.00000469
     atom   53 type  1   force =     0.00000000    0.00000000    0.00000000
     atom   54 type  1   force =     0.00001567   -0.00000257    0.00000388
     atom   55 type  2   force =     0.00000005   -0.00000169    0.00003521

     Total force =     0.055571     Total SCF correction =     0.000086

     BFGS Geometry Optimization
     Energy error            =      3.7E-03 Ry
     Gradient error          =      2.6E-02 Ry/Bohr

     number of scf cycles    =   1
     number of bfgs steps    =   0

     energy             new  =  -13476.0216669375 Ry

     new trust radius        =       0.0332772289 bohr
     new conv_thr            =       0.0000000010 Ry


ATOMIC_POSITIONS (angstrom)
Se               1.6508891315        1.6837469017        3.7833800375    0   0   0
Se               3.8796639475        1.6708885120        7.4221745445
Se               3.1642919993        3.3592241142        2.8896998588    0   0   0
Se               0.9935759092        3.3721910663        6.6069396844
Se               1.7096930034        0.0137894932        2.0725911422    0   0   0
Se               3.8130184026        0.0035384445        5.7096109612
Se               6.0005782781        1.6837487630        3.7833778388    0   0   0
Se               8.2206813269        1.6743754410        7.4234801650
Se               7.5139785082        3.3592256570        2.8896932891    0   0   0
Se               5.3478120170        3.3603068464        6.5948997599
Se               6.0593769531        0.0137906478        2.0725890956    0   0   0
Se               8.1459152029        0.1099292137        5.6300223564
Se              10.3502724514        1.6837465223        3.7833710186    0   0   0
Se              12.6011217730        1.6656650276        7.4234553659
Se              11.8636766103        3.3592235671        2.8896932602    0   0   0
Se               9.7317360109        3.2962251413        6.5847053265
Se              10.4090773600        0.0137883654        2.0725834475    0   0   0
Se              12.5622280282        0.0218930876        5.6802151325
Se               1.6506855375        6.7280182182        3.7833117340    0   0   0
Se               3.8745199743        6.7012749809        7.4138971952
Se               3.1639926932        8.4039276883        2.8898890194    0   0   0
Se               0.9816494900        8.4143415910        6.6002108011
Se               1.7096973664        5.0585201930        2.0721673571    0   0   0
Se               3.8289422224        5.0284286461        5.6995052298
Se               6.0003746542        6.7280201319        3.7833094929    0   0   0
Se               8.4278477586        6.6639679528        7.0549324868
Se               7.5136792004        8.4039291964        2.8898825031    0   0   0
Se               5.2960563960        8.3977331266        6.5574798707
Se               6.0593813340        5.0585212997        2.0721652760    0   0   0
Se               8.1974999656        4.8329631787        5.5120801904
Se              10.3500690377        6.7280178865        3.7833025820    0   0   0
Se              12.5685994989        6.7062320590        7.3949220739
Se              11.8633773323        8.4039271251        2.8898823950    0   0   0
Se               9.8313668854        8.3297171954        6.0702945444
Se              10.4090817311        5.0585189658        2.0721595301    0   0   0
Se              12.5298690386        5.0324040620        5.6825192744
Se               1.6506538675       11.7727124308        3.7839128968    0   0   0
Se               3.8825735575       11.7652998801        7.4160907221
Se               3.1642562799       13.4480706906        2.8903550029    0   0   0
Se               0.9882077190       13.4574117002        6.5964245713
Se               1.7094434988       10.1032963955        2.0726019891    0   0   0
Se               3.7951860240       10.0990450998        5.6919741017
Se               6.0003428289       11.7727143070        3.7839105841    0   0   0
Se               8.3272017303       11.8776609082        7.0903279050
Se               7.5139427049       13.4480722022        2.8903484928    0   0   0
Se               5.3400629670       13.4624072282        6.5945625255
Se               6.0591274158       10.1032975129        2.0725999284    0   0   0
Se               8.3098102355       10.0985666586        5.3750430991
Se              10.3500372389       11.7727120227        3.7839038076    0   0   0
Se              12.5810874239       11.7566033712        7.4130090879
Se              11.8636409029       13.4480700929        2.8903483656    0   0   0
Se               9.7867770353       13.6696390868        6.4442342387
Se              10.4088279598       10.1032953896        2.0725941285    0   0   0
Se              12.5334991489       10.0924738150        5.6828541939
Fl               7.6111744997        9.2979758521        8.5646144481



     Writing config-only to output data dir ./pwscf.save/ :
     XML data file
     NEW-OLD atomic charge density approx. for the potential

     negative rho (up, down):  1.954E-04 0.000E+00

     total cpu time spent up to now is    38626.8 secs

     Self-consistent Calculation

     iteration #  1     ecut=    80.00 Ry     beta= 0.20
     Davidson diagonalization with overlap

---- Real-time Memory Report at c_bands before calling an iterative solver
          6100 MiB given to the printing process from OS
         -1823 MiB allocation reported by mallinfo(arena+hblkhd)
       1247994 MiB available memory on the node where the printing process lives
------------------

===================================================================================
=   BAD TERMINATION OF ONE OF YOUR APPLICATION PROCESSES
=   RANK 15 PID 88824 RUNNING AT n05p017
=   KILLED BY SIGNAL: 9 (Killed)
===================================================================================

===================================================================================
=   BAD TERMINATION OF ONE OF YOUR APPLICATION PROCESSES
=   RANK 16 PID 88825 RUNNING AT n05p017
=   KILLED BY SIGNAL: 9 (Killed)
===================================================================================

===================================================================================
=   BAD TERMINATION OF ONE OF YOUR APPLICATION PROCESSES
=   RANK 17 PID 88826 RUNNING AT n05p017
=   KILLED BY SIGNAL: 9 (Killed)
===================================================================================

===================================================================================
=   BAD TERMINATION OF ONE OF YOUR APPLICATION PROCESSES
=   RANK 18 PID 88827 RUNNING AT n05p017
=   KILLED BY SIGNAL: 9 (Killed)
===================================================================================

===================================================================================
=   BAD TERMINATION OF ONE OF YOUR APPLICATION PROCESSES
=   RANK 19 PID 88828 RUNNING AT n05p017
=   KILLED BY SIGNAL: 9 (Killed)
===================================================================================

===================================================================================
=   BAD TERMINATION OF ONE OF YOUR APPLICATION PROCESSES
=   RANK 20 PID 88829 RUNNING AT n05p017
=   KILLED BY SIGNAL: 9 (Killed)
===================================================================================

===================================================================================
=   BAD TERMINATION OF ONE OF YOUR APPLICATION PROCESSES
=   RANK 21 PID 88830 RUNNING AT n05p017
=   KILLED BY SIGNAL: 9 (Killed)
===================================================================================

===================================================================================
=   BAD TERMINATION OF ONE OF YOUR APPLICATION PROCESSES
=   RANK 22 PID 88831 RUNNING AT n05p017
=   KILLED BY SIGNAL: 9 (Killed)
===================================================================================

===================================================================================
=   BAD TERMINATION OF ONE OF YOUR APPLICATION PROCESSES
=   RANK 23 PID 88832 RUNNING AT n05p017
=   KILLED BY SIGNAL: 9 (Killed)
===================================================================================

===================================================================================
=   BAD TERMINATION OF ONE OF YOUR APPLICATION PROCESSES
=   RANK 24 PID 88833 RUNNING AT n05p017
=   KILLED BY SIGNAL: 9 (Killed)
===================================================================================

===================================================================================
=   BAD TERMINATION OF ONE OF YOUR APPLICATION PROCESSES
=   RANK 25 PID 88834 RUNNING AT n05p017
=   KILLED BY SIGNAL: 9 (Killed)
===================================================================================

===================================================================================
=   BAD TERMINATION OF ONE OF YOUR APPLICATION PROCESSES
=   RANK 26 PID 88835 RUNNING AT n05p017
=   KILLED BY SIGNAL: 9 (Killed)
===================================================================================

===================================================================================
=   BAD TERMINATION OF ONE OF YOUR APPLICATION PROCESSES
=   RANK 28 PID 88837 RUNNING AT n05p017
=   KILLED BY SIGNAL: 9 (Killed)
===================================================================================

===================================================================================
=   BAD TERMINATION OF ONE OF YOUR APPLICATION PROCESSES
=   RANK 29 PID 88838 RUNNING AT n05p017
=   KILLED BY SIGNAL: 9 (Killed)
===================================================================================

===================================================================================
=   BAD TERMINATION OF ONE OF YOUR APPLICATION PROCESSES
=   RANK 75 PID 88839 RUNNING AT n05p017
=   KILLED BY SIGNAL: 9 (Killed)
===================================================================================

===================================================================================
=   BAD TERMINATION OF ONE OF YOUR APPLICATION PROCESSES
=   RANK 76 PID 88840 RUNNING AT n05p017
=   KILLED BY SIGNAL: 9 (Killed)
===================================================================================

===================================================================================
=   BAD TERMINATION OF ONE OF YOUR APPLICATION PROCESSES
=   RANK 77 PID 88841 RUNNING AT n05p017
=   KILLED BY SIGNAL: 9 (Killed)
===================================================================================

===================================================================================
=   BAD TERMINATION OF ONE OF YOUR APPLICATION PROCESSES
=   RANK 78 PID 88842 RUNNING AT n05p017
=   KILLED BY SIGNAL: 9 (Killed)
===================================================================================

===================================================================================
=   BAD TERMINATION OF ONE OF YOUR APPLICATION PROCESSES
=   RANK 79 PID 88843 RUNNING AT n05p017
=   KILLED BY SIGNAL: 9 (Killed)
===================================================================================

===================================================================================
=   BAD TERMINATION OF ONE OF YOUR APPLICATION PROCESSES
=   RANK 80 PID 88844 RUNNING AT n05p017
=   KILLED BY SIGNAL: 9 (Killed)
===================================================================================

===================================================================================
=   BAD TERMINATION OF ONE OF YOUR APPLICATION PROCESSES
=   RANK 81 PID 88845 RUNNING AT n05p017
=   KILLED BY SIGNAL: 9 (Killed)
===================================================================================

===================================================================================
=   BAD TERMINATION OF ONE OF YOUR APPLICATION PROCESSES
=   RANK 82 PID 88846 RUNNING AT n05p017
=   KILLED BY SIGNAL: 9 (Killed)
===================================================================================

===================================================================================
=   BAD TERMINATION OF ONE OF YOUR APPLICATION PROCESSES
=   RANK 83 PID 88847 RUNNING AT n05p017
=   KILLED BY SIGNAL: 9 (Killed)
===================================================================================

===================================================================================
=   BAD TERMINATION OF ONE OF YOUR APPLICATION PROCESSES
=   RANK 84 PID 88848 RUNNING AT n05p017
=   KILLED BY SIGNAL: 9 (Killed)
===================================================================================

===================================================================================
=   BAD TERMINATION OF ONE OF YOUR APPLICATION PROCESSES
=   RANK 85 PID 88849 RUNNING AT n05p017
=   KILLED BY SIGNAL: 9 (Killed)
===================================================================================

===================================================================================
=   BAD TERMINATION OF ONE OF YOUR APPLICATION PROCESSES
=   RANK 86 PID 88850 RUNNING AT n05p017
=   KILLED BY SIGNAL: 9 (Killed)
===================================================================================

===================================================================================
=   BAD TERMINATION OF ONE OF YOUR APPLICATION PROCESSES
=   RANK 87 PID 88851 RUNNING AT n05p017
=   KILLED BY SIGNAL: 9 (Killed)
===================================================================================

===================================================================================
=   BAD TERMINATION OF ONE OF YOUR APPLICATION PROCESSES
=   RANK 88 PID 88852 RUNNING AT n05p017
=   KILLED BY SIGNAL: 9 (Killed)
===================================================================================

===================================================================================
=   BAD TERMINATION OF ONE OF YOUR APPLICATION PROCESSES
=   RANK 89 PID 88853 RUNNING AT n05p017
=   KILLED BY SIGNAL: 9 (Killed)
===================================================================================
