

 Parallel Execution: Process Information
 ==============================================================================
 Rank   Node Name                              NodeID   MyNodeRank  NodeMaster
    0   adf1                                      0          0          0
    1   adf1                                      0          1         -1
    2   adf1                                      0          2         -1
    3   adf1                                      0          3         -1
    4   adf1                                      0          4         -1
    5   adf1                                      0          5         -1
    6   adf1                                      1          0          1
    7   adf1                                      1          1         -1
    8   adf1                                      1          2         -1
    9   adf1                                      1          3         -1
   10   adf1                                      1          4         -1
   11   adf1                                      1          5         -1
 ==============================================================================


May use up to 11697MB of RAM as shared memory on node 0
May use up to 11718MB of RAM as shared memory on node 1

 *******************************************************************************
 *                                                                             *
 *  --------------------------------                                           *
 *   Amsterdam Modeling Suite (AMS)              2021.105                      *
 *  --------------------------------                                           *
 *                                               r97261 2021-09-16             *
 *                                                                             *
 *                                                                             *
 *                              =================                              *
 *                              |               |                              *
 *                              |     A M S     |                              *
 *                              |               |                              *
 *                              =================                              *
 *                                                                             *
 *                                                                             *
 *   Online information and documentation:  https://www.scm.com/support/       *
 *   E-mail:  support@scm.com   info@scm.com                                   *
 *                                                                             *
 *   Scientific publications using AMS results must be properly referenced     *
 *   See the User Manuals (or the web site) for recommended citations          *
 *   The terms and conditions of the End User License Agreement apply to       *
 *   the use of AMS, https://www.scm.com/license-terms/                        *
 *                                                                             *
 **********************  x86_64_linux_intel / intelmpi  ************************
 
 Licensed to: Dr. Miroslav Ilias / Matej Bel University, Department Chemistry, Fac. Natural Sciences / Banska Bystrica / SLOVAKIA
 SCM User ID: u17848
  
 AMS 2021.105  RunTime: Nov04-2021 21:05:23  ShM Nodes: 2  Procs: 12

 AMS jobname: ams
 AMS jobid  : 1174792250

 Start   directory: /home/milias/Work/projects/open-collection/theoretical_chemistry/projects/lead_water_complexes/adf/Pb_1H2O/srzora/tmp.milias.26230.0.noindex/
 Results directory: /home/milias/Work/projects/open-collection/theoretical_chemistry/projects/lead_water_complexes/adf/Pb_1H2O/srzora/Pb-1H2O.geoptfreq_srzora_dzp_sc.results/
 Scratch directory: /tmp/amstmp_ams_kid0.1174792250/


 Communication costs MPI_COMM_WORLD:      2.830 usec per message,   0.0272 usec per 8-byte item
 Communication costs for intra-node:      1.617 usec per message,   0.0131 usec per 8-byte item

 RNG seed: -2032800647 885976995 588006095 -1579605746 -1339630270 1918141901 -223322018 -1030696986



                     *************************************************************************
                     *  ADF 2021.105  RunTime: Nov04-2021 21:05:24  ShM Nodes: 2  Procs: 12  *
                     *************************************************************************
  
       ***************************
       *  GEOMETRY OPTIMIZATION  *
       ***************************

Optimization Method                    Quasi Newton
Optimization Coordinates               Delocalized Coordinates
Optimize lattice                       F
 
 ------------------------------------------------------
 Convergence criteria (Hartree,Angstrom)
 ------------------------------------------------------
 Maximum gradient               0.001000000000
 Maximum rms gradient           0.000666666667
 Maximum step allowed           0.010000000000
 Maximum rms step allowed       0.006666666667
 Maximum energy change allowe   0.000040000000
 Maximum stress energy allowe   0.000500000000
 
Initial model Hessian                  Automatic Hessian
 
------------------------------------
Quasi-Newton Optimizer Parameters
------------------------------------
Hessian Update Method                  BFGS
Maximum number of steps                  250
First GDIIS cycle                          0
Maximum GDIIS vectors                      0
Trust radius (bohr)                        0.200000
Trust radius varies                        T
Constraints converged at all steps         T
Use projector                              T
 
 Rigid motions settings for: old optimizer
 Atomic rotations (x,y,z):     T T T
 Atomic translations (x,y,z):  T T T
 Tolerance:                   1.000000000000000E-006
 
--------
Geometry
--------
Formula: H2OPb
Atoms
  Index Symbol   x (angstrom)   y (angstrom)   z (angstrom)
      1     Pb     0.00000000     0.00000000     2.06413261
      2      H     0.00000000    -0.79943125    -0.88821263
      3      H     0.00000000     0.79943125    -0.88821263
      4      O     0.00000000     0.00000000    -0.28770735
 
Total System Charge             2.00000
Bonding info available!
 
 
----------------
ADF Engine Input
----------------
 
 Basis
 Type DZP
 Core Small
 End
 XC
 GGA BP86
 End
 

 Title: *** (NO TITLE) ***

Number of symmetry operators: 4
Schoenflies symbol:           C(2V)
 Using automatic Hessian for delocalized coordinates.
 *** GOStep1 ***

 Energy gradients wrt nuclear displacements
 ==========================================

     Atom      Cartesian (a.u./angstrom)
                 X         Y         Z
 ----------------------------------------
     1 Pb    0.000000  0.000000 -0.000288
     2 H     0.000000 -0.000184  0.000231
     3 H     0.000000  0.000184  0.000231
     4 O     0.000000  0.000000 -0.000174
 ----------------------------------------
 Mulliken charges used for AMS results%charges...
 
----------------------------------------------------------------------
Geometry Convergence after Step   1       (Hartree/Angstrom,Angstrom)
----------------------------------------------------------------------
current energy                                0.14321831 Hartree
energy change                       0.14321831     0.00004000    F
constrained gradient max            0.00028789     0.00100000    T
constrained gradient rms            0.00015476     0.00066667    T
gradient max                        0.00028789
gradient rms                        0.00015476
cart. step max                      0.00031365     0.01000000    T
cart. step rms                      0.00017814     0.00666667    T
 
 
--------
Geometry
--------
Formula: H2OPb
Atoms
  Index Symbol   x (angstrom)   y (angstrom)   z (angstrom)
      1     Pb     0.00000000     0.00000000     2.06444626
      2      H     0.00000000    -0.79914903    -0.88843990
      3      H    -0.00000000     0.79914903    -0.88843990
      4      O     0.00000000    -0.00000000    -0.28756646
 
Total System Charge             2.00000
Bonding info available!
 
 *** GOStep2 ***

 Energy gradients wrt nuclear displacements
 ==========================================

     Atom      Cartesian (a.u./angstrom)
                 X         Y         Z
 ----------------------------------------
     1 Pb    0.000000  0.000000 -0.000235
     2 H     0.000000 -0.000058  0.000134
     3 H     0.000000  0.000058  0.000134
     4 O     0.000000  0.000000 -0.000034
 ----------------------------------------
 Mulliken charges used for AMS results%charges...
 
---------------------------------------------------------
Geometry Convergence after Step   2       ** CONVERGED **
---------------------------------------------------------
current energy                                0.14321827 Hartree
energy change                      -0.00000004     0.00004000    T
constrained gradient max            0.00023522     0.00100000    T
constrained gradient rms            0.00009104     0.00066667    T
gradient max                        0.00023522
gradient rms                        0.00009104
cart. step max                      0.00045870     0.01000000    T
cart. step rms                      0.00021794     0.00666667    T
 
Geometry optimization converged

Optimized geometry:
 
--------
Geometry
--------
Formula: H2OPb
Atoms
  Index Symbol   x (angstrom)   y (angstrom)   z (angstrom)
      1     Pb     0.00000000     0.00000000     2.06444626
      2      H     0.00000000    -0.79914903    -0.88843990
      3      H    -0.00000000     0.79914903    -0.88843990
      4      O     0.00000000    -0.00000000    -0.28756646
 
Total System Charge             2.00000
Bonding info available!
 
Performing a single point calculation on the final geometry ...

 *** adf ***



 ===========================
 A T T A C H E D   F I L E S
 ===========================
  
 Restart/tmp/amstmp_ams_kid0.1174792250/GOStep2.rkf*** GOStep2 ***



 ===============================
 M O D E L   P A R A M E T E R S
 ===============================
  
 DENSITY FUNCTIONAL POTENTIAL (scf)
    LDA:                               VWN                                      
    Gradient Corrections:              Becke88 Perdew86                        == Not Default ==

 SPIN  (restricted / unrestr.)
    Molecule:                          Restricted                               
    Fragments:                         Restricted                               

 OTHER ASPECTS
    Relativistic Corrections:          scalar (ZORA,MAPA)                       

    Nuclear Charge Density Model:      Point Charge Nuclei                      
    Core Treatment:                    Frozen Orbital(s)                        

    Hyperfine or Zeeman Interaction:   ---                                      



 ===============
 G E O M E T R Y  ***  Planar Molecule  ***
 ===============
  

 ATOMS
 =====                            X Y Z                    CHARGE
                                (Angstrom)             Nucl     +Core       At.Mass
                       --------------------------    ----------------       -------
    1  Pb              0.0000    0.0000    2.0644     82.00     36.00      207.9766
    2  H               0.0000   -0.7991   -0.8884      1.00      1.00        1.0078
    3  H              -0.0000    0.7991   -0.8884      1.00      1.00        1.0078
    4  O               0.0000   -0.0000   -0.2876      8.00      6.00       15.9949


 FRAGMENTS
 =========                                     Atoms in this Fragment     Cart. coord.s (Angstrom)
                                               -------------------------------------------------------
    1  Pb                                                1  Pb           0.0000    0.0000    2.0644
    2  H                                                 2  H            0.0000   -0.7991   -0.8884
    3  H                                                 3  H           -0.0000    0.7991   -0.8884
    4  O                                                 4  O            0.0000   -0.0000   -0.2876


 Interatomic Distance Matrix (Angstrom)
 --------------------------------------

   1)     0.000
   2)     3.059   0.000
   3)     3.059   1.598   0.000
   4)     2.352   1.000   1.000   0.000

 Min. Distance =    0.9998
 Max. Distance =    3.0591



 =====================================
 S Y M M E T R Y ,   E L E C T R O N S
 =====================================
  
 Symmetry: C(2V)

 Irreducible Representations, including subspecies
 -------------------------------------------------
 A1
 A2
 B1
 B2


 Configuration of Valence Electrons
 ==================================
 ( determined in the SCF procedure )

 Total:   42

 Net Charge: 2 (Nuclei minus Electrons)

 Aufbau principle for MO occupations will be applied through SCF cycle no.     150
 Thereafter, the program will assign electrons to MOs that are spatially
 similar to the occupied MOs in a "reference" cycle ("KeepOrbitals").
 The reference cycle is always the PREVIOUS cycle: it will evolve with
 the SCF procedure.
1
 ***************************************************************************************************



                                      ****************************************
                                      *  B U I L D : (Fragments, Functions)  *
                                      ****************************************
  



 =======
 S F O s  ***  (Symmetrized Fragment Orbitals)  ***
 =======
  
 SFOs are linear combinations of (valence) Fragment Orbitals (FOs), such that the SFOs transform as the
 irreducible representations of the (molecular) symmetry group. Each SFO is therefore characterized by
 an irrep of the molecule and by a few (or only one) generating FOs.
 The SFOs constitute a symmetry-adapted basis for the Fock matrix. The MO eigenvector coefficients in
 this basis provide a direct interpretation of the MOs in terms of Frontier Orbital Theory.

 The SFOs are combined with auxiliary Core Functions (CFs) to ensure orthogonalization on the (frozen)
 Core Orbitals (COs). The Core-orthogonalized SFOs (CSFOs) constitute the true Fock basis.

 The FOs, and hence also the (C)SFOs are combinations of the elementary basis functions (BAS). The basis
 functions that participate in the description of the SFOs depend on the irrep. The indices of the
 involved functions are printed below for each irrep.
 (The complete list of primitive basis functions is printed in another section)

 Total nr. of (C)SFOs (summation over all irreps) :    80

 NOTE: a (C)SFO that is defined as a combination of more than one FO is usually NOT normalized.



                                       === A1 ===
 Nr. of SFOs :   33
 Cartesian basis functions that participate in this irrep (total number =    58) :
      1     2     3     4     7    10    13    19    25    14
     17    20    23   105    26    27    28    29    30    31
     34    37    40    43    46    52    58    64    47    50
     53    56    59    62    74    84    94    67    72    77
     82    87    92    95   100    96   101    99   104    98
    103   106   107   110   113   119   114   117

    SFO  (index         Fragment          Generating    Expansion in Fragment Orbitals
  indx  incl.CFs)   Occup   Orb.Energy   FragmentType  Coeff.   Orbital     on Fragment
 --------------------------------------------------------------------------------------
     1      15      2.000      -5.257 au  Pb            1.00      1 S               1
                        (    -143.049 eV)
     2      16      2.000      -0.444 au  Pb            1.00      2 S               1
                        (     -12.093 eV)
     3      17       --         0.063 au  Pb            1.00      3 S               1
                        (       1.706 eV)
     4      18       --         0.955 au  Pb            1.00      4 S               1
                        (      25.999 eV)
     5      19       --         5.713 au  Pb            1.00      5 S               1
                        (     155.468 eV)
     6      20       --      3692.882 au  Pb            1.00      6 S               1
                        (  100488.432 eV)
     7      21      2.000      -3.139 au  Pb            1.00      1 P:z             1
                        (     -85.422 eV)
     8      22      0.667      -0.133 au  Pb            1.00      2 P:z             1
                        (      -3.632 eV)
     9      23       --         0.045 au  Pb            1.00      3 P:z             1
                        (       1.212 eV)
    10      24       --         0.426 au  Pb            1.00      4 P:z             1
                        (      11.596 eV)
    11      25       --         3.056 au  Pb            1.00      5 P:z             1
                        (      83.146 eV)
    12      26      2.000      -0.786 au  Pb            1.00      1 D:z2            1
                        (     -21.381 eV)
    13      27       --         0.427 au  Pb            1.00      2 D:z2            1
                        (      11.626 eV)
    14      28       --         3.399 au  Pb            1.00      3 D:z2            1
                        (      92.482 eV)
    15      29      2.000      -0.786 au  Pb            1.00      1 D:x2-y2         1
                        (     -21.381 eV)
    16      30       --         0.427 au  Pb            1.00      2 D:x2-y2         1
                        (      11.626 eV)
    17      31       --         3.399 au  Pb            1.00      3 D:x2-y2         1
                        (      92.482 eV)
    18      32      2.000      -4.933 au  Pb            1.00      1 F:z3            1
                        (    -134.237 eV)
    19      33       --         4.295 au  Pb            1.00      2 F:z3            1
                        (     116.866 eV)
    20      34       --        36.958 au  Pb            1.00      3 F:z3            1
                        (    1005.677 eV)
    21      35      2.000      -4.933 au  Pb            1.00      1 F:z             1
                        (    -134.237 eV)
    22      36       --         4.295 au  Pb            1.00      2 F:z             1
                        (     116.866 eV)
    23      37       --        36.958 au  Pb            1.00      3 F:z             1
                        (    1005.677 eV)
    24      38      1.000      -0.245 au  H             0.71      1 S               2
                        (      -6.661 eV)               0.71      1 S               3
    25      39       --         0.387 au  H             0.71      2 S               2
                        (      10.544 eV)               0.71      2 S               3
    26      40       --         0.398 au  H             0.71      1 P:y             2
                        (      10.843 eV)              -0.71      1 P:y             3
    27      41       --         0.398 au  H             0.71      1 P:z             2
                        (      10.843 eV)               0.71      1 P:z             3
    28      42      2.000      -0.896 au  O             1.00      1 S               4
                        (     -24.370 eV)
    29      43       --         0.998 au  O             1.00      2 S               4
                        (      27.170 eV)
    30      44      1.333      -0.347 au  O             1.00      1 P:z             4
                        (      -9.441 eV)
    31      45       --         0.813 au  O             1.00      2 P:z             4
                        (      22.121 eV)
    32      46       --         1.051 au  O             1.00      1 D:z2            4
                        (      28.612 eV)
    33      47       --         1.051 au  O             1.00      1 D:x2-y2         4
                        (      28.612 eV)



                                       === A2 ===
 Nr. of SFOs :    8
 Cartesian basis functions that participate in this irrep (total number =    11) :
     15    21    48    54    60    69    79    89    97   102
    115

    SFO  (index         Fragment          Generating    Expansion in Fragment Orbitals
  indx  incl.CFs)   Occup   Orb.Energy   FragmentType  Coeff.   Orbital     on Fragment
 --------------------------------------------------------------------------------------
     1       3      2.000      -0.786 au  Pb            1.00      1 D:xy            1
                        (     -21.381 eV)
     2       4       --         0.427 au  Pb            1.00      2 D:xy            1
                        (      11.626 eV)
     3       5       --         3.399 au  Pb            1.00      3 D:xy            1
                        (      92.482 eV)
     4       6      2.000      -4.933 au  Pb            1.00      1 F:xyz           1
                        (    -134.237 eV)
     5       7       --         4.295 au  Pb            1.00      2 F:xyz           1
                        (     116.866 eV)
     6       8       --        36.958 au  Pb            1.00      3 F:xyz           1
                        (    1005.677 eV)
     7       9       --         0.398 au  H             0.71      1 P:x             2
                        (      10.843 eV)              -0.71      1 P:x             3
     8      10       --         1.051 au  O             1.00      1 D:xy            4
                        (      28.612 eV)



                                       === B1 ===
 Nr. of SFOs :   18
 Cartesian basis functions that participate in this irrep (total number =    27) :
      5     8    11    16    22    32    35    38    41    44
     49    55    61    70    80    90    65    68    75    78
     85    88    97   102   108   111   116

    SFO  (index         Fragment          Generating    Expansion in Fragment Orbitals
  indx  incl.CFs)   Occup   Orb.Energy   FragmentType  Coeff.   Orbital     on Fragment
 --------------------------------------------------------------------------------------
     1       6      2.000      -3.139 au  Pb            1.00      1 P:x             1
                        (     -85.422 eV)
     2       7      0.667      -0.133 au  Pb            1.00      2 P:x             1
                        (      -3.632 eV)
     3       8       --         0.045 au  Pb            1.00      3 P:x             1
                        (       1.212 eV)
     4       9       --         0.426 au  Pb            1.00      4 P:x             1
                        (      11.596 eV)
     5      10       --         3.056 au  Pb            1.00      5 P:x             1
                        (      83.146 eV)
     6      11      2.000      -0.786 au  Pb            1.00      1 D:xz            1
                        (     -21.381 eV)
     7      12       --         0.427 au  Pb            1.00      2 D:xz            1
                        (      11.626 eV)
     8      13       --         3.399 au  Pb            1.00      3 D:xz            1
                        (      92.482 eV)
     9      14      2.000      -4.933 au  Pb            1.00      1 F:z2x           1
                        (    -134.237 eV)
    10      15       --         4.295 au  Pb            1.00      2 F:z2x           1
                        (     116.866 eV)
    11      16       --        36.958 au  Pb            1.00      3 F:z2x           1
                        (    1005.677 eV)
    12      17      2.000      -4.933 au  Pb            1.00      1 F:x             1
                        (    -134.237 eV)
    13      18       --         4.295 au  Pb            1.00      2 F:x             1
                        (     116.866 eV)
    14      19       --        36.958 au  Pb            1.00      3 F:x             1
                        (    1005.677 eV)
    15      20       --         0.398 au  H             0.71      1 P:x             2
                        (      10.843 eV)               0.71      1 P:x             3
    16      21      1.333      -0.347 au  O             1.00      1 P:x             4
                        (      -9.441 eV)
    17      22       --         0.813 au  O             1.00      2 P:x             4
                        (      22.121 eV)
    18      23       --         1.051 au  O             1.00      1 D:xz            4
                        (      28.612 eV)



                                       === B2 ===
 Nr. of SFOs :   21
 Cartesian basis functions that participate in this irrep (total number =    33) :
      6     9    12    18    24    33    36    39    42    45
     51    57    63    73    83    93    66    71    76    81
     86    91    95   100    96   101    99   104    98   103
    109   112   118

    SFO  (index         Fragment          Generating    Expansion in Fragment Orbitals
  indx  incl.CFs)   Occup   Orb.Energy   FragmentType  Coeff.   Orbital     on Fragment
 --------------------------------------------------------------------------------------
     1       6      2.000      -3.139 au  Pb            1.00      1 P:y             1
                        (     -85.422 eV)
     2       7      0.667      -0.133 au  Pb            1.00      2 P:y             1
                        (      -3.632 eV)
     3       8       --         0.045 au  Pb            1.00      3 P:y             1
                        (       1.212 eV)
     4       9       --         0.426 au  Pb            1.00      4 P:y             1
                        (      11.596 eV)
     5      10       --         3.056 au  Pb            1.00      5 P:y             1
                        (      83.146 eV)
     6      11      2.000      -0.786 au  Pb            1.00      1 D:yz            1
                        (     -21.381 eV)
     7      12       --         0.427 au  Pb            1.00      2 D:yz            1
                        (      11.626 eV)
     8      13       --         3.399 au  Pb            1.00      3 D:yz            1
                        (      92.482 eV)
     9      14      2.000      -4.933 au  Pb            1.00      1 F:z2y           1
                        (    -134.237 eV)
    10      15       --         4.295 au  Pb            1.00      2 F:z2y           1
                        (     116.866 eV)
    11      16       --        36.958 au  Pb            1.00      3 F:z2y           1
                        (    1005.677 eV)
    12      17      2.000      -4.933 au  Pb            1.00      1 F:y             1
                        (    -134.237 eV)
    13      18       --         4.295 au  Pb            1.00      2 F:y             1
                        (     116.866 eV)
    14      19       --        36.958 au  Pb            1.00      3 F:y             1
                        (    1005.677 eV)
    15      20      1.000      -0.245 au  H             0.71      1 S               2
                        (      -6.661 eV)              -0.71      1 S               3
    16      21       --         0.387 au  H             0.71      2 S               2
                        (      10.544 eV)              -0.71      2 S               3
    17      22       --         0.398 au  H             0.71      1 P:y             2
                        (      10.843 eV)               0.71      1 P:y             3
    18      23       --         0.398 au  H             0.71      1 P:z             2
                        (      10.843 eV)              -0.71      1 P:z             3
    19      24      1.333      -0.347 au  O             1.00      1 P:y             4
                        (      -9.441 eV)
    20      25       --         0.813 au  O             1.00      2 P:y             4
                        (      22.121 eV)
    21      26       --         1.051 au  O             1.00      1 D:yz            4
                        (      28.612 eV)



 ================================
 (Slater-type)  F U N C T I O N S  ***  (Basis and Fit)  ***
 ================================
  

 Atom Type    1  (Pb)
 ==============

 Valence Basis Sets:  26
 -----------------------
   1 S   60.000000
   2 S   37.900000
   3 S   22.100000
   4 S   13.150000
   2 P   38.650000
   3 P   20.600000
   4 P   12.450000
   3 D   23.450000
   4 D   11.600000
   1 S  196.000000
   5 S    7.650000
   5 S    5.200000
   6 S    3.700000
   6 S    2.400000
   6 S    1.580000
   5 P    6.600000
   5 P    4.200000
   6 P    2.700000
   6 P    1.600000
   6 P    0.960000
   5 D    6.000000
   5 D    3.650000
   5 D    2.200000
   4 F   17.560000
   4 F    9.950000
   4 F    5.750000

 Frozen Core Shells
 ------------------
    S:  4
    P:  3
    D:  2

 Atom Type    2  (H)
 ==============

 Valence Basis Sets:   3
 -----------------------
   1 S    0.760000
   1 S    1.280000
   2 P    1.250000

 Atom Type    3  (O)
 ==============

 Valence Basis Sets:   6
 -----------------------
   1 S    7.360000
   2 S    1.700000
   2 S    2.820000
   2 P    1.300000
   2 P    3.060000
   3 D    2.000000

 Frozen Core Shells
 ------------------
    S:  1


 BAS: List of all Elementary Cartesian Basis Functions
 =====================================================

 The numbering in the list below (to the right of the function characteristics) is referred
 to in print-outs of MO eigenvectors and Mulliken populations in the BAS representation
 (as contrasted to the SFO representation).

 Notes:
 1. The functions are characterized by a polynomial prefactor (powers of x,y,z and r) and
    an exponential decay factor alpha.
 2. Since the basis sets are specific for an atom TYPE, the individual functions occur on
    all atoms of that type.
 3. The word 'Core' in the left margin signals that it is a Core Function (CF) : not a
    degree of freedom in the valence set, but only used to ensure orthogonalization of
    the other valence basis functions on the frozen Core Orbitals.


 (power of) X  Y  Z  R     Alpha  on Atom
            ==========     =====     ==========

 Pb                                   1
                                  ---------------------------------------------------------------------------
    Core    0  0  0  0    60.000      1
    Core    0  0  0  1    37.900      2
    Core    0  0  0  2    22.100      3
    Core    0  0  0  3    13.150      4
    Core    1  0  0  0    38.650      5
    Core    0  1  0  0    38.650      6
    Core    0  0  1  0    38.650      7
    Core    1  0  0  1    20.600      8
    Core    0  1  0  1    20.600      9
    Core    0  0  1  1    20.600     10
    Core    1  0  0  2    12.450     11
    Core    0  1  0  2    12.450     12
    Core    0  0  1  2    12.450     13
    Core    2  0  0  0    23.450     14
    Core    1  1  0  0    23.450     15
    Core    1  0  1  0    23.450     16
    Core    0  2  0  0    23.450     17
    Core    0  1  1  0    23.450     18
    Core    0  0  2  0    23.450     19
    Core    2  0  0  1    11.600     20
    Core    1  1  0  1    11.600     21
    Core    1  0  1  1    11.600     22
    Core    0  2  0  1    11.600     23
    Core    0  1  1  1    11.600     24
    Core    0  0  2  1    11.600     25
            0  0  0  0   196.000     26
            0  0  0  4     7.650     27
            0  0  0  4     5.200     28
            0  0  0  5     3.700     29
            0  0  0  5     2.400     30
            0  0  0  5     1.580     31
            1  0  0  3     6.600     32
            0  1  0  3     6.600     33
            0  0  1  3     6.600     34
            1  0  0  3     4.200     35
            0  1  0  3     4.200     36
            0  0  1  3     4.200     37
            1  0  0  4     2.700     38
            0  1  0  4     2.700     39
            0  0  1  4     2.700     40
            1  0  0  4     1.600     41
            0  1  0  4     1.600     42
            0  0  1  4     1.600     43
            1  0  0  4     0.960     44
            0  1  0  4     0.960     45
            0  0  1  4     0.960     46
            2  0  0  2     6.000     47
            1  1  0  2     6.000     48
            1  0  1  2     6.000     49
            0  2  0  2     6.000     50
            0  1  1  2     6.000     51
            0  0  2  2     6.000     52
            2  0  0  2     3.650     53
            1  1  0  2     3.650     54
            1  0  1  2     3.650     55
            0  2  0  2     3.650     56
            0  1  1  2     3.650     57
            0  0  2  2     3.650     58
            2  0  0  2     2.200     59
            1  1  0  2     2.200     60
            1  0  1  2     2.200     61
            0  2  0  2     2.200     62
            0  1  1  2     2.200     63
            0  0  2  2     2.200     64
            3  0  0  0    17.560     65
            2  1  0  0    17.560     66
            2  0  1  0    17.560     67
            1  2  0  0    17.560     68
            1  1  1  0    17.560     69
            1  0  2  0    17.560     70
            0  3  0  0    17.560     71
            0  2  1  0    17.560     72
            0  1  2  0    17.560     73
            0  0  3  0    17.560     74
            3  0  0  0     9.950     75
            2  1  0  0     9.950     76
            2  0  1  0     9.950     77
            1  2  0  0     9.950     78
            1  1  1  0     9.950     79
            1  0  2  0     9.950     80
            0  3  0  0     9.950     81
            0  2  1  0     9.950     82
            0  1  2  0     9.950     83
            0  0  3  0     9.950     84
            3  0  0  0     5.750     85
            2  1  0  0     5.750     86
            2  0  1  0     5.750     87
            1  2  0  0     5.750     88
            1  1  1  0     5.750     89
            1  0  2  0     5.750     90
            0  3  0  0     5.750     91
            0  2  1  0     5.750     92
            0  1  2  0     5.750     93
            0  0  3  0     5.750     94

 H                                    2    3
                                  ---------------------------------------------------------------------------
            0  0  0  0     0.760     95  100
            0  0  0  0     1.280     96  101
            1  0  0  0     1.250     97  102
            0  1  0  0     1.250     98  103
            0  0  1  0     1.250     99  104

 O                                    4
                                  ---------------------------------------------------------------------------
    Core    0  0  0  0     7.360    105
            0  0  0  1     1.700    106
            0  0  0  1     2.820    107
            1  0  0  0     1.300    108
            0  1  0  0     1.300    109
            0  0  1  0     1.300    110
            1  0  0  0     3.060    111
            0  1  0  0     3.060    112
            0  0  1  0     3.060    113
            2  0  0  0     2.000    114
            1  1  0  0     2.000    115
            1  0  1  0     2.000    116
            0  2  0  0     2.000    117
            0  1  1  0     2.000    118
            0  0  2  0     2.000    119

 Total number of charge fitting functions (nprimf)       524
 Total number of Cartesian basis functions (naos)        119
 Total number of Cartesian core functions  (ncos)         26

1
 ***************************************************************************************************



                                              ***********************
                                              *  T E C H N I C A L  *
                                              ***********************
  



 =============================================================
 P A R A L L E L I Z A T I O N  and  V E C T O R I Z A T I O N
 =============================================================
  
 Nr of parallel processes:                               12
 Maximum vector length in NumInt loops:                 128



 =====================
 S C F   U P D A T E S
 =====================
  
 Max. nr. of cycles:                               300
 Convergence criterion:                              0.0000010000
   secondary criterion:                              0.0010000000

 Mix parameter (when DIIS does not apply):           0.2000000000
 Mixed ADIIS+SDIIS will be used                  
    Max number of expansion vectors:                10
    Pure ADIIS when Max([F,P]) is above              0.1000000000
    Pure SDIIS when Max([F,P]) is below              0.0010000000
 Automatic ElectronSmearing (in case of problematic SCF convergence) disabled



 =================
 P R E C I S I O N  ***  (General: NumInt, NeglectFunctionTails, ...)  ***
 =================
  

 NumInt:           Target precision:                 4.0000000000
 -------           Initial precision:                4.0000000000
                   Min. precision (optimization):    4.0000000000

 Neglect Functions:          Basis functions:        0.1000000000E-05
 ------------------          Fit functions:          0.1000000000E-05



 ===========================
 L I N E A R   S C A L I N G
 ===========================
  

 Cut-off radii density fit:                        0.1000000000E-07
 Overlap cut-off criterion AO matrix elements:     0.1000000000E-05
 Cut-offs for Coulomb potential and fitted density:0.1000000000E-07
 Cut-off criterion for Coulomb multipole terms:    0.1000000000E-07
 Progressive Convergence parameter:                 0.000000000    

 Number of elements of the density matrix on this node (used, total):      4465      7140



 ===========================================
 Numerical Integration : Fuzzy Cells (Becke)
 ===========================================
  
 Becke grid quality: NORMAL         
  
 Lebedev angular grid order:             min:  11 max:  23
 Nr. of radial points:                   min:  46 max: 123

 Total nr. of points:      10153
 Nr. of blocks:               80
 Block length:               127
 Nr. of dummy points:          7


 Test of Precision of the Numerical Integration Grid
 ===================================================

 Integral of the Total Core Density:                  47.99999748194574
 Relative Error:                                      -5.246E-08



 ========================
 Density Fitting (zlmFit)
 ========================
  
 ZlmFit Fit Quality: NORMAL         
  
 Max L-expansion:                        min:   5 max:   7
 Nr. of radial interpolation points:     min:  36 max: 114



 =====
 S C F  ***  ScaSCF  ***
 =====
  
 Initial density matrix is taken from previous geometry

 CYCLE    1
  ***********************************************************
  ** : orbital data taken from :/tmp/amstmp_ams_kid0.1174792250/GOStep2.rkf
  ***********************************************************
 SCF Error: norm([F,P])=      0.000000056233, max([F,P])=      0.000000015129
 orbitals (Q,E):
 ---------------
 A1 :1...19          ( 2.00    -5.7902)  ( 2.00    -5.4673)  ( 2.00    -5.4664)  ( 2.00    -3.6695)
                     ( 2.00    -1.3884)  ( 2.00    -1.3205)  ( 2.00    -1.3122)  ( 2.00    -0.9599)
                     ( 2.00    -0.8228)  ( 0.00    -0.5185)  ( 0.00    -0.3547)  ( 0.00    -0.2662)
                     ( 0.00    -0.2127)  ( 0.00    -0.0569)  ( 0.00    -0.0244)  ( 0.00     0.0621)
                     ( 0.00     0.0785)  ( 0.00     0.2309)  ( 0.00     0.5506)
 A2 :1...8           ( 2.00    -5.4673)  ( 2.00    -1.3205)  ( 0.00    -0.0397)  ( 0.00     0.1457)
                     ( 0.00     1.1577)  ( 0.00     2.8849)  ( 0.00     3.7611)  ( 0.00    36.4249)
 B1 :1...15          ( 2.00    -5.4682)  ( 2.00    -5.4665)  ( 2.00    -3.6740)  ( 2.00    -1.3154)
                     ( 2.00    -0.7333)  ( 0.00    -0.5701)  ( 0.00    -0.2244)  ( 0.00    -0.0370)
                     ( 0.00     0.0519)  ( 0.00     0.1178)  ( 0.00     0.7205)  ( 0.00     1.2718)
                     ( 0.00     2.5557)  ( 0.00     2.9638)  ( 0.00     3.7590)
 B2 :1...15          ( 2.00    -5.4682)  ( 2.00    -5.4668)  ( 2.00    -3.6751)  ( 2.00    -1.3169)
                     ( 2.00    -0.9332)  ( 0.00    -0.5772)  ( 0.00    -0.2905)  ( 0.00    -0.2144)
                     ( 0.00    -0.1038)  ( 0.00     0.0484)  ( 0.00     0.1577)  ( 0.00     0.4557)
                     ( 0.00     0.9321)  ( 0.00     1.0785)  ( 0.00     2.5504)

 CYCLE    2
   MIX coefficients:  0.8000  0.2000
 SCF Error: norm([F,P])=      0.000000065278, max([F,P])=      0.000000016230
 orbitals (Q,E):
 ---------------
 A1 :1...10          ( 2.00    -5.7902)  ( 2.00    -5.4673)  ( 2.00    -5.4664)  ( 2.00    -3.6695)
                     ( 2.00    -1.3884)  ( 2.00    -1.3205)  ( 2.00    -1.3122)  ( 2.00    -0.9599)
                     ( 2.00    -0.8228)  ( 0.00    -0.5185)
 A2 :1...3           ( 2.00    -5.4673)  ( 2.00    -1.3205)  ( 0.00    -0.0397)
 B1 :1...6           ( 2.00    -5.4682)  ( 2.00    -5.4665)  ( 2.00    -3.6740)  ( 2.00    -1.3154)
                     ( 2.00    -0.7333)  ( 0.00    -0.5701)
 B2 :1...6           ( 2.00    -5.4682)  ( 2.00    -5.4668)  ( 2.00    -3.6751)  ( 2.00    -1.3169)
                     ( 2.00    -0.9332)  ( 0.00    -0.5772)

 SCF CONVERGED

 CYCLE    3
1
 ***************************************************************************************************



                                                *******************
                                                *  R E S U L T S  *
                                                *******************
  
 *** Using FIT density in Focky
  SDIIS (wt  0.000): -1.0135  2.0135
 A-DIIS (wt  1.000):  0.0000  1.0000
  DIIS coefficients:  0.0000  1.0000
 SCF Error: norm([F,P])=      0.000000035416, max([F,P])=      0.000000009476

 Scaled ZORA Orbital Energies, per Irrep and Spin:
 =================================================
                        Occup              E (au)              E (eV)       Diff (eV) with prev. cycle
                        -----      --------------------        ------       --------------------------
 A1
               1        2.000     -0.57901847538003E+01      -157.559              -2.35E-07
               2        2.000     -0.54673273497627E+01      -148.774              -3.47E-07
               3        2.000     -0.54663802693007E+01      -148.748              -3.46E-07
               4        2.000     -0.36695240492385E+01       -99.853              -2.04E-07
               5        2.000     -0.13883889165948E+01       -37.780              -1.46E-07
               6        2.000     -0.13205361934667E+01       -35.934              -1.50E-07
               7        2.000     -0.13122011341997E+01       -35.707              -1.46E-07
               8        2.000     -0.95993269675799E+00       -26.121              -1.06E-07
               9        2.000     -0.82280870767124E+00       -22.390              -1.44E-07
              10        0.000     -0.51845267068581E+00       -14.108
              11        0.000     -0.35471665004120E+00        -9.652
              12        0.000     -0.26620329695405E+00        -7.244
              13        0.000     -0.21267411239214E+00        -5.787
              14        0.000     -0.56935344116430E-01        -1.549
              15        0.000     -0.24364062128691E-01        -0.663
              16        0.000      0.62127233043707E-01         1.691
              17        0.000      0.78478234190231E-01         2.136
              18        0.000      0.23085176045632E+00         6.282
              19        0.000      0.55062990935199E+00        14.983
 A2
               1        2.000     -0.54672862120443E+01      -148.772              -3.47E-07
               2        2.000     -0.13204879320930E+01       -35.932              -1.50E-07
               3        0.000     -0.39659044429299E-01        -1.079
               4        0.000      0.14574016575853E+00         3.966
               5        0.000      0.11577379769615E+01        31.504
               6        0.000      0.28848926475200E+01        78.502
               7        0.000      0.37611272779376E+01       102.345
               8        0.000      0.36424938155584E+02       991.173
 B1
               1        2.000     -0.54682033807696E+01      -148.797              -3.49E-07
               2        2.000     -0.54664863219530E+01      -148.751              -3.46E-07
               3        2.000     -0.36739764290104E+01       -99.974              -2.06E-07
               4        2.000     -0.13154402306467E+01       -35.795              -1.49E-07
               5        2.000     -0.73325276138656E+00       -19.953              -1.65E-07
               6        0.000     -0.57012684708247E+00       -15.514
               7        0.000     -0.22444476427934E+00        -6.107
               8        0.000     -0.36991974451803E-01        -1.007
               9        0.000      0.51948730599735E-01         1.414
              10        0.000      0.11778741784198E+00         3.205
              11        0.000      0.72048220202076E+00        19.605
              12        0.000      0.12717617498730E+01        34.606
              13        0.000      0.25556645510960E+01        69.543
              14        0.000      0.29638272351917E+01        80.650
              15        0.000      0.37590309059622E+01       102.288
 B2
               1        2.000     -0.54682046283554E+01      -148.797              -3.49E-07
               2        2.000     -0.54668019769202E+01      -148.759              -3.46E-07
               3        2.000     -0.36751168686998E+01      -100.005              -2.07E-07
               4        2.000     -0.13168514626271E+01       -35.833              -1.49E-07
               5        2.000     -0.93322359102032E+00       -25.394              -1.34E-07
               6        0.000     -0.57717350088924E+00       -15.706
               7        0.000     -0.29051811766289E+00        -7.905
               8        0.000     -0.21440663339568E+00        -5.834
               9        0.000     -0.10379953843277E+00        -2.825
              10        0.000      0.48419321098339E-01         1.318
              11        0.000      0.15768620388562E+00         4.291
              12        0.000      0.45567340458533E+00        12.400
              13        0.000      0.93206870941516E+00        25.363
              14        0.000      0.10785284547854E+01        29.348
              15        0.000      0.25503866830847E+01        69.400
  
 HOMO :        5 B1               -0.73325276138656E+00
 LUMO :        6 B2               -0.57717350088924E+00
  


 Orbital Energies, all Irreps
 ========================================

 Irrep        no.  (spin)   Occup              E (au)                E (eV)
 ---------------------------------------------------------------------------
 A1            1             2.00       -0.57901847538003E+01      -157.5589
 B2            1             2.00       -0.54682046283554E+01      -148.7974
 B1            1             2.00       -0.54682033807696E+01      -148.7974
 A1            2             2.00       -0.54673273497627E+01      -148.7735
 A2            1             2.00       -0.54672862120443E+01      -148.7724
 B2            2             2.00       -0.54668019769202E+01      -148.7593
 B1            2             2.00       -0.54664863219530E+01      -148.7507
 A1            3             2.00       -0.54663802693007E+01      -148.7478
 B2            3             2.00       -0.36751168686998E+01      -100.0050
 B1            3             2.00       -0.36739764290104E+01       -99.9740
 A1            4             2.00       -0.36695240492385E+01       -99.8528
 A1            5             2.00       -0.13883889165948E+01       -37.7800
 A1            6             2.00       -0.13205361934667E+01       -35.9336
 A2            2             2.00       -0.13204879320930E+01       -35.9323
 B2            4             2.00       -0.13168514626271E+01       -35.8334
 B1            4             2.00       -0.13154402306467E+01       -35.7949
 A1            7             2.00       -0.13122011341997E+01       -35.7068
 A1            8             2.00       -0.95993269675799E+00       -26.1211
 B2            5             2.00       -0.93322359102032E+00       -25.3943
 A1            9             2.00       -0.82280870767124E+00       -22.3898
 B1            5             2.00       -0.73325276138656E+00       -19.9528
 B2            6             0.00       -0.57717350088924E+00       -15.7057
 B1            6             0.00       -0.57012684708247E+00       -15.5139
 A1           10             0.00       -0.51845267068581E+00       -14.1078
 A1           11             0.00       -0.35471665004120E+00        -9.6523
 B2            7             0.00       -0.29051811766289E+00        -7.9054
 A1           12             0.00       -0.26620329695405E+00        -7.2438
 B1            7             0.00       -0.22444476427934E+00        -6.1075
 B2            8             0.00       -0.21440663339568E+00        -5.8343
 A1           13             0.00       -0.21267411239214E+00        -5.7872
 B2            9             0.00       -0.10379953843277E+00        -2.8245
 A1           14             0.00       -0.56935344116430E-01        -1.5493
 A2            3             0.00       -0.39659044429299E-01        -1.0792
 B1            8             0.00       -0.36991974451803E-01        -1.0066
 A1           15             0.00       -0.24364062128691E-01        -0.6630
 B2           10             0.00        0.48419321098339E-01         1.3176
 B1            9             0.00        0.51948730599735E-01         1.4136
 A1           16             0.00        0.62127233043707E-01         1.6906
 A1           17             0.00        0.78478234190231E-01         2.1355
 B1           10             0.00        0.11778741784198E+00         3.2052
 A2            4             0.00        0.14574016575853E+00         3.9658
 B2           11             0.00        0.15768620388562E+00         4.2909
 A1           18             0.00        0.23085176045632E+00         6.2818
 B2           12             0.00        0.45567340458533E+00        12.3995
 A1           19             0.00        0.55062990935199E+00        14.9834
 A1           20             0.00        0.68475825796180E+00        18.6332
 B1           11             0.00        0.72048220202076E+00        19.6053
 A1           21             0.00        0.92596483878640E+00        25.1968
 B2           13             0.00        0.93206870941516E+00        25.3629
 B2           14             0.00        0.10785284547854E+01        29.3483
 A2            5             0.00        0.11577379769615E+01        31.5037
 B1           12             0.00        0.12717617498730E+01        34.6064
 A1           22             0.00        0.13329999642052E+01        36.2728
 A1           23             0.00        0.14991511758717E+01        40.7940
 B2           15             0.00        0.25503866830847E+01        69.3996
 B1           13             0.00        0.25556645510960E+01        69.5432
 A1           24             0.00        0.27193279275102E+01        73.9967
 B2           16             0.00        0.28167146126941E+01        76.6467
 A1           25             0.00        0.28502283866475E+01        77.5587
 A2            6             0.00        0.28848926475200E+01        78.5019
 A1           26             0.00        0.29043789157253E+01        79.0322
 B1           14             0.00        0.29638272351917E+01        80.6498
 B2           17             0.00        0.29750758242610E+01        80.9559
 A1           27             0.00        0.31631274829731E+01        86.0731
 B2           18             0.00        0.37590276984555E+01       102.2883
 B1           15             0.00        0.37590309059622E+01       102.2884
 A2            7             0.00        0.37611272779376E+01       102.3455
 A1           28             0.00        0.37612935747131E+01       102.3500
 B2           19             0.00        0.37636820779873E+01       102.4150
 B1           16             0.00        0.37640881812242E+01       102.4261
 A1           29             0.00        0.37779593342064E+01       102.8035
 A1           30             0.00        0.52835791236984E+01       143.7735
 B2           20             0.00        0.36424077403432E+02       991.1496
 B1           17             0.00        0.36424081418612E+02       991.1497
 A2            8             0.00        0.36424938155584E+02       991.1730
 A1           31             0.00        0.36424976341664E+02       991.1740
 B2           21             0.00        0.36426264426183E+02       991.2091
 B1           18             0.00        0.36426436901398E+02       991.2138
 A1           32             0.00        0.36432583667418E+02       991.3810
 A1           33             0.00        0.36926659851269E+04    100482.5540


 Scaled ZORA Orbital Energies of the Core Orbitals:
 ==================================================

 (Note that the atoms are grouped by atomtype, see the labels, and may hence NOT be in input order)

 AtomType  Orbital  Atom                   E (au)                        E (eV)
 --------  -------  ----           --------------------        ----------------
 Pb          1S        1          -0.32300825028600E+04              -87895.017
             2S        1          -0.57786255332290E+03              -15724.440
             3S        1          -0.13918309148306E+03               -3787.365
             4S        1          -0.31952586441092E+02                -869.474
             2P        1          -0.49541426079676E+03              -13480.908
             3P        1          -0.11553687645961E+03               -3143.918
             4P        1          -0.24222584822443E+02                -659.130
             3D        1          -0.91668924363104E+02               -2494.438
             4D        1          -0.15330683368840E+02                -417.169
 O           1S        4          -0.19301229750302E+02                -525.213


 Fit test: (difference of exact and fit density, squared integrated, result summed over spins)
         Sum-of-Fragments:                             0.00000000008040
         Orthogonalized Fragments:                     0.00002869431300
         SCF:                                          0.00009106169508



 ==========================
 Electron Density at Nuclei
 ==========================
  
 The electron density is calculated at points on a small sphere around the center of a nucleus.
 The printed electron density is the average electron density on these points.
 The radius of the sphere is the printed approximate finite nuclear radius.
 Note: ZORA-4 density is used, which includes small component density

         Atom        Nuclear Radius (Angstrom)             Electron Density (a.u.)
         ----        -------------------------             -----------------------
     1)   Pb                0.0000713054                          2606419.40638
     2)   H                 0.0000181514                                0.39983
     3)   H                 0.0000181514                                0.39983
     4)   O                 0.0000345546                              317.65246



 =======================================
 M U L L I K E N   P O P U L A T I O N S
 =======================================
  
 The survey below gives for each atom:
 a) the total charge (Z minus electrons)
 b) the net spin polarization (nr of electrons spin-A minus spin-B)
 c) for each spin the atomic electron valence density (integrated) per L-value.

 Atom              Charge    Spin density          S         P         D         F
 ----              ------    ------------       ------    ------    ------    ------
 1 Pb              1.7828                       3.9874    6.2117   10.0180   14.0000
 2 H               0.4524                       0.4995    0.0481    0.0000    0.0000
 3 H               0.4524                       0.4995    0.0481    0.0000    0.0000
 4 O              -0.6877                       1.8473    4.8237    0.0167    0.0000

 Populations of individual BAS functions
 ----------------------------------------
 1 Pb          -0.0030 -0.0024  0.0031  0.0614 -0.0017 -0.0017 -0.0017 -0.0032 -0.0031 -0.0032
                0.0732  0.0731  0.0738  0.0046  0.0069  0.0069  0.0046  0.0069  0.0046  0.0371
                0.0556  0.0558  0.0371  0.0557  0.0375  0.0004  1.3249  0.6849  0.9697  0.9188
                0.0297  1.3301  1.3285  1.3368  0.6076  0.6079  0.6054  0.0254 -0.0015  0.1387
                0.0159 -0.0017  0.0013 -0.0041  0.0009  0.0150  0.4857  0.7274  0.7298  0.4855
                0.7286  0.4892  0.7240  1.0893  1.0881  0.7228  1.0879  0.7332  0.0863  0.1207
                0.1261  0.0907  0.1218  0.0675  0.1599  0.3197  0.3197  0.3197  0.3996  0.3197
                0.1599  0.3197  0.3197  0.1599  0.4922  0.9844  0.9845  0.9844  1.2306  0.9846
                0.4922  0.9844  0.9846  0.4925  0.1482  0.2959  0.2961  0.2961  0.3697  0.2952
                0.1484  0.2963  0.2952  0.1469
 2 H           -0.2197  0.7192  0.0278  0.0035  0.0167
 3 H           -0.2197  0.7192  0.0278  0.0035  0.0167
 4 O            0.0004  0.9540  0.8929  1.0034  0.6314  0.8189  0.8906  0.7313  0.7481 -0.0301
                0.0000  0.0004  0.0207  0.0089  0.0168

 Gross Charges per Atom (Z minus electrons)
 ==========================================
             1.7828    0.4524    0.4524   -0.6877
 Net Total:  2.00000000


 Atom-Atom Population Matrix (off-diagonal elements not doubled)
 ===============================================================

     1 :    34.1560
     2 :     0.0017    0.2851
     3 :     0.0017   -0.0322    0.2851
     4 :     0.0577    0.2930    0.2930    6.0440



 =================================================
 H I R S H F E L D   C H A R G E   A N A L Y S I S
 =================================================
  
 For each fragment: the (numerical) integral of rho(scf) * rho(fragment)/rho(sum-of-fragments)
 (nuclear charges are included, electrons are counted negative)

 The fragments and their ordering are defined in the early G E O M E T R Y output section.
 If you use single-atom fragments, this usually implies that all atoms of the same
 chemical type are grouped together. This may not be the order in which you listed them
 in the input file!

    1  Pb                        1.6206
    2  H                         0.2622
    3  H                         0.2622
    4  O                        -0.1450

 Sum of these charges (accuracy NumInt/Tails) =           2.00001833



 =============================
 V O R O N O I   C H A R G E S
 =============================
  
 For each atom: the (numerical) integral of the total electronic charge density in its Voronoi cell,
 i.e. the region of space that is closer to that atom than to any other atom.
 (cf. Wigner-Seitz cells in crystals)

 Within the Voronoi cell the subintegrals over the atomic sphere and the remaining part are evaluated
 separately to give the numbers of electrons (negative charge) in these regions.
 The net total charge in the cell (including the nuclear charge) is also given.

 Values are provided for
    a) the Initial (sum-of-fragments) density
    b) the Orthogonalized-Fragments density
    c) the SCF density
    d) the Voronoi Deformation Density (VDD): the difference SCF-Initial for the complete atomic cell


  Atom                Initial                    OrthFrag                   SCF
             Sphere RestCell NetTotal   Sphere RestCell NetTotal   Sphere RestCell NetTotal      VDD
 -----       ------------------------   ------------------------   ------------------------    -----
    1 Pb    -72.853   -8.759    0.388  -72.866   -8.826    0.307  -72.878   -7.240    1.882    1.493
    2 H      -0.079   -1.449   -0.527   -0.086   -1.322   -0.408   -0.089   -1.108   -0.197    0.330
    3 H      -0.079   -1.449   -0.527   -0.086   -1.322   -0.408   -0.089   -1.108   -0.197    0.330
    4 O      -2.819   -4.515    0.666   -2.998   -4.493    0.509   -2.841   -4.645    0.513   -0.153
 ---------------------------------------------------------------------------------------------------
 Total NetCharge:               0.000                      0.000                      2.000    2.000
 (accuracy NumInt/Tails)

 Remark: the 'NetTotal' Voronoi charges often do not match the Mulliken and/or Hirshfeld charges very
 well. This is caused by the fact that chemically different atoms are not treated in accordance with
 their relative sizes. (Voronoi cells are defined by boundary planes halfway between the atoms.)
 However, the CHANGES in charge, comparing 'Initial' to 'SCF' for instance, do give a fair indication
 of the flow of charge caused by the relaxation from sum-of-fragments to self-consistency.

 Warning: the absolute accuracy of the VDD charges obtained using the Fuzzy Cells (Becke) integration
 scheme is much poorer than the one obtained with an 'equivalent' Voronoi integration grid. 



 =================================================================
 M U L T I P O L E   D E R I V E D   C H A R G E   A N A L Y S I S
 =================================================================

 This charge analysis uses the atomic multipoles (obtained from the fitted density) up to some level X,
 and reconstructs these multipoles exactly (up to level X) by distributing charges over all atoms.
 This is achieved by using Lagrange multipliers and a weight function to keep the multipoles local.

 Dummy atoms can be included (by setting INCDUM in MDC-block to 1) to obtain a fractional charge.
 This is generally useful and necessary only for small symmetrical molecules, when there are not
 enough degrees of freedom to reconstruct the multipoles.

 Since the atomic multipoles are reconstructed up to level X,
 the molecular multipoles are represented also up to level X.
 The recommended level is to reconstruct up to quadrupole : -> MDC-q charges.

 See: M. Swart, P.Th. van Duijnen, J.G. Snijders, J.Comput.Chem., (2001), p. 79-88.

 ------------------------------------------------------------- 
 Atomic electronic multipole moments from SCF equations (a.u.)
 ------------------------------------------------------------- 

   atom        charge        dip-x     dip-y     dip-z      quad-xx   quad-xy   quad-xz   quad-yy   quad-yz   quad-zz
 --------------------------------------------------------------------------------------------------------------------
    1 Pb     1.815675    -0.000000 -0.000000 -0.291023    -0.098064 -0.000000 -0.000000  0.121740  0.000000 -0.023676
    2 H      0.206123     0.000000 -0.102926 -0.094662    -0.138740  0.000000  0.000000  0.122627  0.061766  0.016113
    3 H      0.206123     0.000000  0.102926 -0.094662    -0.138740 -0.000000  0.000000  0.122627 -0.061766  0.016113
    4 O     -0.227921    -0.000000 -0.000000 -0.588557    -0.930812 -0.000000 -0.000000  0.790944 -0.000000  0.139868

 --------------------------------------- 
 Multipole derived atomic charges (a.u.)
 --------------------------------------- 

 The MDC-m charges are just the Monopole terms in the multipole expansion, while for the MDC-d charges
 also the Dipoles are reconstructed. The usually preferred charges are the MDC-q charges.
 These reconstruct the Monopoles, Dipoles and Quadrupoles (both atomic AND molecular).

        Atom    Level:     MDC-m        MDC-d        MDC-q
 ---------------------------------------------------------
     1     Pb           1.815675     1.735702     1.828204
     2     H            0.206123     0.520283     0.474912
     3     H            0.206123     0.520283     0.474912
     4     O           -0.227921    -0.776268    -0.778029

 ------------------------------------------------ 
 Average absolute deviations in atomic multipoles
 ------------------------------------------------ 

 Stated here are the average differences between the atomic multipoles
 and the reconstructed atomic multipoles (from the distributed charges).
 If these values are not zero, this means there are not enough degrees of freedom,
 to be able to reconstruct the atomic multipoles. (This usually happens only
 for small and/or highly symmetric molecules). If this is the case, one could add
 dummy atoms as extra point charges (and setting INCDUM in MDC-block to 1).

 Level:                                 MDC-d        MDC-q
 ---------------------------------------------------------
 Charge   (a.u.)                       0.0000       0.0000
 Dipole   (Debye)                      0.0000       0.1684
 Quad.    (a.u.)                       0.2200       0.0182

 --------------------------------------- 
 Represented molecular multipole moments
 --------------------------------------- 

 Given here are the Molecular multipole moments from the atomic charges, and from the Fit Density.
 Note that the atomic charges represent the latter, NOT the ones from the Exact density.

            Q (a.u.)             Dipole moment (Debye)                                          Quadrupole moment (a.u.)
                                 x         y         z              xx        xy        xz        yy        yz        zz
------------------------------------------------------------------------------------------------------------------------
MDC-m         2.0000       -0.0000    0.0000   16.5598        -14.8344   -0.0000    0.0000  -13.4242   -0.0000   28.2586
MDC-d         2.0000        0.0000   -0.0000   13.8429        -15.7469   -0.0000   -0.0000  -12.1872    0.0000   27.9341
MDC-q         2.0000        0.0000   -0.0000   15.1498        -16.2192   -0.0000   -0.0000  -12.9699    0.0000   29.1891
 
Fit.Dens.     2.0000       -0.0000   -0.0000   13.8429        -15.9540   -0.0000   -0.0000  -11.1468   -0.0000   27.1008



 =============
 Dipole Moment  ***  (Debye)  ***
 =============
  
 Vector   :         0.00000000      0.00000000     13.84460456
 Magnitude:        13.84460456

 This molecular dipole moment is calculated with analytic integration
 ************************************************************************************
 Since the molecule is NOT NEUTRAL, the dipole moment depends on the choice of origin
 ************************************************************************************



 =========================================
 Quadrupole Moment (Buckingham convention)  ***  (a.u.)  ***
 =========================================
  
      quad-xx        quad-xy        quad-xz        quad-yy        quad-yz        quad-zz
    -15.95713938    -0.00000000     0.00000000   -11.14706276    -0.00000000    27.10420215

 This molecular quadrupole moment is calculated with analytic integration
1



 ===========================
 B O N D I N G   E N E R G Y  ***  (decomposition)  ***
 ===========================
  
*** IMPORTANT NOTE ***

The bond energy is computed as an energy difference between molecule and
fragments. In particular when the fragments are single atoms, they are usually
computed as SPHERICALLY SYMMETRIC and SPIN-RESTRICTED. Obviously, this usually
does NOT represent the true atomic groundstate.

To obtain the 'real' bond energy, (atomic) correction terms must be applied
for the true (multiplet) fragment ground state. See ref: E.J.Baerends,
V.Branchadell, M.Sodupe, Chem.Phys.Lett.265 (1997) 481

General theoretical background on the bond energy decomposition scheme used
here (Morokuma-Ziegler) can be found in the review paper:
F.M. Bickelhaupt and E.J. Baerends,
"Kohn-Sham Density Functional Theory: Predicting and Understanding Chemistry"
In: Rev. Comput. Chem.; Lipkowitz, K. B. and Boyd, D. B., Eds.;
Wiley-VCH: New York, 2000, Vol. 15, 1-86.

Symbols used in the Bickelhaupt-Baerends (BB) paper are given below to make
the direct connection to that paper, where detailed explanations can be found
on the meaning of the various terms.


                                                   hartree              eV         kcal/mol           kJ/mol
                                      --------------------     -----------       ----------      -----------

Pauli Repulsion
  Kinetic (Delta T^0):                   5.376357316811236        146.2981          3373.72         14115.62
  Delta V^Pauli Coulomb:                -3.356579153473429        -91.3372         -2106.29         -8812.70
  Delta V^Pauli LDA-XC:                 -0.653315461306903        -17.7776          -409.96         -1715.28
  Delta V^Pauli GGA-Exchange:            0.038653284597370          1.0518            24.26           101.48
  Delta V^Pauli GGA-Correlation:        -0.013286092095129         -0.3615            -8.34           -34.88
                                      --------------------     -----------       ----------      -----------
  Total Pauli Repulsion:                 1.391829894533144         37.8736           873.39          3654.25
 (Total Pauli Repulsion =
  Delta E^Pauli in BB paper)

Steric Interaction
  Pauli Repulsion (Delta E^Pauli):       1.391829894533144         37.8736           873.39          3654.25
  Electrostatic Interaction:            -0.303740905378513         -8.2652          -190.60          -797.47
 (Electrostatic Interaction =
  Delta V_elstat in the BB paper)
                                      --------------------     -----------       ----------      -----------
  Total Steric Interaction:              1.088088989154631         29.6084           682.79          2856.78
 (Total Steric Interaction =
  Delta E^0 in the BB paper)

Orbital Interactions
  A1:                                   -0.463861526615350        -12.6223          -291.08         -1217.87
  A2:                                    0.000059586415773          0.0016             0.04             0.16
  B1:                                   -0.145632753429956         -3.9629           -91.39          -382.36
  B2:                                   -0.335402231279565         -9.1268          -210.47          -880.60
                                      --------------------     -----------       ----------      -----------
  Total Orbital Interactions:           -0.944836924909287        -25.7103          -592.89         -2480.67

Alternative Decomposition Orb.Int.
  Kinetic:                              -5.738078128226941       -156.1411         -3600.70        -15065.32
  Coulomb:                               4.181306058966938        113.7791          2623.81         10978.02
  XC:                                    0.611935144350716         16.6516           384.00          1606.64
                                      --------------------     -----------       ----------      -----------
  Total Orbital Interactions:           -0.944836924909287        -25.7103          -592.89         -2480.67

  Residu (E=Steric+OrbInt+Res):         -0.000033790822742         -0.0009            -0.02            -0.09

Total Bonding Energy:                    0.143218273422602          3.8972            89.87           376.02


Summary of Bonding Energy (energy terms are taken from the energy decomposition above)
======================================================================================

  Electrostatic Energy:                 -0.303740905378513         -8.2652          -190.60          -797.47
  Kinetic Energy:                       -0.361720811415705         -9.8429          -226.98          -949.70
  Coulomb (Steric+OrbInt) Energy:        0.824693114670767         22.4410           517.50          2165.23
  XC Energy:                            -0.016013124453946         -0.4357           -10.05           -42.04
                                      --------------------     -----------       ----------      -----------
  Total Bonding Energy:                  0.143218273422603          3.8972            89.87           376.02


Correction terms (incorporated in energies above; only for test purposes):

1. Indication of fit-quality: 1st-order fit-correction used in the energy (hartree):  -0.0003339318
2. Electrostatic (Fit correction):   0.0000000000

Scaled ZORA energy correction, not included in bonding energy (hartree):            0.0000168839
 NOTE: This scaled ZORA energy correction should only be used to compare two calculations
 in which the only difference in the calculation is the electron configuration.
 Then the difference in energy of this term should be added to the difference in energy of
 the two electron configurations.
 This term should not be used otherwise.
 In practice it is useful only for core excitation energy calculations.



 =========================================
 F R A G M E N T   E N E R G Y   T E R M S  ***  (summed over all fragments)  ***
 =========================================
  

The energy terms below are (parts of) the Total Energy of the fragments from which the molecule
 is built.

Exchange and Correlation
  Exchange LDA:                       -377.633879433865957     -10275.9407       -236968.86       -991477.61
  Exchange GGA:                        -17.425101804094087       -474.1611        -10934.42        -45749.60
  Correlation LDA:                      -9.264782093743911       -252.1075         -5813.74        -24324.68
  Correlation GGA:                       3.212665300249689         87.4211          2015.98          8434.85
                                      --------------------     -----------       ----------      -----------
  Total XC:                           -401.111098031454276     -10914.7883       -251701.04      -1053117.04
1



 =======================================================
 S F O   P O P U L A T I O N S ,   M O   A N A L Y S I S
 =======================================================
  
 A Mulliken population analysis is performed on (input-)selected MOs. All populations refer to SFOs.
 BAS populations may have been printed directly after the SCF part.


                                       === A1 ===


 SFO contributions (%) per orbital
 (multiplication by the orbital occupation yields the SFO Gross Populations)

 Orb.:        1      2      3      4      5      6      7      8      9     10     11     12     13
 occup:     2.00   2.00   2.00   2.00   2.00   2.00   2.00   2.00   2.00   0.00   0.00   0.00   0.00
 CF+SFO     ----   ----   ----   ----   ----   ----   ----   ----   ----   ----   ----   ----   ----
 ------
     15:  100.00   0.00   0.00   0.00  -0.00   0.00  -0.00  -0.00  -0.00  -0.00  -0.00  -0.00  -0.00
     16:    0.00   0.00  -0.00  -0.00   0.52   0.00   0.07  79.08  18.79   0.28  -0.44   1.68   0.04
     17:    0.00   0.00   0.00   0.00   0.09  -0.00   0.01   0.75   0.06  -0.01   8.66  85.93   0.47
     21:    0.00   0.00   0.00  99.98   0.00   0.00   0.00   0.00  -0.00   0.00  -0.00   0.00  -0.00
     22:    0.00  -0.00  -0.00   0.00   0.65   0.00   0.05   0.20   6.08  86.16  -0.02  -0.75   8.33
     23:   -0.00  -0.00  -0.00   0.00   0.13   0.00   0.01   0.17   1.46   1.53   2.90   4.23  83.46
     24:    0.00  -0.00   0.00   0.00  -0.25  -0.00  -0.01   0.01  -0.17   1.64   0.01   0.01   5.59
     26:    0.00   0.00   0.00   0.00   4.60   0.46  94.33   0.05   0.39   0.02   0.01  -0.00  -0.00
     27:    0.00   0.00   0.00   0.00  -0.02   0.00   0.06   0.01   0.69   1.12   0.51   2.14   1.83
     29:    0.00   0.00   0.00   0.00   0.00  99.50   0.49   0.00   0.00   0.00  -0.00  -0.00  -0.00
     32:    0.00   4.57  95.43   0.00   0.00   0.00   0.00   0.00   0.00   0.00  -0.00  -0.00  -0.00
     35:    0.00  95.43   4.57   0.00   0.00   0.00   0.00   0.00   0.00   0.00   0.00   0.00   0.00
     38:    0.00   0.00   0.00   0.00   9.04   0.00   0.59   0.76   5.94   5.43  71.57   6.05   3.50
     39:    0.00   0.00   0.00   0.00  -0.87  -0.00   0.07   1.67   1.93  -0.54  11.35  -0.78  -5.22
     40:   -0.00  -0.00   0.00   0.00   0.92   0.00   0.07   0.17   0.55   0.01   3.72  -0.00   0.20
     41:    0.00  -0.00   0.00  -0.00   0.43   0.00   0.02  -0.21  -0.35   0.15   0.10   1.60   0.91
     42:   -0.00  -0.00  -0.00   0.00  83.19   0.02   3.33   0.20   5.86   2.94   1.40   0.09   0.75
     43:   -0.00   0.00   0.00   0.00   0.11  -0.00  -0.00   0.16  -0.50  -1.95  -5.05   0.03  -0.40
     44:   -0.00   0.00   0.00   0.01   1.23   0.00   0.91  17.06  59.18   3.41   6.51   0.61   0.10
     45:   -0.00   0.00   0.00   0.01  -0.00   0.00  -0.01  -0.03  -0.01  -0.51  -1.76  -1.76  -0.47


 Summation over all MOs, multiplied by occupation: Total SFO Gross Populations in this Irrep
 ===========================================================================================

    -0.00   -0.00    0.00    0.00    0.00    0.00   -0.00   -0.00   -0.00   -0.00   -0.00   -0.00
    -0.00    0.00    2.00    1.97    0.02   -0.00    0.00    0.00    2.00    0.14    0.04   -0.01
    -0.00    2.00    0.01   -0.00    2.00    0.00    0.00    2.00    0.00    0.00    2.00    0.00
     0.00    0.33    0.06    0.03   -0.00    1.85   -0.00    1.57   -0.00    0.00    0.00


                                       === A2 ===


 SFO contributions (%) per orbital
 (multiplication by the orbital occupation yields the SFO Gross Populations)

 Orb.:        1      2      3      4      5      6
 occup:     2.00   2.00   0.00   0.00   0.00   0.00
 CF+SFO     ----   ----   ----   ----   ----   ----
 ------
      3:    0.00  99.99   0.01   0.00   0.00   0.00
      4:    0.00   0.01  97.38   2.51   0.08   0.02
      5:    0.00   0.00   0.01   0.02   0.04  99.93
      6:  100.00   0.00   0.00   0.00   0.00   0.00
      9:   -0.00  -0.00   1.80  83.26  14.94  -0.00
     10:    0.00   0.00   0.80  14.21  84.94   0.05


 Summation over all MOs, multiplied by occupation: Total SFO Gross Populations in this Irrep
 ===========================================================================================

     0.00    0.00    2.00    0.00    0.00    2.00    0.00    0.00   -0.00    0.00


                                       === B1 ===


 SFO contributions (%) per orbital
 (multiplication by the orbital occupation yields the SFO Gross Populations)

 Orb.:        1      2      3      4      5      6      7      8      9
 occup:     2.00   2.00   2.00   2.00   2.00   0.00   0.00   0.00   0.00
 CF+SFO     ----   ----   ----   ----   ----   ----   ----   ----   ----
 ------
      6:    0.00   0.00 100.00   0.00  -0.00   0.00  -0.00  -0.00   0.00
      7:    0.00  -0.00   0.00   0.00   2.33  91.54   5.35   0.00   0.64
      8:    0.00   0.00   0.00   0.00  -0.05   4.44  90.60   0.11   3.32
      9:    0.00   0.00   0.00  -0.00  -0.12   1.51   3.15   0.06  94.20
     11:    0.00   0.00   0.00  99.94   0.03  -0.00   0.00   0.00   0.00
     12:    0.00   0.00   0.00   0.01   0.37   0.01   0.07  92.62   0.03
     14:    0.27  99.73   0.00   0.00   0.00  -0.00   0.00  -0.00   0.00
     17:   99.73   0.27   0.00   0.00   0.00   0.00   0.00   0.00   0.00
     20:    0.00  -0.00   0.00  -0.00   2.78   0.09   0.93   0.01   1.56
     21:    0.00   0.00  -0.00   0.03  94.54   2.27  -0.07   0.32   0.01
     22:    0.00   0.00  -0.00   0.00   0.12  -0.06  -0.07   3.23  -0.00
     23:    0.00   0.00   0.00   0.02   0.00   0.21   0.04   3.64   0.20


 Summation over all MOs, multiplied by occupation: Total SFO Gross Populations in this Irrep
 ===========================================================================================

     0.00    0.00   -0.00   -0.00   -0.00    2.00    0.05   -0.00   -0.00    0.00    2.00    0.01
    -0.00    2.00    0.00    0.00    2.00    0.00    0.00    0.06    1.89    0.00    0.00


                                       === B2 ===


 SFO contributions (%) per orbital
 (multiplication by the orbital occupation yields the SFO Gross Populations)

 Orb.:        1      2      3      4      5      6      7      8      9
 occup:     2.00   2.00   2.00   2.00   2.00   0.00   0.00   0.00   0.00
 CF+SFO     ----   ----   ----   ----   ----   ----   ----   ----   ----
 ------
      6:    0.00   0.00 100.00   0.00  -0.00   0.00  -0.00  -0.00  -0.00
      7:    0.00  -0.00   0.00   0.00   0.21  93.37   0.47   4.75   0.28
      8:    0.00   0.00   0.00   0.00  -0.03   4.48   7.19  83.58   0.04
      9:    0.00   0.00   0.00  -0.00  -0.07   1.40   0.04   3.77   0.02
     11:    0.00   0.00   0.00  99.92   0.04   0.00   0.00   0.00  -0.02
     12:    0.00   0.00   0.00   0.01   0.08   0.00   0.21   0.01  61.11
     14:    0.43  99.57   0.00   0.00   0.00   0.00   0.00   0.00  -0.00
     17:   99.57   0.43   0.00   0.00  -0.00   0.00   0.00  -0.00   0.00
     20:   -0.00  -0.00   0.00   0.00  23.25   0.03  78.63   7.80   1.63
     21:   -0.00  -0.00   0.00  -0.00   7.57   0.32  -1.91  -3.27  27.56
     22:    0.00  -0.00  -0.00  -0.00  -1.36   0.01   3.91   0.07  -3.48
     23:   -0.00  -0.00  -0.00  -0.00   1.79   0.05   2.57   1.09   9.68
     24:    0.00   0.00   0.00   0.05  68.66  -0.09  14.14   2.29  -3.66
     25:    0.00   0.00  -0.00   0.00  -0.58   0.07  -7.12  -0.51  -4.96
     26:    0.00   0.00   0.00   0.02   0.43   0.37   1.86   0.42  11.82


 Summation over all MOs, multiplied by occupation: Total SFO Gross Populations in this Irrep
 ===========================================================================================

     0.00    0.00   -0.00   -0.00   -0.00    2.00    0.00   -0.00   -0.00   -0.00    2.00    0.00
    -0.00    2.00    0.00    0.00    2.00    0.00    0.00    0.47    0.15   -0.03    0.04    1.37
    -0.01    0.01



 List of all MOs, ordered by energy, with the most significant SFO gross populations
 ===================================================================================

 Each percentage contribution in the table below corres ponds to the indicated SFO.
 In general, a SFO may be a linear combination of several Fragment Orbitals on the same,
 or on symmetry-related Fragments. Only the first 'member' of such a combination is
 specified here. A full definition of all SFOs is given in an earlier part of the output.
 The numbering of the SFOs in this table does NOT include the Core Orbitals, and starts
 from one for each symmetry representation, as in the SFO definition list earlier.

       E(eV)  Occ       MO           %     SFO (first member)   E(eV)  Occ   Fragment
 -------------------------------------------------------------------------------------

     -37.780  2.00     5 A1        83.19%     1 S             -24.370  2.00     4 O
                                    9.04%     1 S              -6.661  1.00     2 H
                                    4.60%     1 D:z2          -21.381  2.00     1 Pb
                                    1.23%     1 P:z            -9.441  1.33     4 O
     -35.934  2.00     6 A1        99.50%     1 D:x2-y2       -21.381  2.00     1 Pb
                                    0.46%     1 D:z2          -21.381  2.00     1 Pb
     -35.932  2.00     2 A2        99.99%     1 D:xy          -21.381  2.00     1 Pb
                                    0.01%     2 D:xy           11.626  0.00     1 Pb
     -35.833  2.00     4 B2        99.92%     1 D:yz          -21.381  2.00     1 Pb
                                    0.05%     1 P:y            -9.441  1.33     4 O
     -35.795  2.00     4 B1        99.94%     1 D:xz          -21.381  2.00     1 Pb
                                    0.03%     1 P:x            -9.441  1.33     4 O
     -35.707  2.00     7 A1        94.33%     1 D:z2          -21.381  2.00     1 Pb
                                    3.33%     1 S             -24.370  2.00     4 O
     -26.121  2.00     8 A1        79.08%     2 S             -12.093  2.00     1 Pb
                                   17.06%     1 P:z            -9.441  1.33     4 O
                                    1.67%     2 S              10.544  0.00     2 H
     -25.394  2.00     5 B2        68.66%     1 P:y            -9.441  1.33     4 O
                                   23.25%     1 S              -6.661  1.00     2 H
                                    7.57%     2 S              10.544  0.00     2 H
                                    1.79%     1 P:z            10.843  0.00     2 H
                                   -1.36%     1 P:y            10.843  0.00     2 H
     -22.390  2.00     9 A1        59.18%     1 P:z            -9.441  1.33     4 O
                                   18.79%     2 S             -12.093  2.00     1 Pb
                                    6.08%     2 P:z            -3.632  0.67     1 Pb
                                    5.94%     1 S              -6.661  1.00     2 H
                                    5.86%     1 S             -24.370  2.00     4 O
                                    1.93%     2 S              10.544  0.00     2 H
                                    1.46%     3 P:z             1.212  0.00     1 Pb
     -19.953  2.00     5 B1        94.54%     1 P:x            -9.441  1.33     4 O
                                    2.78%     1 P:x            10.843  0.00     2 H
                                    2.33%     2 P:x            -3.632  0.67     1 Pb
     -15.706  0.00     6 B2        93.37%     2 P:y            -3.632  0.67     1 Pb
                                    4.48%     3 P:y             1.212  0.00     1 Pb
                                    1.40%     4 P:y            11.596  0.00     1 Pb
     -15.514  0.00     6 B1        91.54%     2 P:x            -3.632  0.67     1 Pb
                                    4.44%     3 P:x             1.212  0.00     1 Pb
                                    2.27%     1 P:x            -9.441  1.33     4 O
                                    1.51%     4 P:x            11.596  0.00     1 Pb
     -14.108  0.00    10 A1        86.16%     2 P:z            -3.632  0.67     1 Pb
                                    5.43%     1 S              -6.661  1.00     2 H
                                    3.41%     1 P:z            -9.441  1.33     4 O
                                    2.94%     1 S             -24.370  2.00     4 O
                                   -1.95%     2 S              27.170  0.00     4 O
                                    1.64%     4 P:z            11.596  0.00     1 Pb
                                    1.53%     3 P:z             1.212  0.00     1 Pb
                                    1.12%     2 D:z2           11.626  0.00     1 Pb

 Energy gradients wrt nuclear displacements
 ==========================================

     Atom      Cartesian (a.u./angstrom)
                 X         Y         Z
 ----------------------------------------
     1 Pb    0.000000  0.000000 -0.000235
     2 H     0.000000 -0.000058  0.000134
     3 H     0.000000  0.000058  0.000134
     4 O     0.000000  0.000000 -0.000034
 ----------------------------------------



 =======================================================================
 Electrostatic potential at the Nuclei due to electrons and other nuclei
 =======================================================================
  
         Atom                  Potential
         ----                  ---------
     1)   Pb                644.98010361
     2)   H                   0.51709766
     3)   H                   0.51709766
     4)   O                  21.83746293
 Mulliken charges used for AMS results%charges...


    =====================
     CALCULATION RESULTS
    =====================

Energy (hartree)             0.14321827

Gradients (hartree/bohr)
  Index   Atom            d/dx            d/dy            d/dz
      1     Pb    0.0000000000    0.0000000000   -0.0001244752
      2      H    0.0000000000   -0.0000309508    0.0000711533
      3      H    0.0000000000    0.0000309508    0.0000711533
      4      O    0.0000000000    0.0000000000   -0.0000178315


--------------
Atomic charges
--------------
  Index   Atom    Charge
      1     Pb    1.7828
      2      H    0.4524
      3      H    0.4524
      4      O   -0.6877


Dipole moment vector    (Debye):     0.00000000    0.00000000   13.84460456
              magnitude (Debye):    13.84460456


AMS application finished. Exiting.
NORMAL TERMINATION
     Total cpu time:       8.03
  Total system time:       0.85
 Total elapsed time:       9.29
