

 Parallel Execution: Process Information
 ==============================================================================
 Rank   Node Name                              NodeID   MyNodeRank  NodeMaster
    0   lxir126                                   0          0          0
    1   lxir126                                   0          1         -1
    2   lxir126                                   0          2         -1
    3   lxir126                                   0          3         -1
    4   lxir126                                   0          4         -1
    5   lxir126                                   0          5         -1
    6   lxir126                                   0          6         -1
    7   lxir126                                   0          7         -1
    8   lxir126                                   0          8         -1
    9   lxir126                                   0          9         -1
   10   lxir126                                   0         10         -1
   11   lxir126                                   0         11         -1
   12   lxir126                                   0         12         -1
   13   lxir126                                   0         13         -1
   14   lxir126                                   0         14         -1
   15   lxir126                                   0         15         -1
   16   lxir126                                   0         16         -1
   17   lxir126                                   0         17         -1
   18   lxir126                                   0         18         -1
   19   lxir126                                   0         19         -1
 ==============================================================================


May use up to 122942MB of RAM as shared memory on node 0

 *******************************************************************************
 *                                                                             *
 *  --------------------------------                                           *
 *   Amsterdam Modeling Suite (AMS)              2023.102                      *
 *  --------------------------------                                           *
 *                                               r113752 2023-07-12            *
 *                                                                             *
 *                                                                             *
 *                              =================                              *
 *                              |               |                              *
 *                              |     A M S     |                              *
 *                              |               |                              *
 *                              =================                              *
 *                                                                             *
 *                                                                             *
 *   Online information and documentation:  https://www.scm.com/support/       *
 *   E-mail:  support@scm.com   info@scm.com                                   *
 *                                                                             *
 *   Scientific publications using AMS results must be properly referenced     *
 *   See the User Manuals (or the web site) for recommended citations          *
 *   The terms and conditions of the End User License Agreement apply to       *
 *   the use of AMS, https://www.scm.com/license-terms/                        *
 *                                                                             *
 **********************  x86_64_linux_intel / intelmpi  ************************
 
 Licensed to: Dr. Valeria Pershina / GSI Helmholtzzentrum f?r Schwerionenforschung GmbH / Darmstadt / Germany 2023-05-04 13:38:37
 SCM User ID: u15059
  
 AMS 2023.102  RunTime: Aug27-2023 19:25:03  ShM Nodes: 1  Procs: 20

 AMS jobname: ams
 AMS jobid  : 85175431

 Start   directory: /data.local1/milias/work/projects/open-collection/theoretical_chemistry/projects/adsorbate_on_surface/on_quartz/quartz/ams-band/small_slab/revpbe_tzp_sc/
 Results directory: /data.local1/milias/work/projects/open-collection/theoretical_chemistry/projects/adsorbate_on_surface/on_quartz/quartz/ams-band/small_slab/revpbe_tzp_sc/ams.results/
 Scratch directory: /data.local1/milias/scratch/amstmp_ams_kid0.85175431/


 Communication costs MPI_COMM_WORLD:      1.909 usec per message,   0.0097 usec per 8-byte item
 Communication costs for intra-node:      1.922 usec per message,   0.0097 usec per 8-byte item

 RNG seed: 1239287329 2076557189 -186793551 -2110053194 1899119113 -1805458052 -1086691452 -269898300

       ***************************
       *  GEOMETRY OPTIMIZATION  *
       ***************************

Optimization Method                    Quasi Newton
Optimization Coordinates               Delocalized Coordinates
Optimize lattice                       F
 
 ------------------------------------------------------
 Convergence criteria (Hartree,Angstrom)
 ------------------------------------------------------
 Maximum gradient               0.001000000000
 Maximum rms gradient           0.000666666667
 Maximum step allowed           0.010000000000
 Maximum rms step allowed       0.006666666667
 Maximum energy change allowe   0.000210000000
 Maximum stress energy allowe   0.000500000000
 
Initial model Hessian                  Automatic Hessian
 
------------------------------------
Quasi-Newton Optimizer Parameters
------------------------------------
Hessian Update Method                  BFGS
Maximum number of steps                  250
First GDIIS cycle                          0
Maximum GDIIS vectors                      0
Trust radius (bohr)                        0.200000
Trust radius varies                        T
Constraints converged at all steps         T
Use projector                              T
 
 Rigid motions settings for: old optimizer
 Atomic rotations (x,y,z):     F F F
 Atomic translations (x,y,z):  T T T
 Tolerance:                   1.000000000000000E-006
 
--------
Geometry
--------
Formula: H2BiO12Si6
Atoms
  Index Symbol   x (angstrom)   y (angstrom)   z (angstrom)
      1      O    -0.90516463     1.22315607    -4.64611112
      2      O     0.88881112     0.57530224    -0.71042524
      3      O    -1.84885554    -1.71744587    -2.68532502
      4      O    -0.88588438    -1.18639611    -0.05384927
      5      O     0.93382922    -0.54409795    -4.06085368
      6      O     3.05080160     1.78233831    -2.04387973
      7     Si    -0.17611924     0.21460589     0.64287089
      8     Si     1.52413293     1.99295457    -1.38029137
      9     Si    -3.36561308    -1.93644431    -3.35862473
     10      O    -0.82024310     0.90703088   -10.50256122
     11      O     0.93508354     0.59180613    -6.63800051
     12      O    -1.90334946    -1.78770507    -8.64953365
     13      O    -0.92330252    -1.16307068    -6.05722378
     14      O     1.00738917    -0.68736137   -10.29323487
     15      O     2.98440021     1.84497784    -8.06837472
     16     Si     0.01753306     0.02197143    -5.35016629
     17     Si     1.49238983     1.99958782    -7.34788156
     18     Si    -3.38380010    -2.04295506    -9.39244106
     19      H    -0.08661440     0.14335898   -10.35164141
     20      H     1.54438574    -0.43168468   -11.16722938
     21     Bi    -1.74717425     0.62347435   -12.71120715
 
Lattice vectors (angstrom)
      1     4.89282791     0.00000000     0.00000000
      2     2.44592295     4.23882983     0.00000000
 
Unit cell area (angstrom^2)        20.73986
 
Total System Charge             0.00000
Bonding info available!
 



                     **************************************************************************
                     *  BAND 2023.102  RunTime: Aug27-2023 19:25:04  ShM Nodes: 1  Procs: 20  *
                     **************************************************************************
  

-----------------
Band Engine Input
-----------------

Basis
Type TZP
Core Small
End
Dependency
AllowBasisDependency No
Core 0.98
End
SCF
Method DIIS
End
XC
GGA revPBE
End
RIHartreeFock
Quality Normal
FitSetQuality Normal
End

 Using automatic Hessian for delocalized coordinates.
 Using the following basis set files:
 
 O              : /data.local1/milias/software/ams/intel_mpi/ams2023.102/atomicdata/Band/TZP/O.1s
 Si             : /data.local1/milias/software/ams/intel_mpi/ams2023.102/atomicdata/Band/TZP/Si.1s
 H              : /data.local1/milias/software/ams/intel_mpi/ams2023.102/atomicdata/Band/TZP/H
 Bi             : /data.local1/milias/software/ams/intel_mpi/ams2023.102/atomicdata/Band/TZP/Bi.4d
 Needs range separation F F
 Range separation string: 



 =====================
 C O N F I N E M E N T
 =====================
  
 Basis functions confinement radius        10.000
 Width                                      1.000



 ===============================
 M O D E L   P A R A M E T E R S
 ===============================
  
 DENSITY FUNCTIONAL POTENTIAL (scf)
    LDA:                               PW92                                    == Not Default ==
    Gradient Corrections:              PBEc revPBEx                            == Not Default ==
 DENSITY FUNCTIONAL ENERGY (post-scf)
    Gradient Corrections:              Becke88 Perdew86 PW91x PW91c EV93x PW...== Not Default ==

 SPIN  (restricted / unrestr.)
    Molecule:                          Restricted                               

 OTHER ASPECTS
    Relativistic Corrections:          scalar (ZORA,APA)                        

    Nuclear Charge Density Model:      Point Charge Nuclei                      



 ========================
 S. C. F.   O P T I O N S
 ========================
  

 * DIIS settings info for DIRAC   *
    Cond              0.1E+07
    CLarge          20.00
    CHuge           50.00
    DiMix            1.00
    IopPly              1
    NCyDmp              5
    IPrint              0
    Adaptable           F
    Method         diis                
    Dimix Decay fac  1.00

 * DIIS settings info for SCF     *
    Cond              0.1E+07
    CLarge          20.00
    CHuge           20.00
    DiMix            0.20
    IopPly              1
    NCyDmp              1
    IPrint              0
    Adaptable           T
    Method         DIIS                
    Dimix Decay fac  1.00
 growth factor   1.10000000000000     
 shrink factor  0.909090909100000     

    Mix            0.0750
    Degenerate          F
    Edegen          1.0E-04
    SCFRTX           9.90
    Convrg          4.6E-06
    Ncyclx            300
 getinp: use Shared Memory T




                             **  R A D I A L   F U N C T I O N S  **

 TOTAL NR. OF TYPES OF ATOMS                              4




                             ---------------------
                                   T Y P E   1
                             ---------------------

 RADIAL POINTS                                         3000




 ............................ D I R A C ................................

 NUCLEAR CHARGE                                 8.0000               **>  O  <**
 (POINT NUCLEUS)
 VALENCE CHARGE                                 6.0000
 NET CHARGE                                     0.0000

 VALENCE ORBITALS INCLUDED IN THE CRYSTAL BASIS
 NR. OF (RADIAL) CORE FUNCTIONS                 1
 Radial grid       nr of points               3000
                   range                      0.10E-05     0.10E+03
  
  ** SCF-FUNCTIONAL INFO **
    ZORA
    SCALAR
  
 Self consistent error   0.78E-08


  Orbital    Q         E(a.u.)     E(eV)           <R>
 -------------------------------------------------------------------
  1S         2.00    -18.938184       -515.3342   0.199
  2S         2.00     -0.881931        -23.9986   1.138
  2P         4.00     -0.329629         -8.9697   1.266



 NR. OF RADIAL VALENCE ORBITALS                           7
 NR. OF RADIAL CORE ORBITALS                              1
 NR. OF RADIAL FIT FUNCTIONS                              0




                             ---------------------
                                   T Y P E   2
                             ---------------------

 RADIAL POINTS                                         3000




 ............................ D I R A C ................................

 NUCLEAR CHARGE                                14.0000               **>  Si  <**
 (POINT NUCLEUS)
 VALENCE CHARGE                                12.0000
 NET CHARGE                                     0.0000

 VALENCE ORBITALS INCLUDED IN THE CRYSTAL BASIS
 NR. OF (RADIAL) CORE FUNCTIONS                 1
 Radial grid       nr of points               3000
                   range                      0.10E-05     0.10E+03
  
  ** SCF-FUNCTIONAL INFO **
    ZORA
    SCALAR
  
 Self consistent error   0.85E-08


  Orbital    Q         E(a.u.)     E(eV)           <R>
 -------------------------------------------------------------------
  1S         2.00    -65.794718      -1790.3654   0.111
  2S         2.00     -5.131614       -139.6383   0.567
  2P         6.00     -3.510847        -95.5350   0.537
  3S         2.00     -0.396224        -10.7818   2.167
  3P         2.00     -0.149219         -4.0604   2.794



 NR. OF RADIAL VALENCE ORBITALS                          11
 NR. OF RADIAL CORE ORBITALS                              1
 NR. OF RADIAL FIT FUNCTIONS                              0




                             ---------------------
                                   T Y P E   3
                             ---------------------

 RADIAL POINTS                                         3000




 ............................ D I R A C ................................

 NUCLEAR CHARGE                                 1.0000               **>  H  <**
 (POINT NUCLEUS)
 VALENCE CHARGE                                 1.0000
 NET CHARGE                                     0.0000

 VALENCE ORBITALS INCLUDED IN THE CRYSTAL BASIS
 Radial grid       nr of points               3000
                   range                      0.10E-05     0.10E+03
  
  ** SCF-FUNCTIONAL INFO **
    ZORA
    SCALAR
  
 Self consistent error   0.50E-08


  Orbital    Q         E(a.u.)     E(eV)           <R>
 -------------------------------------------------------------------
  1S         1.00     -0.240477         -6.5437   1.626



 NR. OF RADIAL VALENCE ORBITALS                           4
 NR. OF RADIAL CORE ORBITALS                              0
 NR. OF RADIAL FIT FUNCTIONS                              0




                             ---------------------
                                   T Y P E   4
                             ---------------------

 RADIAL POINTS                                         3000




 ............................ D I R A C ................................

 NUCLEAR CHARGE                                83.0000               **>  Bi  <**
 (POINT NUCLEUS)
 VALENCE CHARGE                                37.0000
 NET CHARGE                                     0.0000

 VALENCE ORBITALS INCLUDED IN THE CRYSTAL BASIS
 NR. OF (RADIAL) CORE FUNCTIONS                 9
 Radial grid       nr of points               3000
                   range                      0.10E-05     0.10E+03
  
  ** SCF-FUNCTIONAL INFO **
    ZORA
    SCALAR
  
 Self consistent error   0.91E-08


  Orbital    Q         E(a.u.)     E(eV)           <R>
 -------------------------------------------------------------------
  1S         2.00  -3698.093137    -100630.2343   0.014
  2S         2.00   -611.576421     -16641.8412   0.065
  2P         6.00   -521.751330     -14197.5761   0.060
  3S         2.00   -145.360818      -3955.4691   0.171
  3P         6.00   -120.341829      -3274.6678   0.173
  3D        10.00    -95.377569      -2595.3557   0.157
  4S         2.00    -33.203514       -903.5136   0.377
  4P         6.00    -25.070420       -682.2009   0.403
  4D        10.00    -15.810494       -430.2254   0.423
  4F        14.00     -5.618135       -152.8772   0.441
  5S         2.00     -5.791695       -157.6000   0.832
  5P         6.00     -3.517488        -95.7157   0.949
  5D        10.00     -0.994605        -27.0646   1.235
  6S         2.00     -0.529094        -14.3974   2.175
  6P         3.00     -0.165664         -4.5080   3.062



 NR. OF RADIAL VALENCE ORBITALS                          16
 NR. OF RADIAL CORE ORBITALS                              9
 NR. OF RADIAL FIT FUNCTIONS                              0



 ======================================================
 R A N G E S    F O R    A T O M I C    O R B I T A L S
 ======================================================
  
   --------------------------------------------------------------------------------
                            valence            core valence kinetic    core kinetic
   --------------------------------------------------------------------------------

             Cutoff       1.000E-06       1.000E-06       1.000E-06       1.000E-06
   --------------------------------------------------------------------------------
 
   --------------------------------------------------------------------------------
               Type         valence            core valence kinetic    core kinetic
   --------------------------------------------------------------------------------
                  O           13.84            2.73           14.09            2.77
                 Si           16.95            1.49           17.37            1.50
                  H           15.74            0.00           16.13            0.00
                 Bi           16.84            3.13           17.16            3.04
   --------------------------------------------------------------------------------
 



 ====================
 R U N    C O N F I G
 ====================
  
 
 Use Symmetry  .  .  .  .  .  .  .  .  .  .  .  .  .  .  .  .  T
 Calculate gradient of basis  .  .  .  .  .  .  .  .  .  .  .  T
 Calculate sec. der. of basis .  .  .  .  .  .  .  .  .  .  .  F
 Calculate operator T working on basis .  .  .  .  .  .  .  .  T
 Calculate dk-basis  .  .  .  .  .  .  .  .  .  .  .  .  .  .  F
 Calculate gradient of fit .  .  .  .  .  .  .  .  .  .  .  .  T
 Calculate sec. der. of fit.  .  .  .  .  .  .  .  .  .  .  .  T
 Calculate gradient of fit pot.  .  .  .  .  .  .  .  .  .  .  F
 Kin. energy via grad.  .  .  .  .  .  .  .  .  .  .  .  .  .  F
 Turnover rule for xc.  .  .  .  .  .  .  .  .  .  .  .  .  .  F
 Calculate gradient of energy .  .  .  .  .  .  .  .  .  .  .  T
 Calculate analytical strain derivatives  .  .  .  .  .  .  .  F
 Calculate kin. energy density.  .  .  .  .  .  .  .  .  .  .  F
 Calculate nuc. grad of kin. energy density  .  .  .  .  .  .  F
 Calculate der. of density .  .  .  .  .  .  .  .  .  .  .  .  T
 Calculate second der. of density.  .  .  .  .  .  .  .  .  .  T
 Calculate nuc. grad. of density .  .  .  .  .  .  .  .  .  .  T
 Calculate nuc. grad. of grad. density .  .  .  .  .  .  .  .  F
 Exact rho during SCF.  .  .  .  .  .  .  .  .  .  .  .  .  .  T
 Exact grad. rho during SCF.  .  .  .  .  .  .  .  .  .  .  .  F
 Exact grad. rho post SCF  .  .  .  .  .  .  .  .  .  .  .  .  T
 Store history of dens. matrix.  .  .  .  .  .  .  .  .  .  .  T
 Store original Bloch functions  .  .  .  .  .  .  .  .  .  .  F
 Direct fit .  .  .  .  .  .  .  .  .  .  .  .  .  .  .  .  .  F
 Direct basis  .  .  .  .  .  .  .  .  .  .  .  .  .  .  .  .  T
 STO based fitting.  .  .  .  .  .  .  .  .  .  .  .  .  .  .  F
 Zlm fitting.  .  .  .  .  .  .  .  .  .  .  .  .  .  .  .  .  T
 Calculate fragment energy in mol. grid.  .  .  .  .  .  .  .  T
 Map atoms to unit cell .  .  .  .  .  .  .  .  .  .  .  .  .  T
 Print output for radial.  .  .  .  .  .  .  .  .  .  .  .  .  T
 Calculate DOS .  .  .  .  .  .  .  .  .  .  .  .  .  .  .  .  T
 Calculate population analysis.  .  .  .  .  .  .  .  .  .  .  T
 Calculate band structure  .  .  .  .  .  .  .  .  .  .  .  .  F
 Calculate EFG .  .  .  .  .  .  .  .  .  .  .  .  .  .  .  .  F
 Calculate properties.  .  .  .  .  .  .  .  .  .  .  .  .  .  T
 Calculate kinetic energy  .  .  .  .  .  .  .  .  .  .  .  .  T
 Save file tape10 .  .  .  .  .  .  .  .  .  .  .  .  .  .  .  F
 Save file Points .  .  .  .  .  .  .  .  .  .  .  .  .  .  .  F



 ==================================================
 G E O M E T R Y    I N    X - Y - Z    F O R M A T
 ==================================================
  
 O      -0.825813096     1.606692082     1.297983400
 O       0.968162655     0.958838254     5.233669278
 O      -1.769504002    -1.333909858     3.258769498
 O      -0.806532846    -0.802860100     5.890245246
 O       1.013180752    -0.160561939     1.883240838
 O       0.684230182    -2.072955506     3.900214789
 O      -0.740891563     1.290566890    -4.558466704
 O       1.014435080     0.975342142    -0.693905988
 O      -1.823997923    -1.404169059    -2.705439136
 O      -0.843950988    -0.779534666    -0.113129257
 O       1.086740711    -0.303825362    -4.349140353
 O       0.617828796    -2.010315976    -2.124280200
 Si     -0.096767700     0.598141904     6.586965407
 Si     -0.842438484    -1.862339246     4.563803148
 Si      1.606566373    -1.552908297     2.585469786
 Si      0.096884602     0.405507445     0.593928223
 Si     -0.874181582    -1.855705999    -1.403787044
 Si      1.588379345    -1.659419050    -3.448346544
 H      -0.007262866     0.526894994    -4.407546896
 H       1.623737280    -0.048148671    -5.223134862
 Bi     -1.667822716     1.007010358    -6.767112630
 VEC1     4.892827912     0.000000000     0.000000000
 VEC2     2.445922950     4.238829830     0.000000000

   Total nr. of atoms:         21





                       2 - D I M E N S I O N A L   C R Y S T A L




   REAL SPACE LATTICE VECTORS                         LENGTH
   --------------------------                         ------
   1)   9.2461047284   0.0000000000                    9.246
   2)   4.6221244973   8.0102274668                    9.248

   ----------------------------------------
   Angles between lattice vectors
   ----------------------------------------

     pair          angle

     2 1            60.013856
 


   K-SPACE LATTICE VECTORS                            LENGTH
   -----------------------                            ------
   1)   0.6795494418  -0.3921189673                    0.785
   2)   0.0000000000   0.7843953662                    0.784


 SMALLEST INTERATOMIC DISTANCE =      1.997756296571
 BeckeGrid: periodic partition function using cells up to order            9



 ===============================
 K - S P A C E   S A M P L I N G
 ===============================
  
 Automatic Regular k-space grid for quality: NORMAL
 
    lattice-vec. size(real space)    size(k-space)   #points   delta-k
               1             8.01             0.78         5     0.196
               2             8.01             0.78         5     0.196
 
             Total nr. of unique k-points 13




 =========
 C E L L S
 =========
  

   Nr. of cells for valence functions:         37



 ===========================
 L I N E A R   S C A L I N G
 ===========================
  
 Neglecting functions
              Valence  1.00E-06
                 Core  1.00E-06
                  Fit  0.00E+00
            Multipole  1.00E-08
   Screening function  3.16E-05



 =========================================
 N U M E R I C A L   I N T E G R A T I O N
 =========================================
  
 Becke grid quality: NORMAL         
  
 Lebedev angular grid order:             min:  11 max:  31
 Nr. of radial points:                   min:  48 max:  99

 Total nr. of points                                 155136
 Block length                                           128
 Nr. of unique blocks                                  1212
 Total nr. of blocks                                   1212

 Percentage dummy points                               0.00%
 Nr. of k-points processed together in baspnt            30
 Nr. of symmetry operators (real space)                   1
 Symmetry operators in k-space                            2



 Total charge,    analytically                          265.000000000000
                  numerically                           264.999536344274
                  relative error                     -0.17E-05

 Valence density, analytically                          183.000000000000
                  numerically                           182.999529013522
                  relative error                     -0.26E-05



 INTEGRATED CHARGE PER ATOM:

  SET      TOTAL CHARGE      REL. ERROR      Valence CHARGE    REL. ERROR
 ------------------------------------------------------------------------
   1       8.0000009849       0.123E-06      6.0000017951       0.299E-06
   2       7.9999867193      -0.166E-05      5.9999859108      -0.235E-05
   3       7.9999650322      -0.437E-05      5.9999622298      -0.630E-05
   4       8.0000424696       0.531E-05      6.0000433990       0.723E-05
   5       8.0000096849       0.121E-05      6.0000095236       0.159E-05
   6       7.9999797801      -0.253E-05      5.9999770967      -0.382E-05
   7       7.9999726319      -0.342E-05      5.9999719190      -0.468E-05
   8       8.0000241778       0.302E-05      6.0000231021       0.385E-05
   9       7.9999946486      -0.669E-06      5.9999938316      -0.103E-05
  10       7.9999940065      -0.749E-06      5.9999946479      -0.892E-06
  11       7.9999986987      -0.163E-06      5.9999965913      -0.568E-06
  12       7.9999828278      -0.215E-05      5.9999824487      -0.293E-05
  13      14.0000313547       0.224E-05     12.0000309605       0.258E-05
  14      13.9999001762      -0.713E-05     11.9998997881      -0.835E-05
  15      13.9998747965      -0.894E-05     11.9998744231      -0.105E-04
  16      14.0000490391       0.350E-05     12.0000486883       0.406E-05
  17      13.9998050869      -0.139E-04     11.9998046361      -0.163E-04
  18      13.9999443204      -0.398E-05     11.9999439572      -0.467E-05
  19       0.9999784112      -0.216E-04      0.9999784112      -0.216E-04
  20       1.0000203293       0.203E-04      1.0000203293       0.203E-04
  21      82.9999811674      -0.227E-06     36.9999853242      -0.397E-06
 
 use shared memory for sandwiching:  F , as int:            0

 Norms of functions from routine baspnt
 Maximum error in norms     4.947E-04 for function      398
 Minimum accuracy required  1.000E-03

 Norms of functions from routine corpnt
 Maximum error in norms     1.537E-06 for function        3
 Minimum accuracy required  1.000E-03

 Sparseness info - valence
   nr. of functions             422
   max. nr. of functions        409
   min. nr. of functions          9
   avr. nr. of functions        246
   percentage stored           58.3
 

 Sparseness info - core
   nr. of functions              41
   max. nr. of functions         24
   min. nr. of functions          0
   avr. nr. of functions          3
   percentage stored            7.3
 

 Frozen core overlap error  7.06E-07
 PrepareHam: needLdotB F



 ========================
 Density Fitting (zlmFit)
 ========================
  
 ZlmFit Fit Quality: NORMAL         
  
 Max L-expansion:                        min:   5 max:   7
 Nr. of radial interpolation points:     min:  36 max:  81
 BeckeGrid: periodic partition function using cells up to order            7
 BeckeGrid: periodic partition function using cells up to order            7



                                          *******************************
                                          *  S C F   P R O C E D U R E  *
                                          *******************************
  

 Nr. of basis functions                     422
 Nr. of core functions                       41
 Nr. of fit functions                         0
 Nr. of symmetry unique K-points             13
 Valence charge                          183.00
 Nr. of symmetry operators                    1

 CONVERGENCE REACHED



                                             *************************
                                             *  P R O P E R T I E S  *
                                             *************************
  



 ===================================
 B A N D   E N E R G Y   R A N G E S
 ===================================
  
 The energies below are in Hartree.
 =================================================
       band          min          max   occupation
 =================================================
         36     -0.97885     -0.97758      2.00000
         37     -0.97344     -0.97149      2.00000
         38     -0.97170     -0.96774      2.00000
         39     -0.96994     -0.95834      2.00000
         40     -0.96506     -0.95609      2.00000
         41     -0.95665     -0.95644      2.00000
         42     -0.95761     -0.94756      2.00000
         43     -0.95402     -0.94243      2.00000
         44     -0.94375     -0.93638      2.00000
         45     -0.93399     -0.92387      2.00000
         46     -0.92785     -0.91624      2.00000
         47     -0.91772     -0.90535      2.00000
         48     -0.91328     -0.90423      2.00000
         49     -0.91147     -0.90297      2.00000
         50     -0.90723     -0.89959      2.00000
         51     -0.90592     -0.89785      2.00000
         52     -0.90149     -0.89169      2.00000
         53     -0.60497     -0.57461      2.00000
         54     -0.58443     -0.55229      2.00000
         55     -0.55685     -0.53680      2.00000
         56     -0.54022     -0.51607      2.00000
         57     -0.52007     -0.50501      2.00000
         58     -0.51358     -0.49922      2.00000
         59     -0.50192     -0.48459      2.00000
         60     -0.49014     -0.47409      2.00000
         61     -0.47101     -0.46791      2.00000
         62     -0.46661     -0.46376      2.00000
         63     -0.46358     -0.45929      2.00000
         64     -0.45701     -0.45339      2.00000
         65     -0.45146     -0.44124      2.00000
         66     -0.40320     -0.38416      2.00000
         67     -0.38794     -0.38137      2.00000
         68     -0.38227     -0.37481      2.00000
         69     -0.38073     -0.37002      2.00000
         70     -0.37098     -0.36295      2.00000
         71     -0.36464     -0.35840      2.00000
         72     -0.35757     -0.35156      2.00000
         73     -0.35541     -0.34483      2.00000
         74     -0.34667     -0.34105      2.00000
         75     -0.34176     -0.33695      2.00000
         76     -0.33765     -0.33416      2.00000
         77     -0.33452     -0.32925      2.00000
         78     -0.33000     -0.32577      2.00000
         79     -0.32756     -0.32272      2.00000
         80     -0.32353     -0.31748      2.00000
         81     -0.31813     -0.31316      2.00000
         82     -0.31411     -0.30801      2.00000
         83     -0.31013     -0.30509      2.00000
         84     -0.30693     -0.30052      2.00000
         85     -0.30416     -0.29771      2.00000
         86     -0.30220     -0.28973      2.00000
         87     -0.29493     -0.28676      2.00000
         88     -0.28945     -0.28325      2.00000
         89     -0.28244     -0.27390      2.00000
         90     -0.26032     -0.25108      2.00000
         91     -0.16684     -0.13609      2.00000
         92     -0.13887     -0.10888      1.00000
         93     -0.12285     -0.09605      0.00000
         94     -0.10157     -0.08472      0.00000
         95     -0.07296     -0.02112      0.00000
         96     -0.04090     -0.01060      0.00000
         97     -0.01869      0.00465      0.00000
         98     -0.00596      0.01688      0.00000
         99      0.01127      0.02797      0.00000
        100      0.02523      0.03729      0.00000
        101      0.03237      0.05179      0.00000
        102      0.03634      0.06063      0.00000
        103      0.05005      0.06771      0.00000
        104      0.05510      0.07203      0.00000
        105      0.06172      0.07847      0.00000
        106      0.06560      0.08615      0.00000
        107      0.07327      0.09046      0.00000
        108      0.08648      0.09582      0.00000
        109      0.09447      0.09786      0.00000
        110      0.09744      0.10700      0.00000
        111      0.10008      0.11461      0.00000
        112      0.10542      0.12064      0.00000
        113      0.11340      0.13396      0.00000
        114      0.11992      0.13613      0.00000
        115      0.12627      0.14227      0.00000
        116      0.12962      0.15129      0.00000
        117      0.13488      0.16229      0.00000
        118      0.13978      0.16656      0.00000
        119      0.14819      0.17047      0.00000
        120      0.15706      0.17786      0.00000
        121      0.16159      0.18451      0.00000
        122      0.16748      0.20156      0.00000
        123      0.17358      0.22094      0.00000
        124      0.18167      0.23604      0.00000
        125      0.18824      0.25688      0.00000
        126      0.20191      0.26653      0.00000
        127      0.22025      0.27942      0.00000
        128      0.22597      0.28968      0.00000
        129      0.23923      0.29850      0.00000
        130      0.25481      0.30817      0.00000
        131      0.26903      0.31343      0.00000
        132      0.28081      0.31801      0.00000
        133      0.28511      0.32380      0.00000
        134      0.29265      0.33033      0.00000
        135      0.29507      0.33607      0.00000
        136      0.30630      0.34112      0.00000
        137      0.31654      0.34375      0.00000
        138      0.33311      0.34867      0.00000
        139      0.33941      0.35905      0.00000
        140      0.35289      0.36703      0.00000
        141      0.36010      0.37331      0.00000
        142      0.36961      0.37976      0.00000
        143      0.38007      0.38910      0.00000
        144      0.38721      0.39796      0.00000
        145      0.39759      0.41405      0.00000
        146      0.40113      0.42308      0.00000
        147      0.40915      0.42836      0.00000
        148      0.41888      0.44036      0.00000
        149      0.43683      0.45261      0.00000
        150      0.44484      0.46518      0.00000
        151      0.45142      0.47844      0.00000
        152      0.46400      0.48765      0.00000
        153      0.47236      0.49994      0.00000
        154      0.49122      0.51586      0.00000
        155      0.49894      0.52997      0.00000
        156      0.51234      0.53533      0.00000
        157      0.52046      0.55266      0.00000
        158      0.52722      0.56422      0.00000
        159      0.53768      0.57369      0.00000
        160      0.55203      0.58568      0.00000
        161      0.56393      0.59908      0.00000
        162      0.57638      0.60727      0.00000
        163      0.58365      0.61747      0.00000
        164      0.59672      0.63857      0.00000
        165      0.60417      0.64092      0.00000
        166      0.61863      0.64501      0.00000
        167      0.62978      0.64943      0.00000
        168      0.63902      0.66189      0.00000
        169      0.65171      0.66449      0.00000
        170      0.66200      0.67247      0.00000
        171      0.66832      0.68159      0.00000
        172      0.67652      0.68929      0.00000
        173      0.68062      0.70182      0.00000
        174      0.69132      0.71259      0.00000
        175      0.69866      0.71792      0.00000
        176      0.70393      0.72107      0.00000
        177      0.71017      0.73235      0.00000
        178      0.71448      0.73701      0.00000
        179      0.71585      0.74015      0.00000
        180      0.72888      0.74959      0.00000
        181      0.73394      0.75965      0.00000
        182      0.73714      0.76823      0.00000
        183      0.74715      0.77083      0.00000
        184      0.75196      0.78125      0.00000
        185      0.77472      0.79020      0.00000
        186      0.77877      0.79562      0.00000
        187      0.78397      0.80222      0.00000
        188      0.79004      0.80933      0.00000
        189      0.80583      0.82300      0.00000
        190      0.80924      0.83712      0.00000
        191      0.81781      0.84515      0.00000
        192      0.82865      0.86045      0.00000
        193      0.83660      0.86118      0.00000
        194      0.84224      0.87786      0.00000
        195      0.84865      0.88444      0.00000
        196      0.86038      0.89171      0.00000
        197      0.86415      0.89843      0.00000
 =================================================
 Final bond energy (SCF)                                      -5.05327334    -137.5066    -3170.98
 
----------------------------------------------------------------------
Geometry Convergence after Step   1       (Hartree/Angstrom,Angstrom)
----------------------------------------------------------------------
current energy                               -5.05327334 Hartree
energy change                      -5.05327334     0.00021000    F
constrained gradient max            0.07132297     0.00100000    F
constrained gradient rms            0.01684953     0.00066667    F
gradient max                        0.07132297
gradient rms                        0.01684953
cart. step max                      0.18377505     0.01000000    F
cart. step rms                      0.06006069     0.00666667    F
 
 
--------
Geometry
--------
Formula: H2BiO12Si6
Atoms
  Index Symbol   x (angstrom)   y (angstrom)   z (angstrom)
      1      O    -0.90696747     1.22470704    -4.69126926
      2      O     0.90055172     0.58272440    -0.87025477
      3      O    -1.85607468    -1.70641093    -2.78422585
      4      O    -0.88821553    -1.18343575    -0.19525562
      5      O     0.94138324    -0.53674882    -4.09258967
      6      O     3.04208300     1.78313528    -2.13505456
      7     Si    -0.16073942     0.21095927     0.45909584
      8     Si     1.51965325     2.00047413    -1.50372361
      9     Si    -3.36935932    -1.93346673    -3.42518567
     10      O    -0.82631963     0.90507878   -10.37772891
     11      O     0.94745308     0.60008866    -6.62457264
     12      O    -1.89901881    -1.77953305    -8.58483582
     13      O    -0.92050068    -1.14874297    -6.03660951
     14      O     1.00590059    -0.70586624   -10.17197243
     15      O     2.99081286     1.84199662    -7.98519932
     16     Si     0.02485198     0.03087462    -5.36114190
     17     Si     1.49738288     2.00865032    -7.30309553
     18     Si    -3.37912873    -2.04869599    -9.29066238
     19      H    -0.09204756     0.13993681   -10.22949379
     20      H     1.54112132    -0.46235444   -11.04632245
     21     Bi    -1.78018636     0.60003241   -12.57588705
 
Lattice vectors (angstrom)
      1     4.89282791     0.00000000     0.00000000
      2     2.44592295     4.23882983     0.00000000
 
Unit cell area (angstrom^2)        20.73986
 
Total System Charge             0.00000
Bonding info available!
 
 Needs range separation F F
 Range separation string: 
 K-points configuration loaded from previous results: GO1_GOStep1.rkf



                                          *******************************
                                          *  S C F   P R O C E D U R E  *
                                          *******************************
  

 Nr. of basis functions                     422
 Nr. of core functions                       41
 Nr. of fit functions                         0
 Nr. of symmetry unique K-points             13
 Valence charge                          183.00
 Nr. of symmetry operators                    1

 CONVERGENCE REACHED



                                             *************************
                                             *  P R O P E R T I E S  *
                                             *************************
  



 ===================================
 B A N D   E N E R G Y   R A N G E S
 ===================================
  
 The energies below are in Hartree.
 =================================================
       band          min          max   occupation
 =================================================
         36     -0.98446     -0.97853      2.00000
         37     -0.98012     -0.97190      2.00000
         38     -0.97350     -0.96917      2.00000
         39     -0.97278     -0.96797      2.00000
         40     -0.97006     -0.95845      2.00000
         41     -0.96149     -0.95708      2.00000
         42     -0.95758     -0.95598      2.00000
         43     -0.95768     -0.95106      2.00000
         44     -0.95383     -0.94180      2.00000
         45     -0.94038     -0.93240      2.00000
         46     -0.93609     -0.92344      2.00000
         47     -0.92721     -0.91579      2.00000
         48     -0.92175     -0.91359      2.00000
         49     -0.91812     -0.91142      2.00000
         50     -0.91576     -0.90690      2.00000
         51     -0.91404     -0.90295      2.00000
         52     -0.90817     -0.90224      2.00000
         53     -0.61186     -0.58100      2.00000
         54     -0.59054     -0.55937      2.00000
         55     -0.56229     -0.54260      2.00000
         56     -0.54581     -0.52030      2.00000
         57     -0.52178     -0.50983      2.00000
         58     -0.51692     -0.50412      2.00000
         59     -0.51008     -0.49039      2.00000
         60     -0.49412     -0.47854      2.00000
         61     -0.47767     -0.47332      2.00000
         62     -0.47456     -0.47055      2.00000
         63     -0.46993     -0.46612      2.00000
         64     -0.46373     -0.45999      2.00000
         65     -0.45893     -0.44937      2.00000
         66     -0.40646     -0.39151      2.00000
         67     -0.39656     -0.38773      2.00000
         68     -0.39210     -0.38395      2.00000
         69     -0.38857     -0.37754      2.00000
         70     -0.37784     -0.37275      2.00000
         71     -0.37168     -0.36570      2.00000
         72     -0.36539     -0.35933      2.00000
         73     -0.36211     -0.35276      2.00000
         74     -0.35348     -0.34747      2.00000
         75     -0.34903     -0.34508      2.00000
         76     -0.34497     -0.34095      2.00000
         77     -0.34158     -0.33504      2.00000
         78     -0.33784     -0.33307      2.00000
         79     -0.33397     -0.32745      2.00000
         80     -0.32849     -0.32352      2.00000
         81     -0.32374     -0.32054      2.00000
         82     -0.32071     -0.31556      2.00000
         83     -0.31606     -0.31214      2.00000
         84     -0.31324     -0.30790      2.00000
         85     -0.30967     -0.30238      2.00000
         86     -0.30860     -0.29764      2.00000
         87     -0.29868     -0.29334      2.00000
         88     -0.29401     -0.28964      2.00000
         89     -0.28755     -0.27879      2.00000
         90     -0.26025     -0.25161      2.00000
         91     -0.16782     -0.13714      2.00000
         92     -0.14014     -0.10917      1.00000
         93     -0.12330     -0.09743      0.00000
         94     -0.10233     -0.08583      0.00000
         95     -0.06832     -0.01788      0.00000
         96     -0.03655     -0.00223      0.00000
         97     -0.01645      0.00956      0.00000
         98     -0.00223      0.02215      0.00000
         99      0.01375      0.03401      0.00000
        100      0.02734      0.04191      0.00000
        101      0.03791      0.05669      0.00000
        102      0.04135      0.06332      0.00000
        103      0.05298      0.07076      0.00000
        104      0.05738      0.07511      0.00000
        105      0.06555      0.08150      0.00000
        106      0.06924      0.08782      0.00000
        107      0.07644      0.09400      0.00000
        108      0.09000      0.09739      0.00000
        109      0.09656      0.10060      0.00000
        110      0.09985      0.10907      0.00000
        111      0.10247      0.11571      0.00000
        112      0.10567      0.12402      0.00000
        113      0.11244      0.13817      0.00000
        114      0.12221      0.14013      0.00000
        115      0.12867      0.14538      0.00000
        116      0.13133      0.15535      0.00000
        117      0.13741      0.16529      0.00000
        118      0.14267      0.16582      0.00000
        119      0.15112      0.17299      0.00000
        120      0.15974      0.18042      0.00000
        121      0.16365      0.19369      0.00000
        122      0.16800      0.19907      0.00000
        123      0.17468      0.22009      0.00000
        124      0.18164      0.23792      0.00000
        125      0.18865      0.25502      0.00000
        126      0.20301      0.26731      0.00000
        127      0.22130      0.27653      0.00000
        128      0.22650      0.29184      0.00000
        129      0.24000      0.29544      0.00000
        130      0.25559      0.30854      0.00000
        131      0.27022      0.31352      0.00000
        132      0.28047      0.31883      0.00000
        133      0.28718      0.32268      0.00000
        134      0.29115      0.32926      0.00000
        135      0.29432      0.33703      0.00000
        136      0.30531      0.34107      0.00000
        137      0.31691      0.34439      0.00000
        138      0.33524      0.34901      0.00000
        139      0.34166      0.35937      0.00000
        140      0.35184      0.36628      0.00000
        141      0.36143      0.37409      0.00000
        142      0.37080      0.38025      0.00000
        143      0.38061      0.39048      0.00000
        144      0.38905      0.40237      0.00000
        145      0.39774      0.41312      0.00000
        146      0.40379      0.42234      0.00000
        147      0.41130      0.43029      0.00000
        148      0.42121      0.44418      0.00000
        149      0.44038      0.45421      0.00000
        150      0.44787      0.46849      0.00000
        151      0.45318      0.48097      0.00000
        152      0.46745      0.48877      0.00000
        153      0.47675      0.50211      0.00000
        154      0.49486      0.51336      0.00000
        155      0.50034      0.53121      0.00000
        156      0.51418      0.53781      0.00000
        157      0.52195      0.55403      0.00000
        158      0.52889      0.56736      0.00000
        159      0.54168      0.57515      0.00000
        160      0.55602      0.58970      0.00000
        161      0.56916      0.60358      0.00000
        162      0.58324      0.60923      0.00000
        163      0.58676      0.62051      0.00000
        164      0.60272      0.63898      0.00000
        165      0.61345      0.64324      0.00000
        166      0.62495      0.65106      0.00000
        167      0.63505      0.65654      0.00000
        168      0.64349      0.66543      0.00000
        169      0.66078      0.67279      0.00000
        170      0.66914      0.68100      0.00000
        171      0.67276      0.69046      0.00000
        172      0.68419      0.69921      0.00000
        173      0.68658      0.70789      0.00000
        174      0.69936      0.71933      0.00000
        175      0.70387      0.72588      0.00000
        176      0.71076      0.73227      0.00000
        177      0.71660      0.74224      0.00000
        178      0.72184      0.74505      0.00000
        179      0.72587      0.75168      0.00000
        180      0.73492      0.75777      0.00000
        181      0.74277      0.76632      0.00000
        182      0.74862      0.77658      0.00000
        183      0.75348      0.78194      0.00000
        184      0.76272      0.78928      0.00000
        185      0.77981      0.79731      0.00000
        186      0.78574      0.80608      0.00000
        187      0.79070      0.81312      0.00000
        188      0.79194      0.81852      0.00000
        189      0.81340      0.83213      0.00000
        190      0.81768      0.84444      0.00000
        191      0.82622      0.85237      0.00000
        192      0.84100      0.86652      0.00000
        193      0.84765      0.87062      0.00000
        194      0.85374      0.88364      0.00000
        195      0.86083      0.88692      0.00000
        196      0.87181      0.89324      0.00000
 =================================================
 Final bond energy (SCF)                                      -5.07286634    -138.0397    -3183.27

 dE(predicted):    -0.16612E-01, dE(actual):    -0.19593E-01, Trust radius:    0.400000, all in a.u.
 
----------------------------------------------------------------------
Geometry Convergence after Step   2       (Hartree/Angstrom,Angstrom)
----------------------------------------------------------------------
current energy                               -5.07286634 Hartree
energy change                      -0.01959301     0.00021000    F
constrained gradient max            0.04970808     0.00100000    F
constrained gradient rms            0.01201702     0.00066667    F
gradient max                        0.04970808
gradient rms                        0.01201702
cart. step max                      0.21163948     0.01000000    F
cart. step rms                      0.06905734     0.00666667    F
 
 
--------
Geometry
--------
Formula: H2BiO12Si6
Atoms
  Index Symbol   x (angstrom)   y (angstrom)   z (angstrom)
      1      O    -0.91989267     1.20743611    -4.73527566
      2      O     0.90272053     0.58003775    -1.04752874
      3      O    -1.87146665    -1.70607765    -2.89195729
      4      O    -0.89829733    -1.18558619    -0.35929789
      5      O     0.94140759    -0.54565965    -4.12678392
      6      O     3.02499507     1.76786158    -2.23520330
      7     Si    -0.15487876     0.19959432     0.24745637
      8     Si     1.50711561     1.99626893    -1.64133633
      9     Si    -3.38090452    -1.94635602    -3.49691340
     10      O    -0.81876514     0.93076712   -10.25188425
     11      O     0.94904543     0.59017111    -6.60575055
     12      O    -1.90926285    -1.77088185    -8.49879627
     13      O    -0.93373416    -1.15052851    -6.00682250
     14      O     1.00388862    -0.71213080   -10.01460113
     15      O     2.98077858     1.82968273    -7.89259022
     16     Si     0.02093223     0.02175442    -5.37034648
     17     Si     1.48709198     2.00334404    -7.24761539
     18     Si    -3.38452473    -2.05055122    -9.17034271
     19      H    -0.09452138     0.16359166   -10.09657093
     20      H     1.55339859    -0.47517685   -10.87753479
     21     Bi    -1.67249034     0.67584241   -12.50628949
 
Lattice vectors (angstrom)
      1     4.89282791     0.00000000     0.00000000
      2     2.44592295     4.23882983     0.00000000
 
Unit cell area (angstrom^2)        20.73986
 
Total System Charge             0.00000
Bonding info available!
 
 Needs range separation F F
 Range separation string: 
 K-points configuration loaded from previous results: GO1_GOStep2.rkf



                                          *******************************
                                          *  S C F   P R O C E D U R E  *
                                          *******************************
  

 Nr. of basis functions                     422
 Nr. of core functions                       41
 Nr. of fit functions                         0
 Nr. of symmetry unique K-points             13
 Valence charge                          183.00
 Nr. of symmetry operators                    1

 CONVERGENCE REACHED



                                             *************************
                                             *  P R O P E R T I E S  *
                                             *************************
  



 ===================================
 B A N D   E N E R G Y   R A N G E S
 ===================================
  
 The energies below are in Hartree.
 =================================================
       band          min          max   occupation
 =================================================
         36     -0.99799     -0.98800      2.00000
         37     -0.99107     -0.98138      2.00000
         38     -0.98487     -0.98149      2.00000
         39     -0.98208     -0.97854      2.00000
         40     -0.98033     -0.96732      2.00000
         41     -0.97341     -0.96638      2.00000
         42     -0.96699     -0.96671      2.00000
         43     -0.96699     -0.96422      2.00000
         44     -0.96535     -0.95453      2.00000
         45     -0.95301     -0.94194      2.00000
         46     -0.94866     -0.93235      2.00000
         47     -0.93329     -0.92485      2.00000
         48     -0.92990     -0.92433      2.00000
         49     -0.92890     -0.92392      2.00000
         50     -0.92700     -0.92224      2.00000
         51     -0.92364     -0.91809      2.00000
         52     -0.92181     -0.90973      2.00000
         53     -0.62137     -0.59110      2.00000
         54     -0.59904     -0.56518      2.00000
         55     -0.56967     -0.55083      2.00000
         56     -0.55573     -0.52495      2.00000
         57     -0.52947     -0.52006      2.00000
         58     -0.52403     -0.51387      2.00000
         59     -0.51768     -0.49897      2.00000
         60     -0.50633     -0.49250      2.00000
         61     -0.48851     -0.48553      2.00000
         62     -0.48550     -0.48034      2.00000
         63     -0.47997     -0.47745      2.00000
         64     -0.47579     -0.46936      2.00000
         65     -0.46618     -0.45410      2.00000
         66     -0.41993     -0.40051      2.00000
         67     -0.40459     -0.39869      2.00000
         68     -0.40172     -0.39381      2.00000
         69     -0.39945     -0.38645      2.00000
         70     -0.38827     -0.37987      2.00000
         71     -0.38257     -0.37455      2.00000
         72     -0.37535     -0.37095      2.00000
         73     -0.37290     -0.36027      2.00000
         74     -0.36519     -0.35652      2.00000
         75     -0.35855     -0.35446      2.00000
         76     -0.35721     -0.34851      2.00000
         77     -0.35231     -0.34551      2.00000
         78     -0.34601     -0.34154      2.00000
         79     -0.34321     -0.33807      2.00000
         80     -0.34039     -0.33362      2.00000
         81     -0.33290     -0.32924      2.00000
         82     -0.32846     -0.32373      2.00000
         83     -0.32500     -0.32079      2.00000
         84     -0.32115     -0.31808      2.00000
         85     -0.31814     -0.31380      2.00000
         86     -0.31564     -0.30460      2.00000
         87     -0.30797     -0.30096      2.00000
         88     -0.30434     -0.29746      2.00000
         89     -0.29642     -0.29087      2.00000
         90     -0.25298     -0.24341      2.00000
         91     -0.17695     -0.14267      2.00000
         92     -0.14802     -0.10545      1.00000
         93     -0.11535     -0.10158      0.00000
         94     -0.10424     -0.09550      0.00000
         95     -0.06505     -0.00717      0.00000
         96     -0.03651      0.00426      0.00000
         97     -0.01186      0.01445      0.00000
         98      0.00241      0.02931      0.00000
         99      0.02298      0.03624      0.00000
        100      0.03023      0.04546      0.00000
        101      0.04169      0.05784      0.00000
        102      0.04585      0.06465      0.00000
        103      0.05301      0.07212      0.00000
        104      0.05740      0.07582      0.00000
        105      0.06428      0.08198      0.00000
        106      0.07286      0.08626      0.00000
        107      0.07817      0.09216      0.00000
        108      0.08860      0.09710      0.00000
        109      0.09496      0.10073      0.00000
        110      0.09674      0.11000      0.00000
        111      0.10156      0.11852      0.00000
        112      0.10897      0.12822      0.00000
        113      0.11185      0.13450      0.00000
        114      0.12016      0.14493      0.00000
        115      0.12595      0.14941      0.00000
        116      0.13032      0.15564      0.00000
        117      0.13735      0.16214      0.00000
        118      0.14358      0.16879      0.00000
        119      0.15297      0.17321      0.00000
        120      0.15667      0.18343      0.00000
        121      0.16451      0.19759      0.00000
        122      0.16968      0.20139      0.00000
        123      0.17530      0.21792      0.00000
        124      0.18542      0.23610      0.00000
        125      0.19029      0.24528      0.00000
        126      0.20585      0.26653      0.00000
        127      0.21441      0.26756      0.00000
        128      0.22691      0.29322      0.00000
        129      0.24175      0.29812      0.00000
        130      0.25880      0.30485      0.00000
        131      0.27061      0.31231      0.00000
        132      0.27805      0.31526      0.00000
        133      0.28803      0.31835      0.00000
        134      0.29083      0.32671      0.00000
        135      0.30015      0.33727      0.00000
        136      0.30090      0.33964      0.00000
        137      0.32111      0.34761      0.00000
        138      0.33769      0.34892      0.00000
        139      0.34688      0.36002      0.00000
        140      0.35583      0.36504      0.00000
        141      0.36346      0.37459      0.00000
        142      0.37203      0.38130      0.00000
        143      0.37823      0.39088      0.00000
        144      0.38994      0.40344      0.00000
        145      0.39823      0.41621      0.00000
        146      0.40420      0.42280      0.00000
        147      0.41025      0.43757      0.00000
        148      0.42192      0.44722      0.00000
        149      0.44119      0.45449      0.00000
        150      0.45304      0.47221      0.00000
        151      0.45642      0.48001      0.00000
        152      0.46953      0.48852      0.00000
        153      0.48016      0.49984      0.00000
        154      0.49406      0.51199      0.00000
        155      0.49931      0.52813      0.00000
        156      0.51183      0.54001      0.00000
        157      0.51954      0.54776      0.00000
        158      0.53095      0.56323      0.00000
        159      0.54462      0.57609      0.00000
        160      0.55023      0.59117      0.00000
        161      0.56658      0.60547      0.00000
        162      0.58310      0.61015      0.00000
        163      0.59166      0.61614      0.00000
        164      0.60290      0.63280      0.00000
        165      0.61306      0.64174      0.00000
        166      0.61760      0.64922      0.00000
        167      0.63907      0.65904      0.00000
        168      0.65022      0.66520      0.00000
        169      0.66230      0.67772      0.00000
        170      0.67008      0.69191      0.00000
        171      0.67939      0.69877      0.00000
        172      0.68845      0.71008      0.00000
        173      0.69803      0.71695      0.00000
        174      0.70436      0.72163      0.00000
        175      0.71253      0.73626      0.00000
        176      0.71873      0.74200      0.00000
        177      0.72170      0.74963      0.00000
        178      0.73257      0.75386      0.00000
        179      0.73364      0.75946      0.00000
        180      0.74452      0.76697      0.00000
        181      0.75037      0.77029      0.00000
        182      0.75427      0.78380      0.00000
        183      0.76240      0.78552      0.00000
        184      0.77456      0.79497      0.00000
        185      0.78048      0.80696      0.00000
        186      0.78295      0.81297      0.00000
        187      0.79129      0.82289      0.00000
        188      0.80108      0.83102      0.00000
        189      0.81532      0.83342      0.00000
        190      0.82387      0.84830      0.00000
        191      0.83799      0.85706      0.00000
        192      0.84642      0.86906      0.00000
        193      0.85737      0.87922      0.00000
 =================================================
 Final bond energy (SCF)                                      -5.08477643    -138.3638    -3190.75

 dE(predicted):    -0.15514E-01, dE(actual):    -0.11910E-01, Trust radius:    0.400000, all in a.u.
 
----------------------------------------------------------------------
Geometry Convergence after Step   3       (Hartree/Angstrom,Angstrom)
----------------------------------------------------------------------
current energy                               -5.08477643 Hartree
energy change                      -0.01191009     0.00021000    F
constrained gradient max            0.02443699     0.00100000    F
constrained gradient rms            0.00690161     0.00066667    F
gradient max                        0.02443699
gradient rms                        0.00690161
cart. step max                      0.21631924     0.01000000    F
cart. step rms                      0.05749169     0.00666667    F
 
 
--------
Geometry
--------
Formula: H2BiO12Si6
Atoms
  Index Symbol   x (angstrom)   y (angstrom)   z (angstrom)
      1      O    -0.90897975     1.23406677    -4.76592918
      2      O     0.91632386     0.61331590    -1.12845125
      3      O    -1.86393189    -1.67076401    -2.94467286
      4      O    -0.88769783    -1.14903836    -0.43954785
      5      O     0.95818999    -0.51553492    -4.15091439
      6      O     3.03175673     1.79237949    -2.28802794
      7     Si    -0.14011400     0.23180987     0.14892002
      8     Si     1.51614350     2.02850319    -1.70684616
      9     Si    -3.37100761    -1.91961746    -3.53615225
     10      O    -0.83942216     0.88470802   -10.16206479
     11      O     0.97997331     0.61694589    -6.60352566
     12      O    -1.87443148    -1.76150359    -8.48918299
     13      O    -0.91619282    -1.11549398    -6.01372985
     14      O     0.99989835    -0.75704575    -9.96576920
     15      O     3.01733632     1.83240270    -7.84578046
     16     Si     0.03930469     0.05319649    -5.38520316
     17     Si     1.51674424     2.02779669    -7.23605111
     18     Si    -3.35480883    -2.07102354    -9.12331647
     19      H    -0.11001102     0.12969536   -10.02223727
     20      H     1.51237171    -0.54731424   -10.84923731
     21     Bi    -1.88880958     0.48591890   -12.31826475
 
Lattice vectors (angstrom)
      1     4.89282791     0.00000000     0.00000000
      2     2.44592295     4.23882983     0.00000000
 
Unit cell area (angstrom^2)        20.73986
 
Total System Charge             0.00000
Bonding info available!
 
 Needs range separation F F
 Range separation string: 
 K-points configuration loaded from previous results: GO1_GOStep3.rkf



                                          *******************************
                                          *  S C F   P R O C E D U R E  *
                                          *******************************
  

 Nr. of basis functions                     422
 Nr. of core functions                       41
 Nr. of fit functions                         0
 Nr. of symmetry unique K-points             13
 Valence charge                          183.00
 Nr. of symmetry operators                    1

 CONVERGENCE REACHED



                                             *************************
                                             *  P R O P E R T I E S  *
                                             *************************
  



 ===================================
 B A N D   E N E R G Y   R A N G E S
 ===================================
  
 The energies below are in Hartree.
 =================================================
       band          min          max   occupation
 =================================================
         36     -1.00197     -0.98331      2.00000
         37     -0.98985     -0.98104      2.00000
         38     -0.98150     -0.97461      2.00000
         39     -0.97527     -0.97188      2.00000
         40     -0.97361     -0.97040      2.00000
         41     -0.97112     -0.96419      2.00000
         42     -0.96491     -0.95923      2.00000
         43     -0.95946     -0.95909      2.00000
         44     -0.95921     -0.95160      2.00000
         45     -0.95434     -0.94478      2.00000
         46     -0.94686     -0.93390      2.00000
         47     -0.94116     -0.93195      2.00000
         48     -0.93570     -0.92845      2.00000
         49     -0.93198     -0.92410      2.00000
         50     -0.93067     -0.92379      2.00000
         51     -0.92569     -0.91819      2.00000
         52     -0.91821     -0.91024      2.00000
         53     -0.62333     -0.59239      2.00000
         54     -0.60038     -0.56565      2.00000
         55     -0.57131     -0.55164      2.00000
         56     -0.55492     -0.53395      2.00000
         57     -0.53688     -0.51825      2.00000
         58     -0.52389     -0.50824      2.00000
         59     -0.52164     -0.49822      2.00000
         60     -0.50005     -0.48943      2.00000
         61     -0.49122     -0.48403      2.00000
         62     -0.48436     -0.47910      2.00000
         63     -0.47868     -0.46997      2.00000
         64     -0.47430     -0.46724      2.00000
         65     -0.47057     -0.46271      2.00000
         66     -0.41411     -0.40573      2.00000
         67     -0.41036     -0.40090      2.00000
         68     -0.40649     -0.39320      2.00000
         69     -0.40039     -0.38923      2.00000
         70     -0.39194     -0.38579      2.00000
         71     -0.38576     -0.37738      2.00000
         72     -0.37908     -0.37247      2.00000
         73     -0.37213     -0.36589      2.00000
         74     -0.36562     -0.36040      2.00000
         75     -0.36233     -0.35667      2.00000
         76     -0.35869     -0.35089      2.00000
         77     -0.35441     -0.34602      2.00000
         78     -0.35063     -0.34079      2.00000
         79     -0.34569     -0.33646      2.00000
         80     -0.33906     -0.33270      2.00000
         81     -0.33460     -0.33172      2.00000
         82     -0.33205     -0.32684      2.00000
         83     -0.32781     -0.32286      2.00000
         84     -0.32450     -0.31638      2.00000
         85     -0.31878     -0.31185      2.00000
         86     -0.31590     -0.30870      2.00000
         87     -0.31003     -0.30294      2.00000
         88     -0.30238     -0.29506      2.00000
         89     -0.29364     -0.28533      2.00000
         90     -0.26174     -0.25205      2.00000
         91     -0.16889     -0.13997      2.00000
         92     -0.14239     -0.11014      0.99769
         93     -0.12429     -0.10031      0.00231
         94     -0.10497     -0.08772      0.00000
         95     -0.06145     -0.01408      0.00000
         96     -0.03003      0.00731      0.00000
         97     -0.01359      0.02616      0.00000
         98      0.00321      0.03473      0.00000
         99      0.01732      0.04766      0.00000
        100      0.03034      0.05224      0.00000
        101      0.04663      0.06298      0.00000
        102      0.04955      0.06804      0.00000
        103      0.05860      0.07339      0.00000
        104      0.06185      0.07996      0.00000
        105      0.07166      0.08322      0.00000
        106      0.07948      0.08619      0.00000
        107      0.08411      0.09577      0.00000
        108      0.09254      0.10332      0.00000
        109      0.09607      0.10769      0.00000
        110      0.10320      0.11189      0.00000
        111      0.10474      0.12121      0.00000
        112      0.10918      0.12976      0.00000
        113      0.11432      0.14322      0.00000
        114      0.12474      0.14682      0.00000
        115      0.13136      0.14960      0.00000
        116      0.13690      0.16069      0.00000
        117      0.14292      0.16332      0.00000
        118      0.15139      0.17262      0.00000
        119      0.15614      0.17598      0.00000
        120      0.16446      0.18631      0.00000
        121      0.16751      0.19359      0.00000
        122      0.17375      0.20793      0.00000
        123      0.18093      0.22005      0.00000
        124      0.18276      0.24194      0.00000
        125      0.19132      0.25307      0.00000
        126      0.20656      0.26922      0.00000
        127      0.22430      0.27348      0.00000
        128      0.23098      0.28666      0.00000
        129      0.24194      0.29992      0.00000
        130      0.25743      0.30828      0.00000
        131      0.27282      0.31342      0.00000
        132      0.28142      0.31868      0.00000
        133      0.28813      0.32571      0.00000
        134      0.29196      0.32933      0.00000
        135      0.29844      0.34050      0.00000
        136      0.30697      0.34189      0.00000
        137      0.32133      0.34636      0.00000
        138      0.33890      0.35135      0.00000
        139      0.34393      0.35884      0.00000
        140      0.35284      0.36777      0.00000
        141      0.36371      0.37778      0.00000
        142      0.37425      0.38565      0.00000
        143      0.38119      0.39549      0.00000
        144      0.39232      0.40453      0.00000
        145      0.39717      0.41225      0.00000
        146      0.40617      0.42901      0.00000
        147      0.41742      0.43585      0.00000
        148      0.42643      0.45031      0.00000
        149      0.44442      0.45819      0.00000
        150      0.45257      0.47580      0.00000
        151      0.46290      0.48593      0.00000
        152      0.47371      0.49414      0.00000
        153      0.48715      0.50508      0.00000
        154      0.49873      0.51521      0.00000
        155      0.50532      0.53596      0.00000
        156      0.51841      0.54636      0.00000
        157      0.52373      0.56055      0.00000
        158      0.53260      0.57497      0.00000
        159      0.55260      0.57789      0.00000
        160      0.56364      0.59638      0.00000
        161      0.57652      0.61083      0.00000
        162      0.59007      0.61255      0.00000
        163      0.59844      0.62559      0.00000
        164      0.61275      0.63831      0.00000
        165      0.62538      0.64652      0.00000
        166      0.63929      0.65972      0.00000
        167      0.64854      0.66635      0.00000
        168      0.65234      0.67695      0.00000
        169      0.67017      0.68293      0.00000
        170      0.67621      0.69693      0.00000
        171      0.68373      0.71087      0.00000
        172      0.69792      0.71685      0.00000
        173      0.70391      0.72381      0.00000
        174      0.70676      0.73151      0.00000
        175      0.71893      0.74345      0.00000
        176      0.72377      0.75033      0.00000
        177      0.73193      0.75445      0.00000
        178      0.73555      0.75932      0.00000
        179      0.74228      0.76632      0.00000
        180      0.75074      0.77219      0.00000
        181      0.75553      0.77782      0.00000
        182      0.76243      0.78690      0.00000
        183      0.77098      0.79786      0.00000
        184      0.78075      0.80255      0.00000
        185      0.78455      0.81356      0.00000
        186      0.79759      0.82331      0.00000
        187      0.80394      0.82994      0.00000
        188      0.81119      0.83768      0.00000
        189      0.82319      0.84788      0.00000
        190      0.83537      0.85732      0.00000
        191      0.84435      0.86007      0.00000
        192      0.85685      0.87982      0.00000
        193      0.86483      0.88342      0.00000
 =================================================
 Final bond energy (SCF)                                      -5.08527535    -138.3774    -3191.06

 dE(predicted):    -0.58554E-02, dE(actual):    -0.49892E-03, Trust radius:    0.057668, all in a.u.
 
----------------------------------------------------------------------
Geometry Convergence after Step   4       (Hartree/Angstrom,Angstrom)
----------------------------------------------------------------------
current energy                               -5.08527535 Hartree
energy change                      -0.00049892     0.00021000    F
constrained gradient max            0.01992451     0.00100000    F
constrained gradient rms            0.00597610     0.00066667    F
gradient max                        0.01992451
gradient rms                        0.00597610
cart. step max                      0.06163686     0.01000000    F
cart. step rms                      0.01581142     0.00666667    F
 
 
--------
Geometry
--------
Formula: H2BiO12Si6
Atoms
  Index Symbol   x (angstrom)   y (angstrom)   z (angstrom)
      1      O    -0.91377779     1.22035661    -4.76066419
      2      O     0.91203619     0.60251475    -1.12352903
      3      O    -1.86737576    -1.68162392    -2.94073809
      4      O    -0.89100716    -1.15795630    -0.43680859
      5      O     0.95441983    -0.52880777    -4.14774183
      6      O     3.02848495     1.77947899    -2.28271093
      7     Si    -0.14343447     0.22181824     0.15092145
      8     Si     1.51234866     2.01819738    -1.70290332
      9     Si    -3.37482965    -1.93277108    -3.53189757
     10      O    -0.82890252     0.90952863   -10.17773242
     11      O     0.97269821     0.60380253    -6.60268010
     12      O    -1.88495484    -1.76140835    -8.48001700
     13      O    -0.92630614    -1.12726822    -6.00754972
     14      O     1.00290190    -0.74209285    -9.95890337
     15      O     3.00457200     1.83228803    -7.84849977
     16     Si     0.03398001     0.03952562    -5.38205122
     17     Si     1.50572843     2.01906127    -7.23254625
     18     Si    -3.36162201    -2.06231372    -9.12212435
     19      H    -0.10356593     0.15657732   -10.03375822
     20      H     1.52841454    -0.53067212   -10.83467762
     21     Bi    -1.82717273     0.54516839   -12.36937274
 
Lattice vectors (angstrom)
      1     4.89282791     0.00000000     0.00000000
      2     2.44592295     4.23882983     0.00000000
 
Unit cell area (angstrom^2)        20.73986
 
Total System Charge             0.00000
Bonding info available!
 
 Needs range separation F F
 Range separation string: 
 K-points configuration loaded from previous results: GO1_GOStep4.rkf



                                          *******************************
                                          *  S C F   P R O C E D U R E  *
                                          *******************************
  

 Nr. of basis functions                     422
 Nr. of core functions                       41
 Nr. of fit functions                         0
 Nr. of symmetry unique K-points             13
 Valence charge                          183.00
 Nr. of symmetry operators                    1

 CONVERGENCE REACHED



                                             *************************
                                             *  P R O P E R T I E S  *
                                             *************************
  



 ===================================
 B A N D   E N E R G Y   R A N G E S
 ===================================
  
 The energies below are in Hartree.
 =================================================
       band          min          max   occupation
 =================================================
         36     -1.00140     -0.99484      2.00000
         37     -0.99591     -0.98831      2.00000
         38     -0.99006     -0.98504      2.00000
         39     -0.98912     -0.98469      2.00000
         40     -0.98605     -0.97398      2.00000
         41     -0.97626     -0.97353      2.00000
         42     -0.97413     -0.97038      2.00000
         43     -0.97399     -0.96675      2.00000
         44     -0.96819     -0.95606      2.00000
         45     -0.95554     -0.94400      2.00000
         46     -0.95089     -0.93353      2.00000
         47     -0.93618     -0.92727      2.00000
         48     -0.93145     -0.92667      2.00000
         49     -0.93063     -0.92618      2.00000
         50     -0.92903     -0.92546      2.00000
         51     -0.92723     -0.92306      2.00000
         52     -0.92364     -0.91264      2.00000
         53     -0.62273     -0.59241      2.00000
         54     -0.60044     -0.56715      2.00000
         55     -0.57101     -0.55199      2.00000
         56     -0.55771     -0.53385      2.00000
         57     -0.53720     -0.52264      2.00000
         58     -0.52681     -0.51593      2.00000
         59     -0.51949     -0.49961      2.00000
         60     -0.50891     -0.49332      2.00000
         61     -0.49087     -0.48617      2.00000
         62     -0.48732     -0.48151      2.00000
         63     -0.48220     -0.47768      2.00000
         64     -0.47737     -0.47045      2.00000
         65     -0.46711     -0.45536      2.00000
         66     -0.42105     -0.40366      2.00000
         67     -0.40680     -0.40086      2.00000
         68     -0.40433     -0.39607      2.00000
         69     -0.40175     -0.38836      2.00000
         70     -0.39000     -0.38247      2.00000
         71     -0.38497     -0.37704      2.00000
         72     -0.37756     -0.37266      2.00000
         73     -0.37438     -0.36286      2.00000
         74     -0.36725     -0.35785      2.00000
         75     -0.36135     -0.35605      2.00000
         76     -0.35957     -0.35000      2.00000
         77     -0.35395     -0.34837      2.00000
         78     -0.34812     -0.34375      2.00000
         79     -0.34443     -0.33931      2.00000
         80     -0.34187     -0.33537      2.00000
         81     -0.33416     -0.33142      2.00000
         82     -0.33073     -0.32582      2.00000
         83     -0.32656     -0.32218      2.00000
         84     -0.32232     -0.31941      2.00000
         85     -0.31945     -0.31499      2.00000
         86     -0.31688     -0.30614      2.00000
         87     -0.30889     -0.30213      2.00000
         88     -0.30616     -0.29832      2.00000
         89     -0.29726     -0.29341      2.00000
         90     -0.24888     -0.23890      2.00000
         91     -0.18267     -0.15195      2.00000
         92     -0.15629     -0.11351      1.00000
         93     -0.11866     -0.10131      0.00000
         94     -0.10779     -0.09703      0.00000
         95     -0.06174     -0.00180      0.00000
         96     -0.03330      0.01006      0.00000
         97     -0.00845      0.02080      0.00000
         98      0.00682      0.03402      0.00000
         99      0.02739      0.04095      0.00000
        100      0.03344      0.04982      0.00000
        101      0.04590      0.06166      0.00000
        102      0.04904      0.06753      0.00000
        103      0.05532      0.07134      0.00000
        104      0.05993      0.07765      0.00000
        105      0.06728      0.08445      0.00000
        106      0.07741      0.08856      0.00000
[...]
             0.909910E+03             0.196973E+00             0.927483E+02            -0.702833E-01             0.550300E+02
             0.910911E+03             0.197147E+00             0.928088E+02            -0.705774E-01             0.550399E+02
             0.911912E+03             0.197321E+00             0.928693E+02            -0.708717E-01             0.550498E+02
             0.912913E+03             0.197496E+00             0.929297E+02            -0.711662E-01             0.550597E+02
             0.913914E+03             0.197671E+00             0.929900E+02            -0.714609E-01             0.550695E+02
             0.914915E+03             0.197845E+00             0.930503E+02            -0.717558E-01             0.550793E+02
             0.915916E+03             0.198020E+00             0.931106E+02            -0.720508E-01             0.550891E+02
             0.916917E+03             0.198194E+00             0.931707E+02            -0.723461E-01             0.550989E+02
             0.917918E+03             0.198369E+00             0.932309E+02            -0.726415E-01             0.551087E+02
             0.918919E+03             0.198544E+00             0.932909E+02            -0.729372E-01             0.551184E+02
             0.919920E+03             0.198719E+00             0.933509E+02            -0.732330E-01             0.551281E+02
             0.920921E+03             0.198893E+00             0.934109E+02            -0.735290E-01             0.551378E+02
             0.921922E+03             0.199068E+00             0.934708E+02            -0.738252E-01             0.551474E+02
             0.922923E+03             0.199243E+00             0.935307E+02            -0.741216E-01             0.551570E+02
             0.923924E+03             0.199418E+00             0.935905E+02            -0.744182E-01             0.551666E+02
             0.924925E+03             0.199593E+00             0.936502E+02            -0.747150E-01             0.551762E+02
             0.925926E+03             0.199768E+00             0.937099E+02            -0.750119E-01             0.551858E+02
             0.926927E+03             0.199943E+00             0.937695E+02            -0.753091E-01             0.551953E+02
             0.927928E+03             0.200118E+00             0.938291E+02            -0.756064E-01             0.552048E+02
             0.928929E+03             0.200293E+00             0.938886E+02            -0.759040E-01             0.552143E+02
             0.929930E+03             0.200468E+00             0.939481E+02            -0.762017E-01             0.552238E+02
             0.930931E+03             0.200643E+00             0.940075E+02            -0.764996E-01             0.552332E+02
             0.931932E+03             0.200818E+00             0.940669E+02            -0.767977E-01             0.552426E+02
             0.932933E+03             0.200993E+00             0.941262E+02            -0.770960E-01             0.552520E+02
             0.933934E+03             0.201168E+00             0.941854E+02            -0.773944E-01             0.552614E+02
             0.934935E+03             0.201343E+00             0.942446E+02            -0.776931E-01             0.552708E+02
             0.935936E+03             0.201519E+00             0.943038E+02            -0.779919E-01             0.552801E+02
             0.936937E+03             0.201694E+00             0.943629E+02            -0.782910E-01             0.552894E+02
             0.937938E+03             0.201869E+00             0.944219E+02            -0.785902E-01             0.552987E+02
             0.938939E+03             0.202044E+00             0.944809E+02            -0.788896E-01             0.553079E+02
             0.939940E+03             0.202220E+00             0.945399E+02            -0.791892E-01             0.553172E+02
             0.940941E+03             0.202395E+00             0.945987E+02            -0.794890E-01             0.553264E+02
             0.941942E+03             0.202570E+00             0.946576E+02            -0.797890E-01             0.553356E+02
             0.942943E+03             0.202746E+00             0.947164E+02            -0.800891E-01             0.553448E+02
             0.943944E+03             0.202921E+00             0.947751E+02            -0.803895E-01             0.553539E+02
             0.944945E+03             0.203097E+00             0.948338E+02            -0.806900E-01             0.553631E+02
             0.945946E+03             0.203272E+00             0.948924E+02            -0.809907E-01             0.553722E+02
             0.946947E+03             0.203448E+00             0.949509E+02            -0.812916E-01             0.553812E+02
             0.947948E+03             0.203623E+00             0.950095E+02            -0.815927E-01             0.553903E+02
             0.948949E+03             0.203799E+00             0.950679E+02            -0.818940E-01             0.553993E+02
             0.949950E+03             0.203975E+00             0.951263E+02            -0.821954E-01             0.554084E+02
             0.950951E+03             0.204150E+00             0.951847E+02            -0.824971E-01             0.554174E+02
             0.951952E+03             0.204326E+00             0.952430E+02            -0.827989E-01             0.554263E+02
             0.952953E+03             0.204502E+00             0.953013E+02            -0.831009E-01             0.554353E+02
             0.953954E+03             0.204677E+00             0.953595E+02            -0.834031E-01             0.554442E+02
             0.954955E+03             0.204853E+00             0.954176E+02            -0.837055E-01             0.554531E+02
             0.955956E+03             0.205029E+00             0.954757E+02            -0.840080E-01             0.554620E+02
             0.956957E+03             0.205205E+00             0.955338E+02            -0.843108E-01             0.554709E+02
             0.957958E+03             0.205381E+00             0.955918E+02            -0.846137E-01             0.554798E+02
             0.958959E+03             0.205557E+00             0.956497E+02            -0.849168E-01             0.554886E+02
             0.959960E+03             0.205733E+00             0.957076E+02            -0.852201E-01             0.554974E+02
             0.960961E+03             0.205908E+00             0.957655E+02            -0.855236E-01             0.555062E+02
             0.961962E+03             0.206084E+00             0.958232E+02            -0.858273E-01             0.555149E+02
             0.962963E+03             0.206260E+00             0.958810E+02            -0.861311E-01             0.555237E+02
             0.963964E+03             0.206436E+00             0.959387E+02            -0.864352E-01             0.555324E+02
             0.964965E+03             0.206613E+00             0.959963E+02            -0.867394E-01             0.555411E+02
             0.965966E+03             0.206789E+00             0.960539E+02            -0.870438E-01             0.555498E+02
             0.966967E+03             0.206965E+00             0.961115E+02            -0.873484E-01             0.555585E+02
             0.967968E+03             0.207141E+00             0.961689E+02            -0.876531E-01             0.555671E+02
             0.968969E+03             0.207317E+00             0.962264E+02            -0.879581E-01             0.555757E+02
             0.969970E+03             0.207493E+00             0.962838E+02            -0.882632E-01             0.555843E+02
             0.970971E+03             0.207669E+00             0.963411E+02            -0.885685E-01             0.555929E+02
             0.971972E+03             0.207846E+00             0.963984E+02            -0.888740E-01             0.556015E+02
             0.972973E+03             0.208022E+00             0.964556E+02            -0.891797E-01             0.556100E+02
             0.973974E+03             0.208198E+00             0.965128E+02            -0.894855E-01             0.556185E+02
             0.974975E+03             0.208375E+00             0.965700E+02            -0.897916E-01             0.556270E+02
             0.975976E+03             0.208551E+00             0.966270E+02            -0.900978E-01             0.556355E+02
             0.976977E+03             0.208727E+00             0.966841E+02            -0.904042E-01             0.556440E+02
             0.977978E+03             0.208904E+00             0.967411E+02            -0.907107E-01             0.556524E+02
             0.978979E+03             0.209080E+00             0.967980E+02            -0.910175E-01             0.556608E+02
             0.979980E+03             0.209257E+00             0.968549E+02            -0.913244E-01             0.556692E+02
             0.980981E+03             0.209433E+00             0.969117E+02            -0.916316E-01             0.556776E+02
             0.981982E+03             0.209610E+00             0.969685E+02            -0.919389E-01             0.556860E+02
             0.982983E+03             0.209786E+00             0.970253E+02            -0.922463E-01             0.556943E+02
             0.983984E+03             0.209963E+00             0.970819E+02            -0.925540E-01             0.557027E+02
             0.984985E+03             0.210139E+00             0.971386E+02            -0.928618E-01             0.557110E+02
             0.985986E+03             0.210316E+00             0.971952E+02            -0.931699E-01             0.557192E+02
             0.986987E+03             0.210492E+00             0.972517E+02            -0.934781E-01             0.557275E+02
             0.987988E+03             0.210669E+00             0.973082E+02            -0.937864E-01             0.557358E+02
             0.988989E+03             0.210846E+00             0.973647E+02            -0.940950E-01             0.557440E+02
             0.989990E+03             0.211023E+00             0.974211E+02            -0.944037E-01             0.557522E+02
             0.990991E+03             0.211199E+00             0.974774E+02            -0.947126E-01             0.557604E+02
             0.991992E+03             0.211376E+00             0.975337E+02            -0.950217E-01             0.557686E+02
             0.992993E+03             0.211553E+00             0.975900E+02            -0.953310E-01             0.557767E+02
             0.993994E+03             0.211730E+00             0.976462E+02            -0.956404E-01             0.557848E+02
             0.994995E+03             0.211907E+00             0.977023E+02            -0.959501E-01             0.557930E+02
             0.995996E+03             0.212083E+00             0.977584E+02            -0.962599E-01             0.558011E+02
             0.996997E+03             0.212260E+00             0.978145E+02            -0.965698E-01             0.558091E+02
             0.997998E+03             0.212437E+00             0.978705E+02            -0.968800E-01             0.558172E+02
             0.998999E+03             0.212614E+00             0.979264E+02            -0.971903E-01             0.558252E+02
             0.100000E+04             0.212791E+00             0.979824E+02            -0.975009E-01             0.558333E+02
=============================================================================================================================


    =====================
     CALCULATION RESULTS
    =====================

Energy (hartree)            -5.08936267

Gradients (hartree/bohr)
  Index   Atom            d/dx            d/dy            d/dz
      1      O   -0.0000853381    0.0001182728    0.0000520910
      2      O    0.0000129756   -0.0000300173   -0.0000036088
      3      O    0.0000801390   -0.0000027085    0.0000497578
      4      O    0.0000022529   -0.0001207501   -0.0000942141
      5      O   -0.0000343444    0.0000645555    0.0000464605
      6      O    0.0000707824   -0.0000812332    0.0000774768
      7     Si    0.0000217942    0.0000870925    0.0000335394
      8     Si   -0.0001560423    0.0001330633    0.0000006686
      9     Si   -0.0000166823   -0.0000754795   -0.0001278925
     10      O   -0.0002422255    0.0000077220   -0.0003727710
     11      O   -0.0000259158   -0.0000522663    0.0000456876
     12      O    0.0000858164    0.0000663805   -0.0000375509
     13      O   -0.0001056251    0.0000198970    0.0000150155
     14      O    0.0001154255   -0.0001841413   -0.0002222371
     15      O    0.0000273517   -0.0000550124    0.0001498962
     16     Si    0.0001622971   -0.0000674639   -0.0000678609
     17     Si   -0.0000139482   -0.0000007629   -0.0000001641
     18     Si   -0.0000674344   -0.0000856554   -0.0001751696
     19      H    0.0001737294    0.0002072940    0.0004595896
     20      H   -0.0000491684    0.0000414243    0.0000741533
     21     Bi    0.0000441604    0.0000097886    0.0000971329

 -----------------------
 Normal Mode Frequencies
 -----------------------

 Index   Frequency (cm-1)   Red. mass (u)  F const (Ha/Bohr^2)
     1            32.1993         43.7450             0.001716
     2            37.3637         41.2303             0.002178

 ------------
 Normal Modes
 ------------

 Number of removed rigid normal modes: 0
 
 Mode:     1      Frequency (cm-1):       32.1993
 Index  Atom      ---- Displacements (x/y/z) ----
     1     O      -0.196586   0.169499   0.033500
     2     O      -0.223417   0.146767   0.008245
     3     O      -0.207998   0.172376   0.041860
     4     O      -0.204360   0.137715   0.046391
     5     O      -0.231909   0.159132   0.076340
     6     O      -0.198881   0.141530   0.043631
     7    Si      -0.192597   0.141497   0.033352
     8    Si      -0.208151   0.150515   0.032116
     9    Si      -0.209734   0.158805   0.047336
    10     O      -0.042722   0.030457   0.024713
    11     O      -0.150305   0.141281   0.069838
    12     O      -0.108676   0.072382   0.039858
    13     O      -0.129940   0.146498   0.011525
    14     O      -0.034118   0.061565   0.036425
    15     O      -0.119837   0.083026   0.025599
    16    Si      -0.175516   0.167179   0.046059
    17    Si      -0.112660   0.112302   0.044243
    18    Si      -0.101494   0.035177   0.025284
    19     H      -0.047828   0.046037   0.066220
    20     H      -0.024504   0.069115   0.045403
    21    Bi       0.275742  -0.214948  -0.066162
 
 Mode:     2      Frequency (cm-1):       37.3637
 Index  Atom      ---- Displacements (x/y/z) ----
     1     O       0.098901   0.126521  -0.034589
     2     O       0.151212   0.266095  -0.068595
     3     O       0.165439   0.202895  -0.121411
     4     O       0.121577   0.290700  -0.113500
     5     O       0.139781   0.156011  -0.112022
     6     O       0.172967   0.256593  -0.040135
     7    Si       0.144919   0.267860  -0.079928
     8    Si       0.156336   0.259783  -0.082883
     9    Si       0.154772   0.179808  -0.083926
    10     O      -0.021759  -0.022924   0.009978
    11     O       0.051880   0.118012  -0.091706
    12     O       0.085097   0.067714  -0.095558
    13     O       0.062845   0.127011  -0.069642
    14     O      -0.002622  -0.002879  -0.030181
    15     O       0.093760   0.091813   0.000279
    16    Si       0.071274   0.127948  -0.074051
    17    Si       0.075814   0.118883  -0.065811
    18    Si       0.065493   0.026294  -0.037579
    19     H      -0.012063  -0.014629  -0.005314
    20     H      -0.035397  -0.015468  -0.056440
    21    Bi      -0.174932  -0.259525   0.115795

PES point character: Geometry corresponds to a local minimum on the PES.
NOTE: For periodic systems the PES point characterization only takes the nuclear
      degrees of freedom into account. The lattice degrees of freedom are not considered.

Phonon information present.

--------------
Atomic charges
--------------
  Index   Atom    Charge
      1      O   -0.2756
      2      O   -0.2839
      3      O   -0.2738
      4      O   -0.2914
      5      O   -0.2751
      6      O   -0.2775
      7     Si    0.3284
      8     Si    0.5261
      9     Si    0.5481
     10      O   -0.2494
     11      O   -0.2768
     12      O   -0.2787
     13      O   -0.2749
     14      O   -0.2257
     15      O   -0.2765
     16     Si    0.5496
     17     Si    0.5486
     18     Si    0.5367
     19      H    0.0991
     20      H    0.0784
     21     Bi    0.0441


Final PES point is a local minimum. Geometry optimization successful!




 =================
 Timing Statistics
 =================
  
 Total Used :                     CPU=   110926.44      System=     1020.90     Elapsed=   112113.83

 Calls  Section                     ( Mean, Percentage )
 ---------------------------------------------------------------------------------------------------
   100  ><      ................      0.00    0.00             0.00    0.00             0.00    0.00
   127  GETINP  ................      0.76    0.09             0.09    1.17             0.89    0.10
   392  DIRAC   ................      0.96    0.34             0.00    0.04             0.97    0.34
   392  SLTORB  ................      0.01    0.00             0.00    0.00             0.01    0.00
   392  FITRAD  ................      0.00    0.00             0.00    0.00             0.00    0.00
    98  RADIAL  ................      0.07    0.01             0.01    0.09             0.10    0.01
    98  POINTS  ................      3.13    0.28             0.03    0.29             3.17    0.28
    98  CELLS   ................      0.05    0.00             0.00    0.02             0.05    0.00
    98  ELSTAT  ................      0.92    0.08             0.00    0.00             0.92    0.08
    98  ATMFNC  ................      2.22    0.20             0.05    0.48             2.28    0.20
    98  NUMGRD  ................     41.81    3.69             0.34    3.30            42.19    3.69
     1  RHOPSD  ................      2.31    0.00             0.10    0.01             2.41    0.00
  1764  RHOFIT  ................     16.31   25.94             0.14   23.37            16.49   25.95
  1764  PMATPROPS ..............      0.00    0.00             0.00    0.00             0.00    0.00
  1764  RHOPOT  ................      0.28    0.44             0.01    1.80             0.29    0.45
  1764  SCFEXTRA1 ..............      0.00    0.00             0.00    0.02             0.00    0.00
  3528  EIGSYS  ................      8.36   26.58             0.08   26.41             8.44   26.57
  1764  FERMI   ................      0.02    0.03             0.00    0.19             0.02    0.03
  1666  PMATRX  ................      0.10    0.15             0.05    8.22             0.15    0.23
  1763  RHOPMD  ................     14.16   22.51             0.10   17.36            14.27   22.44
  1666  GUESSRHO ...............      0.47    0.70             0.04    6.01             0.50    0.75
    98  ENERGY  ................     38.89    3.44             0.21    1.98            39.12    3.42
    96  GRADIENTS ..............    179.28   15.52             0.98    9.22           180.46   15.45
     1  CHARGE  ................      0.12    0.00             0.01    0.00             0.16    0.00
     1  CM5CHARGES .............      0.07    0.00             0.00    0.00             0.12    0.00
     1  HIRSH   ................      0.00    0.00             0.00    0.00             0.00    0.00
     1  DOS     ................      0.34    0.00             0.04    0.00             0.46    0.00

AMS application finished. Exiting.
NORMAL TERMINATION
     Total cpu time:  110928.14
  Total system time:    1021.44
 Total elapsed time:  112124.53
NORMAL TERMINATION with warnings
