
     Program PWSCF v.6.7MaX starts on  7Jul2024 at 19:43:21 

     This program is part of the open-source Quantum ESPRESSO suite
     for quantum simulation of materials; please cite
         "P. Giannozzi et al., J. Phys.:Condens. Matter 21 395502 (2009);
         "P. Giannozzi et al., J. Phys.:Condens. Matter 29 465901 (2017);
          URL http://www.quantum-espresso.org", 
     in publications or presentations arising from this work. More details at
     http://www.quantum-espresso.org/quote

     Parallel version (MPI), running on     2 processors

     MPI processes distributed on     1 nodes
     R & G space division:  proc/nbgrp/npool/nimage =       2
     Waiting for input...
     Reading input from standard input
Warning: card EOF ignored

     Current dimensions of program PWSCF are:
     Max number of different atomic species (ntypx) = 10
     Max number of k-points (npk) =  40000
     Max angular momentum in pseudopotentials (lmaxx) =  3
     Message from routine read_pp_mesh:
     mesh size missing, using the one in header

     Subspace diagonalization in iterative solution of the eigenvalue problem:
     a serial algorithm will be used


     Parallelization info
     --------------------
     sticks:   dense  smooth     PW     G-vecs:    dense   smooth      PW
     Min          60      60     21                  434      434      90
     Max          61      61     22                  435      435      91
     Sum         121     121     43                  869      869     181



     bravais-lattice index     =            2
     lattice parameter (alat)  =       7.5000  a.u.
     unit-cell volume          =     105.4688 (a.u.)^3
     number of atoms/cell      =            1
     number of atomic types    =            1
     number of electrons       =         3.00
     number of Kohn-Sham states=            6
     kinetic-energy cutoff     =      15.0000  Ry
     charge density cutoff     =      60.0000  Ry
     scf convergence threshold =      1.0E-06
     mixing beta               =       0.7000
     number of iterations used =            8  plain     mixing
     Exchange-correlation= PBE
                           (   1   4   3   4   0   0   0)

     celldm(1)=   7.500000  celldm(2)=   0.000000  celldm(3)=   0.000000
     celldm(4)=   0.000000  celldm(5)=   0.000000  celldm(6)=   0.000000

     crystal axes: (cart. coord. in units of alat)
               a(1) = (  -0.500000   0.000000   0.500000 )  
               a(2) = (   0.000000   0.500000   0.500000 )  
               a(3) = (  -0.500000   0.500000   0.000000 )  

     reciprocal axes: (cart. coord. in units 2 pi/alat)
               b(1) = ( -1.000000 -1.000000  1.000000 )  
               b(2) = (  1.000000  1.000000  1.000000 )  
               b(3) = ( -1.000000  1.000000 -1.000000 )  


     PseudoPot. # 1 for Al read from file:
     ./Al.upf
     MD5 check sum: a92309766db89a6b54a5f8790cc4d69e
     Pseudo is Norm-conserving + core correction, Zval =  3.0
     Generated using ONCVPSP code by D. R. Hamann
     Using radial grid of 1876 points,  6 beta functions with: 
                l(1) =   0
                l(2) =   0
                l(3) =   1
                l(4) =   1
                l(5) =   2
                l(6) =   2

     atomic species   valence    mass     pseudopotential
        Al             3.00    26.98000     Al( 1.00)

     48 Sym. Ops., with inversion, found



   Cartesian axes

     site n.     atom                  positions (alat units)
         1           Al  tau(   1) = (   0.0000000   0.0000000   0.0000000  )

     number of k points=    60  Marzari-Vanderbilt smearing, width (Ry)=  0.0500
                       cart. coord. in units 2pi/alat
        k(    1) = (   0.0625000   0.0625000   0.0625000), wk =   0.0078125
        k(    2) = (   0.0625000   0.0625000   0.1875000), wk =   0.0234375
        k(    3) = (   0.0625000   0.0625000   0.3125000), wk =   0.0234375
        k(    4) = (   0.0625000   0.0625000   0.4375000), wk =   0.0234375
        k(    5) = (   0.0625000   0.0625000   0.5625000), wk =   0.0234375
        k(    6) = (   0.0625000   0.0625000   0.6875000), wk =   0.0234375
        k(    7) = (   0.0625000   0.0625000   0.8125000), wk =   0.0234375
        k(    8) = (   0.0625000   0.0625000   0.9375000), wk =   0.0234375
        k(    9) = (   0.0625000   0.1875000   0.1875000), wk =   0.0234375
        k(   10) = (   0.0625000   0.1875000   0.3125000), wk =   0.0468750
        k(   11) = (   0.0625000   0.1875000   0.4375000), wk =   0.0468750
        k(   12) = (   0.0625000   0.1875000   0.5625000), wk =   0.0468750
        k(   13) = (   0.0625000   0.1875000   0.6875000), wk =   0.0468750
        k(   14) = (   0.0625000   0.1875000   0.8125000), wk =   0.0468750
        k(   15) = (   0.0625000   0.1875000   0.9375000), wk =   0.0468750
        k(   16) = (   0.0625000   0.3125000   0.3125000), wk =   0.0234375
        k(   17) = (   0.0625000   0.3125000   0.4375000), wk =   0.0468750
        k(   18) = (   0.0625000   0.3125000   0.5625000), wk =   0.0468750
        k(   19) = (   0.0625000   0.3125000   0.6875000), wk =   0.0468750
        k(   20) = (   0.0625000   0.3125000   0.8125000), wk =   0.0468750
        k(   21) = (   0.0625000   0.3125000   0.9375000), wk =   0.0468750
        k(   22) = (   0.0625000   0.4375000   0.4375000), wk =   0.0234375
        k(   23) = (   0.0625000   0.4375000   0.5625000), wk =   0.0468750
        k(   24) = (   0.0625000   0.4375000   0.6875000), wk =   0.0468750
        k(   25) = (   0.0625000   0.4375000   0.8125000), wk =   0.0468750
        k(   26) = (   0.0625000   0.4375000   0.9375000), wk =   0.0468750
        k(   27) = (   0.0625000   0.5625000   0.5625000), wk =   0.0234375
        k(   28) = (   0.0625000   0.5625000   0.6875000), wk =   0.0468750
        k(   29) = (   0.0625000   0.5625000   0.8125000), wk =   0.0468750
        k(   30) = (   0.0625000   0.6875000   0.6875000), wk =   0.0234375
        k(   31) = (   0.0625000   0.6875000   0.8125000), wk =   0.0468750
        k(   32) = (   0.0625000   0.8125000   0.8125000), wk =   0.0234375
        k(   33) = (   0.1875000   0.1875000   0.1875000), wk =   0.0078125
        k(   34) = (   0.1875000   0.1875000   0.3125000), wk =   0.0234375
        k(   35) = (   0.1875000   0.1875000   0.4375000), wk =   0.0234375
        k(   36) = (   0.1875000   0.1875000   0.5625000), wk =   0.0234375
        k(   37) = (   0.1875000   0.1875000   0.6875000), wk =   0.0234375
        k(   38) = (   0.1875000   0.1875000   0.8125000), wk =   0.0234375
        k(   39) = (   0.1875000   0.3125000   0.3125000), wk =   0.0234375
        k(   40) = (   0.1875000   0.3125000   0.4375000), wk =   0.0468750
        k(   41) = (   0.1875000   0.3125000   0.5625000), wk =   0.0468750
        k(   42) = (   0.1875000   0.3125000   0.6875000), wk =   0.0468750
        k(   43) = (   0.1875000   0.3125000   0.8125000), wk =   0.0468750
        k(   44) = (   0.1875000   0.4375000   0.4375000), wk =   0.0234375
        k(   45) = (   0.1875000   0.4375000   0.5625000), wk =   0.0468750
        k(   46) = (   0.1875000   0.4375000   0.6875000), wk =   0.0468750
        k(   47) = (   0.1875000   0.4375000   0.8125000), wk =   0.0468750
        k(   48) = (   0.1875000   0.5625000   0.5625000), wk =   0.0234375
        k(   49) = (   0.1875000   0.5625000   0.6875000), wk =   0.0468750
        k(   50) = (   0.1875000   0.6875000   0.6875000), wk =   0.0234375
        k(   51) = (   0.3125000   0.3125000   0.3125000), wk =   0.0078125
        k(   52) = (   0.3125000   0.3125000   0.4375000), wk =   0.0234375
        k(   53) = (   0.3125000   0.3125000   0.5625000), wk =   0.0234375
        k(   54) = (   0.3125000   0.3125000   0.6875000), wk =   0.0234375
        k(   55) = (   0.3125000   0.4375000   0.4375000), wk =   0.0234375
        k(   56) = (   0.3125000   0.4375000   0.5625000), wk =   0.0468750
        k(   57) = (   0.3125000   0.4375000   0.6875000), wk =   0.0468750
        k(   58) = (   0.3125000   0.5625000   0.5625000), wk =   0.0234375
        k(   59) = (   0.4375000   0.4375000   0.4375000), wk =   0.0078125
        k(   60) = (   0.4375000   0.4375000   0.5625000), wk =   0.0234375

     Dense  grid:      869 G-vectors     FFT dimensions: (  15,  15,  15)

     Estimated max dynamical RAM per process >       1.24 MB

     Estimated total dynamical RAM >       2.47 MB

     Initial potential from superposition of free atoms

     starting charge    2.99755, renormalised to    3.00000
     Starting wfcs are    4 randomized atomic wfcs +    2 random wfcs

     total cpu time spent up to now is        0.1 secs

     Self-consistent Calculation

     iteration #  1     ecut=    15.00 Ry     beta= 0.70
     CG style diagonalization
     ethr =  1.00E-02,  avg # of iterations =  5.5

     Threshold (ethr) on eigenvalues was too large:
     Diagonalizing with lowered threshold

     CG style diagonalization
     ethr =  2.09E-04,  avg # of iterations =  3.7

     total cpu time spent up to now is        0.4 secs

     total energy              =      -4.62781981 Ry
     estimated scf accuracy    <       0.00607981 Ry

     iteration #  2     ecut=    15.00 Ry     beta= 0.70
     CG style diagonalization
     ethr =  2.03E-04,  avg # of iterations =  3.0

     total cpu time spent up to now is        0.5 secs

     total energy              =      -4.62779072 Ry
     estimated scf accuracy    <       0.00044608 Ry

     iteration #  3     ecut=    15.00 Ry     beta= 0.70
     CG style diagonalization
     c_bands:  1 eigenvalues not converged
     ethr =  1.49E-05,  avg # of iterations =  3.5

     total cpu time spent up to now is        0.7 secs

     total energy              =      -4.62781015 Ry
     estimated scf accuracy    <       0.00000116 Ry

     iteration #  4     ecut=    15.00 Ry     beta= 0.70
     CG style diagonalization
     ethr =  3.87E-08,  avg # of iterations =  4.0

     total cpu time spent up to now is        0.8 secs

     End of self-consistent calculation

          k = 0.0625 0.0625 0.0625 (   113 PWs)   bands (ev):

    -2.9061  19.8192  21.2914  21.2916  24.0127  24.0385

          k = 0.0625 0.0625 0.1875 (   111 PWs)   bands (ev):

    -2.6120  18.1092  19.7521  20.7669  23.3585  25.2032

          k = 0.0625 0.0625 0.3125 (   106 PWs)   bands (ev):

    -2.0257  16.5450  18.2895  19.3861  22.1677  22.3681

          k = 0.0625 0.0625 0.4375 (   103 PWs)   bands (ev):

    -1.1511  15.2121  17.0433  18.0524  18.8733  21.3274

          k = 0.0625 0.0625 0.5625 (   103 PWs)   bands (ev):

     0.0064  14.1172  15.6444  16.0430  17.0580  20.3949

          k = 0.0625 0.0625 0.6875 (   105 PWs)   bands (ev):

     1.4379  12.6486  13.3559  15.2920  16.2311  19.6369

          k = 0.0625 0.0625 0.8125 (   105 PWs)   bands (ev):

     3.1256   9.9799  12.7847  14.7907  15.6828  19.1142

          k = 0.0625 0.0625 0.9375 (   103 PWs)   bands (ev):

     4.9757   7.6289  12.5129  14.5420  15.4121  18.8469

          k = 0.0625 0.1875 0.1875 (   108 PWs)   bands (ev):

    -2.3185  16.3487  18.6665  21.8474  24.3458  24.5023

          k = 0.0625 0.1875 0.3125 (   104 PWs)   bands (ev):

    -1.7337  14.7563  17.2274  21.2400  22.3637  24.0278

          k = 0.0625 0.1875 0.4375 (   103 PWs)   bands (ev):

    -0.8609  13.4099  15.9503  19.1182  20.0962  23.0572

          k = 0.0625 0.1875 0.5625 (   102 PWs)   bands (ev):

     0.2940  12.3258  14.8599  16.0426  19.0639  22.1734

          k = 0.0625 0.1875 0.6875 (   102 PWs)   bands (ev):

     1.7224  11.4948  12.9295  14.2592  18.2725  21.4611

          k = 0.0625 0.1875 0.8125 (   104 PWs)   bands (ev):

     3.4058  10.1984  11.0330  13.6790  17.7362  20.9670

          k = 0.0625 0.1875 0.9375 (   104 PWs)   bands (ev):

     5.2486   7.8966  10.7231  13.4051  17.4677  20.7149

          k = 0.0625 0.3125 0.3125 (   104 PWs)   bands (ev):

    -1.1513  13.1509  15.7828  22.1279  22.9660  24.0963

          k = 0.0625 0.3125 0.4375 (   101 PWs)   bands (ev):

    -0.2816  11.8032  14.4925  19.5819  22.5700  24.1096

          k = 0.0625 0.3125 0.5625 (   103 PWs)   bands (ev):

     0.8684  10.7162  13.4167  16.5365  21.6664  24.3123

          k = 0.0625 0.3125 0.6875 (   104 PWs)   bands (ev):

     2.2901   9.8913  12.5019  13.7313  20.9097  23.7822

          k = 0.0625 0.3125 0.8125 (   103 PWs)   bands (ev):

     3.9650   9.3272  10.7561  12.2711  20.3948  23.3419

          k = 0.0625 0.3125 0.9375 (   104 PWs)   bands (ev):

     5.7932   8.3750   9.1693  11.9278  20.1316  23.1106

          k = 0.0625 0.4375 0.4375 (    98 PWs)   bands (ev):

     0.5827  10.4499  13.1913  19.6177  21.6469  24.6087

          k = 0.0625 0.4375 0.5625 (   101 PWs)   bands (ev):

     1.7252   9.3569  12.1099  17.2480  21.9037  24.4716

          k = 0.0625 0.4375 0.6875 (   104 PWs)   bands (ev):

     3.1374   8.5373  11.2678  14.4333  23.0487  23.8373

          k = 0.0625 0.4375 0.8125 (   105 PWs)   bands (ev):

     4.7976   7.9891  10.5915  11.9011  23.2949  24.5152

          k = 0.0625 0.4375 0.9375 (   105 PWs)   bands (ev):

     6.6001   7.6982   9.2128  10.7169  23.0541  25.5121

          k = 0.0625 0.5625 0.5625 (   103 PWs)   bands (ev):

     2.8576   8.2674  11.0260  17.5741  19.5023  26.7474

          k = 0.0625 0.5625 0.6875 (   103 PWs)   bands (ev):

     4.2559   7.4513  10.1968  15.4137  20.0450  26.8355

          k = 0.0625 0.5625 0.8125 (   105 PWs)   bands (ev):

     5.8843   6.9182   9.6215  12.8473  21.4791  26.3813

          k = 0.0625 0.6875 0.6875 (   101 PWs)   bands (ev):

     5.6224   6.6488   9.3782  16.0573  17.8052  27.4308

          k = 0.0625 0.6875 0.8125 (   104 PWs)   bands (ev):

     6.0555   7.2675   8.8466  14.1037  18.6268  25.0968

          k = 0.0625 0.8125 0.8125 (   102 PWs)   bands (ev):

     5.5206   8.0968   9.0717  15.0479  16.5654  22.6928

          k = 0.1875 0.1875 0.1875 (   107 PWs)   bands (ev):

    -2.0261  14.5971  20.2780  20.2780  23.6748  25.2224

          k = 0.1875 0.1875 0.3125 (   103 PWs)   bands (ev):

    -1.4420  13.0108  18.8053  20.2207  22.5488  24.8086

          k = 0.1875 0.1875 0.4375 (   105 PWs)   bands (ev):

    -0.5709  11.6633  17.5480  18.9855  19.5695  24.9460

          k = 0.1875 0.1875 0.5625 (   104 PWs)   bands (ev):

     0.5821  10.5763  16.1742  16.5483  18.2457  24.0985

          k = 0.1875 0.1875 0.6875 (   105 PWs)   bands (ev):

     2.0066   9.7458  13.2625  15.7954  17.4084  23.4094

          k = 0.1875 0.1875 0.8125 (   104 PWs)   bands (ev):

     3.6856   9.1637  10.6148  15.2970  16.8466  22.9334

          k = 0.1875 0.3125 0.3125 (   102 PWs)   bands (ev):

    -0.8607  11.4132  17.8945  21.3368  22.3903  23.8988

          k = 0.1875 0.3125 0.4375 (   103 PWs)   bands (ev):

     0.0071  10.0578  16.6523  19.8045  21.0384  24.2044

          k = 0.1875 0.3125 0.5625 (   106 PWs)   bands (ev):

     1.1549   8.9607  15.5793  16.8059  20.1630  25.1215

          k = 0.1875 0.3125 0.6875 (   103 PWs)   bands (ev):

     2.5736   8.1361  13.7455  14.9509  19.4184  25.6559

          k = 0.1875 0.3125 0.8125 (   104 PWs)   bands (ev):

     4.2423   7.5790  11.1206  14.3769  18.8915  25.3092

          k = 0.1875 0.4375 0.4375 (   101 PWs)   bands (ev):

     0.8696   8.6938  15.4118  19.8694  21.8051  22.9064

          k = 0.1875 0.4375 0.5625 (   103 PWs)   bands (ev):

     2.0100   7.5954  14.3533  17.5059  22.0905  22.8515

          k = 0.1875 0.4375 0.6875 (   101 PWs)   bands (ev):

     3.4181   6.7699  13.4829  14.7462  22.1913  23.3453

          k = 0.1875 0.4375 0.8125 (   103 PWs)   bands (ev):

     5.0587   6.2318  11.8508  13.1866  21.7261  24.8003

          k = 0.1875 0.5625 0.5625 (   103 PWs)   bands (ev):

     3.1393   6.4950  13.3019  17.8246  19.7504  24.9696

          k = 0.1875 0.5625 0.6875 (   103 PWs)   bands (ev):

     4.5192   5.6824  12.4788  15.6806  20.2960  25.1539

          k = 0.1875 0.6875 0.6875 (   101 PWs)   bands (ev):

     4.7822   5.9711  11.6766  16.3083  18.0797  27.5663

          k = 0.3125 0.3125 0.3125 (    98 PWs)   bands (ev):

    -0.2807   9.8073  19.8444  19.8443  22.9087  22.9088

          k = 0.3125 0.3125 0.4375 (   103 PWs)   bands (ev):

     0.5831   8.4381  18.5690  19.9403  20.3918  23.6651

          k = 0.3125 0.3125 0.5625 (   104 PWs)   bands (ev):

     1.7256   7.3380  17.2144  17.5636  19.3584  24.6987

          k = 0.3125 0.3125 0.6875 (   105 PWs)   bands (ev):

     3.1369   6.5095  14.3380  16.8084  18.6092  25.9757

          k = 0.3125 0.4375 0.4375 (   103 PWs)   bands (ev):

     1.4421   7.0659  17.9012  20.3688  21.3947  21.9556

          k = 0.3125 0.4375 0.5625 (   103 PWs)   bands (ev):

     2.5765   5.9608  16.8857  18.0174  21.3597  22.4359

          k = 0.3125 0.4375 0.6875 (   103 PWs)   bands (ev):

     3.9644   5.1433  15.0861  16.2367  20.7678  23.6552

          k = 0.3125 0.5625 0.5625 (   105 PWs)   bands (ev):

     3.6881   4.8631  15.9125  18.3358  20.1906  23.4435

          k = 0.4375 0.4375 0.4375 (   105 PWs)   bands (ev):

     2.2938   5.6861  20.0976  20.0976  21.1528  21.1528

          k = 0.4375 0.4375 0.5625 (   106 PWs)   bands (ev):

     3.4095   4.5847  18.6718  19.0926  20.6539  22.1623

     the Fermi energy is     8.5180 ev

!    total energy              =      -4.62781138 Ry
     estimated scf accuracy    <       0.00000008 Ry
     smearing contrib. (-TS)   =       0.00040544 Ry
     internal energy E=F+TS    =      -4.62821681 Ry

     The total energy is F=E-TS. E is the sum of the following terms:
     one-electron contribution =       3.05972574 Ry
     hartree contribution      =       0.00829221 Ry
     xc contribution           =      -2.19440024 Ry
     ewald contribution        =      -5.50183453 Ry

     convergence has been achieved in   4 iterations

     Forces acting on atoms (cartesian axes, Ry/au):

     atom    1 type  1   force =     0.00000000    0.00000000    0.00000000

     Total force =     0.000000     Total SCF correction =     0.000000


     Computing stress (Cartesian axis) and pressure

          total   stress  (Ry/bohr**3)                   (kbar)     P=       47.15
   0.00032054   0.00000000   0.00000000           47.15        0.00        0.00
   0.00000000   0.00032054  -0.00000000            0.00       47.15       -0.00
   0.00000000  -0.00000000   0.00032054            0.00       -0.00       47.15


     Writing output data file ./al.save/

     init_run     :      0.02s CPU      0.03s WALL (       1 calls)
     electrons    :      0.32s CPU      0.70s WALL (       1 calls)
     forces       :      0.00s CPU      0.00s WALL (       1 calls)
     stress       :      0.02s CPU      0.01s WALL (       1 calls)

     Called by init_run:
     wfcinit      :      0.01s CPU      0.01s WALL (       1 calls)
     potinit      :      0.00s CPU      0.00s WALL (       1 calls)
     hinit0       :      0.01s CPU      0.01s WALL (       1 calls)

     Called by electrons:
     c_bands      :      0.29s CPU      0.66s WALL (       5 calls)
     sum_band     :      0.02s CPU      0.02s WALL (       5 calls)
     v_of_rho     :      0.00s CPU      0.00s WALL (       5 calls)
     mix_rho      :      0.00s CPU      0.00s WALL (       5 calls)

     Called by c_bands:
     init_us_2    :      0.01s CPU      0.01s WALL (     780 calls)
     ccgdiagg     :      0.23s CPU      0.25s WALL (     300 calls)
     wfcrot       :      0.05s CPU      0.05s WALL (     240 calls)

     Called by *cgdiagg:
     h_psi        :      0.20s CPU      0.23s WALL (    6291 calls)

     Called by h_psi:
     h_psi:calbec :      0.02s CPU      0.02s WALL (    6291 calls)
     vloc_psi     :      0.16s CPU      0.18s WALL (    6291 calls)
     add_vuspsi   :      0.01s CPU      0.01s WALL (    6291 calls)
     hs_1psi      :      0.17s CPU      0.19s WALL (    6051 calls)
     s_1psi       :      0.02s CPU      0.02s WALL (    6051 calls)

     General routines
     calbec       :      0.03s CPU      0.03s WALL (   12642 calls)
     fft          :      0.00s CPU      0.00s WALL (      75 calls)
     ffts         :      0.00s CPU      0.00s WALL (       5 calls)
     fftw         :      0.15s CPU      0.16s WALL (   16782 calls)

     Parallel routines
     fft_scatt_xy :      0.02s CPU      0.03s WALL (   16862 calls)
     fft_scatt_yz :      0.05s CPU      0.06s WALL (   16862 calls)

     PWSCF        :      0.43s CPU      1.22s WALL


   This run was terminated on:  19:43:22   7Jul2024            

=------------------------------------------------------------------------------=
   JOB DONE.
=------------------------------------------------------------------------------=
