------------------------------------------------------------
          Invoking FHI-aims ...

          When using FHI-aims, please cite the following reference:

            Volker Blum, Ralf Gehrke, Felix Hanke, Paula Havu,
            Ville Havu, Xinguo Ren, Karsten Reuter, and Matthias Scheffler,
            'Ab Initio Molecular Simulations with Numeric Atom-Centered Orbitals',
            Computer Physics Communications 180, 2175-2196 (2009)

          In addition, many other developments in FHI-aims are likely important for
          your particular application. If so, please cite them. A partial list of references
          is written at the end of this file. Thank you for giving credit to the authors
          of these developments.

          For general information about FHI-aims please find us at

            https://fhi-aims.org

          Online tutorials can be found at

            https://fhi-aims-club.gitlab.io/tutorials/tutorials-overview/

          For any questions about FHI-aims, please visit our slack channel at

            https://fhi-aims.slack.com

          and our main development and support site at

            https://aims-git.rz-berlin.mpg.de .

          The latter site, in particular, has a wiki to collect information, as well
          as an issue tracker to log discussions, suggest improvements, and report issues
          or bugs. https://aims-git.rz-berlin.mpg.de is also the main development site
          of the project and all new and updated code versions can be obtained there.
          Please send an email to aims-coordinators@fhi-berlin.mpg.de and we will add
          you to these sites. They are for you and everyone is welcome there.

------------------------------------------------------------



  Date     :  20231208, Time     :  112432.560
  Time zero on CPU 1             :   0.305871000000000E+00  s.
  Internal wall clock time zero  :           471266672.560  s.

  FHI-aims created a unique identifier for this run for later identification
  aims_uuid : DCC5430C-2AF2-4DE1-A85C-335B727EAF40

  Build configuration of the current instance of FHI-aims
  -------------------------------------------------------
  FHI-aims version      : 231208
  Commit number         : 1e5b85bd7
  CMake host system     : Linux-5.14.21-150400.24.92-default
  CMake version         : 3.20.4
  Fortran compiler      : /mpcdf/soft/SLE_15/packages/x86_64/intel_oneapi/2022.2/mpi/2021.6.0/bin/mpiifort (Intel) version 2021.6.0.20220226
  Fortran compiler flags: -march=icelake-server -O3 -align array64byte -ip
  C compiler            : /mpcdf/soft/SLE_15/packages/x86_64/intel_oneapi/2022.2/mpi/2021.6.0/bin/mpiicc (Intel) version 2021.6.0.20220226
  C compiler flags      : -O3 -march=icelake-server -ip
  C++ compiler          : /mpcdf/soft/SLE_15/packages/x86_64/intel_oneapi/2022.2/mpi/2021.6.0/bin/mpiicpc (Intel) version 2021.6.0.20220226
  C++ compiler flags    :
  HIP compiler          :
  HIP compiler flags    :
  HIP GPU arch          :
  ELPA2 kernel          : AVX512
  Using MPI
  Using ScaLAPACK
  Using LibXC
  Using i-PI
  Using RLSY
  Linking against: /mpcdf/soft/SLE_15/packages/x86_64/intel_oneapi/2022.2/mkl/latest/lib/intel64/libmkl_intel_lp64.so
                   /mpcdf/soft/SLE_15/packages/x86_64/intel_oneapi/2022.2/mkl/latest/lib/intel64/libmkl_sequential.so
                   /mpcdf/soft/SLE_15/packages/x86_64/intel_oneapi/2022.2/mkl/latest/lib/intel64/libmkl_core.so
                   /mpcdf/soft/SLE_15/packages/x86_64/intel_oneapi/2022.2/mkl/latest/lib/intel64/libmkl_blacs_intelmpi_lp64.so
                   /mpcdf/soft/SLE_15/packages/x86_64/intel_oneapi/2022.2/mkl/latest/lib/intel64/libmkl_scalapack_lp64.so

  Using        4 parallel tasks.
  Task        0 on host raven03 reporting.
  Task        1 on host raven03 reporting.
  Task        2 on host raven03 reporting.
  Task        3 on host raven03 reporting.

  Memory overcommitment is allowed on your operating system.

  Obtaining array dimensions for all initial allocations:
  
  -----------------------------------------------------------------------
  Parsing control.in (first pass over file, find array dimensions only).
  The contents of control.in will be repeated verbatim below
  unless switched off by setting 'verbatim_writeout .false.' .
  in the first line of control.in .
  -----------------------------------------------------------------------
  
  #########################################################################################
  #
  #  Volker Blum, FHI 2017 : Input file for FHI-aims
  #
  #  Input file control.in : All computational details for fcc Al
  #
  #########################################################################################
    #
    #  Physical model settings
    #
      xc               pw-lda
      charge           0.
      spin             none
      relativistic     atomic_zora scalar
    #
    #  SCF convergence settings
    #
      occupation_type  gaussian 0.1
    #
    #  For periodic boundary conditions
    #
      k_grid 12 12 12
    #
    #  For relaxation:
    #
      relax_geometry bfgs 5.e-3
      relax_unit_cell full
    #
    #  Output options (examples):
    #
    #  Density of states. The DOS is here evaluated
    #  with an effective 144x144x144 k-point grid.
    #  (12 for each k-space direction in s.c.f., and then denser
    #  by another factor of 12 during post-processing). Check whether the
    #  the DOS is smooth, however - fcc Al may need significantly
    #  more k-points (van Hove singularities in DOS).
    #
    #  The dense dos_kgrid_factors below will take a noticeable amount
    #  of time, but they do lead to a smooth DOS.
    #
  #    output dos -20 30 1000 0.1
  #    dos_kgrid_factors  12 12 12
    #
    #  angular momentum channel resolved density of states
    #
  #    output atom_proj_dos -20 30 1000 0.1
    #
    #  High-symmetry k-points for fcc band structure output, if requested.
    #
  #    output band  0.25  0.50  0.75  0.5   0.5   0.5   40	W      L
  #    output band  0.5   0.5   0.5   0.25  0.25  0.25  40	L      Lambda
  #    output band  0.25  0.25  0.25  0     0     0     40	Lambda Gamma
  #    output band  0     0       0   0.00  0.25  0.25  40	Gamma  Delta
  #    output band  0.00  0.25  0.25  0     0.5   0.5   40	Delta  X
  #    output band  0     0.5   0.5   0.125 0.5   0.625 40	X      Z
  #    output band  0.125 0.5   0.625 0.25  0.50  0.75  40	Z      W
  #    output band  0.25  0.50  0.75  0.375 0.375 0.75  40	W      K
  
  ################################################################################
  #
  #  FHI-aims code project
  #  VB, Fritz-Haber Institut, 2009
  #
  #  Suggested "light" defaults for Al atom (to be pasted into control.in file)
  #  Be sure to double-check any results obtained with these settings for post-processing,
  #  e.g., with the "tight" defaults and larger basis sets.
  #
  ################################################################################
    species        Al
  #     global species definitions
      nucleus             13
      mass                26.9815386
  #
      l_hartree           4
  #
      cut_pot             3.5          1.5  1.0
      basis_dep_cutoff    1e-4
  #
      radial_base         41 5.0
      radial_multiplier   1
      angular_grids       specified
        division   0.6594  110
        division   0.8170  194
        division   0.9059  302
  #      division   1.0363  434
  #      division   1.1443  590
  #      division   1.2621  770
  #      division   2.8177  974
  #      outer_grid   974
        outer_grid   302
  ################################################################################
  #
  #  Definition of "minimal" basis
  #
  ################################################################################
  #     valence basis states
      valence      3  s   2.
      valence      3  p   1.
  #     ion occupancy
      ion_occ      3  s   1.
      ion_occ      2  p   6.
  ################################################################################
  #
  #  Suggested additional basis functions. For production calculations,
  #  uncomment them one after another (the most important basis functions are
  #  listed first).
  #
  #  Constructed for dimers: 2.0 A, 2.5 A, 3.0 A, 3.75 A, 4.5 A
  #
  ################################################################################
  #  "First tier" - improvements: -199.47 meV to -10.63 meV
       ionic 3 d auto
       ionic 3 p auto
  #     hydro 4 f 4.7
       ionic 3 s auto
  #  "Second tier" - improvements: -5.35 meV to -1.57 meV
  #     hydro 5 g 7
  #     hydro 3 d 6
  #     hydro 2 s 11.6
  #     hydro 2 p 0.9
  #  "Third tier" - improvements: -0.63 meV to -0.20 meV
  #     hydro 5 f 7.6
  #     hydro 4 p 7.2
  #     hydro 4 s 3.7
  #     hydro 4 d 7.6
  #  "Fourth tier" - improvements: -0.17 meV to -0.08 meV
  #     hydro 4 d 13.6
  #     hydro 5 g 11.2
  #     hydro 4 d 0.9
  #     hydro 1 s 0.4
  #     hydro 4 p 0.1
  #     hydro 5 f 9.8
  #  Further basis functions that fell out of the optimization - noise level...
  #     hydro 4 p 5
  
  
  -----------------------------------------------------------------------
  Completed first pass over input file control.in .
  -----------------------------------------------------------------------
  
  
  -----------------------------------------------------------------------
  Parsing geometry.in (first pass over file, find array dimensions only).
  The contents of geometry.in will be repeated verbatim below
  unless switched off by setting 'verbatim_writeout .false.' .
  in the first line of geometry.in .
  -----------------------------------------------------------------------
  
  #
  #  fcc Al
  #  Equilibrium lattice parameter: 3.98 A (LDA)
  #
    atom 0. 0. 0. Al
  #
  # unit cell
  #
  lattice_vector  1.99 1.99 0.0
  lattice_vector  0.0  1.99 1.99
  lattice_vector  1.99 0.0  1.99
  
  -----------------------------------------------------------------------
  Completed first pass over input file geometry.in .
  -----------------------------------------------------------------------
  

  Basic array size parameters:
  | Number of species                 :        1
  | Number of atoms                   :        1
  | Number of lattice vectors         :        3
  | Max. basis fn. angular momentum   :        2
  | Max. atomic/ionic basis occupied n:        3
  | Max. number of basis fn. types    :        2
  | Max. radial fns per species/type  :        5
  | Max. logarithmic grid size        :     1340
  | Max. radial integration grid size :       41
  | Max. angular integration grid size:      302
  | Max. angular grid division number :        8
  | Radial grid for Hartree potential :     1340
  | Number of spin channels           :        1

------------------------------------------------------------
          Reading file control.in.
------------------------------------------------------------
  XC: Using Perdew-Wang parametrisation of Ceperley-Alder LDA.
  Charge =   0.000000E+00: Neutral system requested explicitly.
  Spin treatment: No spin polarisation.
  Scalar relativistic treatment of kinetic energy: on-site free-atom approximation to ZORA.
  Occupation type: Gaussian broadening, width =   0.100000E+00 eV.
  Found k-point grid:        12        12        12
  Geometry relaxation: Modified BFGS - TRM (trust radius method) for lattice optimization.
  Convergence accuracy for geometry relaxation: Maximum force <   0.500000E-02 eV/A.
 
  Reading configuration options for species Al                  .
  | Found nuclear charge :  13.0000
  | Found atomic mass :    26.9815386000000      amu
  | Found l_max for Hartree potential  :   4
  | Found cutoff potl. onset [A], width [A], scale factor :    3.50000    1.50000    1.00000
  | Threshold for basis-dependent cutoff potential is   0.100000E-03
  | Found data for basic radial integration grid :    41 points, outermost radius =    5.000 A
  | Found multiplier for basic radial grid :   1
  | Found angular grid specification: user-specified.
  | Specified grid contains     4 separate shells.
  | Check grid settings after all constraints further below.
  | Found free-atom valence shell :  3 s   2.000
  | Found free-atom valence shell :  3 p   1.000
  | Found free-ion valence shell :  3 s   1.000
  | Found free-ion valence shell :  2 p   6.000
  | Found ionic basis function :  3 d , default cutoff radius.
  | Found ionic basis function :  3 p , default cutoff radius.
  | Found ionic basis function :  3 s , default cutoff radius.
  Species Al                  : Missing cutoff potential type.
  Defaulting to exp(1/x)/(1-x)^2 type cutoff potential.
  Species Al: No 'logarithmic' tag. Using default grid for free atom:
  | Default logarithmic grid data [bohr] : 0.1000E-03 0.1000E+03 0.1012E+01
  | Will include ionic basis functions of  2.0-fold positive Al                   ion.
  Species Al: On-site basis accuracy parameter (for Gram-Schmidt orthonormalisation) not specified.
  Using default value basis_acc =  0.1000000E-03.
  Species Al                  : Using default innermost maximum threshold i_radial=  2 for radial functions.
  Species Al                  : Default cutoff onset for free atom density etc. : 0.35000000E+01 AA.
  Species Al                  : Basic radial grid will be enhanced according to radial_multiplier =   1, to contain    41 grid points.
 
  Finished reading input file 'control.in'.
 
------------------------------------------------------------


------------------------------------------------------------
          Reading geometry description geometry.in.
------------------------------------------------------------
  | The smallest distance between any two atoms is         2.81428499 AA.
  | The first atom of this pair is atom number                      1 .
  | The second atom of this pair is atom number                     1 .
  | Wigner-Seitz cell of the first atom image           0     0     0 .
  | (The Wigner-Seitz cell of the second atom is 0 0 0  by definition.)

  Symmetry information by spglib:
  | Precision set to  0.1E-04
  | Number of Operations  : 48
  | Space group           : 225
  | International         : Fm-3m
  | Schoenflies           : Oh^5
  Input structure read successfully.
  The structure contains        1 atoms,  and a total of         13.000 electrons.

  Input geometry:
  | Unit cell:
  |        1.99000000        1.99000000        0.00000000
  |        0.00000000        1.99000000        1.99000000
  |        1.99000000        0.00000000        1.99000000
  | Atomic structure:
  |       Atom                x [A]            y [A]            z [A]
  |    1: Species Al            0.00000000        0.00000000        0.00000000

  Lattice parameters for 3D lattice (in Angstroms) :     2.814285    2.814285    2.814285
  Angle(s) between unit vectors (in degrees)       :    60.000000   60.000000   60.000000


  Quantities derived from the lattice vectors (in Angstrom^-1):
  | Reciprocal lattice vector 1:  1.578690  1.578690 -1.578690
  | Reciprocal lattice vector 2: -1.578690  1.578690  1.578690
  | Reciprocal lattice vector 3:  1.578690 -1.578690  1.578690
  | Unit cell volume                               :   0.157612E+02  Angstrom^3

  Fractional coordinates:
                         L1                L2                L3
       atom_frac         0.00000000        0.00000000        0.00000000  Al

  Slab Identifier: This seems to be a bulk system.
 
  Finished reading input file 'geometry.in'.
 

 
  Consistency checks for stacksize environment parameter are next.
 
  | Maximum stacksize for task 0: unlimited
  | Maximum stacksize for task 1: unlimited
  | Maximum stacksize for task 2: unlimited
  | Maximum stacksize for task 3: unlimited
  | Current stacksize for task 0: unlimited
  | Current stacksize for task 1: unlimited
  | Current stacksize for task 2: unlimited
  | Current stacksize for task 3: unlimited
 
  Consistency checks for the contents of control.in are next.
 
  MPI_IN_PLACE appears to work with this MPI implementation.
  | Keeping use_mpi_in_place .true. (see manual).
  Target number of points in a grid batch is not set. Defaulting to  100
  Method for grid partitioning is not set. Defaulting to parallel hash+maxmin partitioning.
  Batch size limit is not set. Defaulting to    200
  By default, will store active basis functions for each batch.
  If in need of memory, prune_basis_once .false. can be used to disable this option.
  communication_type for Hartree potential was not specified.
  Defaulting to calc_hartree .
  Defaulting to Pulay charge density mixer.
  Pulay mixer: Number of relevant iterations not set.
  Defaulting to    8 iterations.
  Pulay mixer: Number of initial linear mixing iterations not set.
  Defaulting to    0 iterations.
  Work space size for distributed Hartree potential not set.
  Defaulting to   0.200000E+03 MB.
  Mixing parameter for charge density mixing has not been set.
  Using default: charge_mix_param =     0.0500.
  The mixing parameter will be adjusted in iteration number     2 of the first full s.c.f. cycle only.
  Algorithm-dependent basis array size parameters:
  | n_max_pulay                         :        8
  Maximum number of self-consistency iterations not provided.
  Presetting  1000 iterations.
  Presetting      1001 iterations before the initial mixing cycle
  is restarted anyway using the sc_init_iter criterion / keyword.
  Presetting a factor      1.000 between actual scf density residual
  and density convergence criterion sc_accuracy_rho below which sc_init_iter
  takes no effect.
 * No s.c.f. convergence criteria (sc_accuracy_*) were provided in control.in.
 * The run will proceed with a reasonable default guess, but please check whether.
 * the s.c.f. cycles seem to take too much or too little time.
  No maximum number of relaxation steps, defaulting to     1000
  Default initial Hessian is Lindh matrix (thres = 15.00) plus  0.200000E+01 eV/A^2 times unity.
  No maximum energy tolerance for TRM/BFGS moves, defaulting to   0.150000E-02
  Maximum energy tolerance by which TRM/BFGS trajectory may increase over multiple steps:   0.300000E-02
  No harmonic length scale. Defaulting to   0.250000E-01 A.
  No trust radius initializer. Defaulting to   0.200000E+00 A.
  Unit cell relaxation: Unit cell will be relaxed fully.
  Unit cell relaxation: Analytical stress will be used.
  Analytical stress will be computed.
  Analytical stress calculation: Only the upper triangle is calculated.
                                 Final output is symmetrized.
  Analytical stress calculation: scf convergence accuracy of stress not set.
                                 Analytical stress self-consistency will not be checked explicitly.
                                 Be sure to set other criteria like sc_accuracy_rho tight enough.
  Forces evaluation will include force correction term due to incomplete self-consistency (default).
 * Notice: The s.c.f. convergence criterion sc_accuracy_rho was not provided.
 * We used to stop in this case, and ask the user to provide reasonable
 * scf convergence criteria. However, this led some users to employ criteria
 * that led to extremely long run times, e.g., for simple relaxation.
 * We now preset a default value for sc_accuracy_rho if it is not set.
 * You may still wish to check if this setting is too tight or too loose for your needs.
 * Based on n_atoms and forces and force-correction status, FHI-aims chose sc_accuracy_rho =  0.100000E-05 .
  Force calculation: scf convergence accuracy of forces not set.
  Defaulting to 'sc_accuracy_forces not_checked'.
  Handling of forces: Unphysical translation and rotation will be removed from forces.
  No accuracy limit for integral partition fn. given. Defaulting to  0.1000E-14.
  No threshold value for u(r) in integrations given. Defaulting to  0.1000E-05.
  No accuracy for occupation numbers given. Defaulting to  0.1000E-12.
  No threshold value for occupation numbers given. Defaulting to  0.0000E+00.
  No accuracy for fermi level given. Defaulting to  0.1000E-19.
  Maximum # of iterations to find E_F not set. Defaulting to  200.
  Preferred method for the eigenvalue solver ('KS_method') not specified in 'control.in'.
  Defaulting to serial version, LAPACK (via ELSI), since more k-points than CPUs available.
  Will not use alltoall communication since running on < 1024 CPUs.
  Threshold for basis singularities not set.
  Default threshold for basis singularities:  0.1000E-04
  partition_type (choice of integration weights) for integrals was not specified.
  | Using a version of the partition function of Stratmann and coworkers ('stratmann_sparse').
  | At each grid point, the set of atoms used to build the partition table is smoothly restricted to
  | only those atoms whose free-atom density would be non-zero at that grid point.
  Partitioning for Hartree potential was not defined. Using partition_type for integrals.
  | Adjusted default value of keyword multip_moments_threshold to:       0.10000000E-11
  | This value may affect high angular momentum components of the Hartree potential in periodic systems.
  No q(lm)/r^(l+1) cutoff set for long-range Hartree potential.
  | Using default value of  0.100000E-09 .
  | Verify using the multipole_threshold keyword.
  Defaulting to new monopole extrapolation.
  Density update method: automatic selection selected.
  Using density matrix based charge density update.
  Using density matrix based charge density update.
  Using packed matrix style: index .
  Geometry relaxation: A file "geometry.in.next_step" is written out by default after each step.
  | This file contains the geometry of the current relaxation step as well as
  | the current Hessian matrix needed to restart the relaxation algorithm.
  | If you do not want part or all of this information, use the keywords
  | "write_restart_geometry" or "hessian_to_restart_geometry" to switch the output off.
  Defaulting to use time-reversal symmetry for k-point grid.
  Charge integration errors on the 3D integration grid will be compensated
  by explicit normalization and distribution of residual charges.
  Use the "compensate_multipole_errors" flag to change this behaviour.
  Set 'collect_eigenvectors' to be '.true.' for all serial calculations. This is mandatory.
  Set 'collect_eigenvectors' to be '.true.' for KS_method lapack_fast and serial.
 
  Consistency checks for the contents of geometry.in are next.
 

  Range separation radius for Ewald summation (hartree_convergence_parameter):      3.55728942 bohr.
  Number of empty states per atom not set in control.in - providing a guess from actual geometry.
  | Total number of empty states used during s.c.f. cycle:        3
  If you use a very high smearing, use empty_states (per atom!) in control.in to increase this value.

  Structure-dependent array size parameters: 
  | Maximum number of distinct radial functions  :        8
  | Maximum number of basis functions            :       18
  | Number of Kohn-Sham states (occupied + empty):       10
------------------------------------------------------------
  After read_input_data [GB]:    433.22

  Performing system and environment tests:
  | Environment variable OMP_NUM_THREADS correctly set to 1.
  | Checking for ScaLAPACK...
  | Testing pdtran()...
  | All pdtran() tests passed.
  After prepare_system [GB]:    433.19

------------------------------------------------------------
          Preparing all fixed parts of the calculation.
------------------------------------------------------------
  Determining machine precision:
    2.225073858507201E-308
  Setting up grids for atomic and cluster calculations.

  Creating wave function, potential, and density for free atoms.
  Runtime choices for atomic solver:
  | atomic solver xc        : PW-LDA
  | compute density gradient: 0
  | compute kinetic density : F

  Species: Al

  List of occupied orbitals and eigenvalues:
    n    l              occ      energy [Ha]    energy [eV]
    1    0           2.0000       -55.368617     -1506.6567
    2    0           2.0000        -3.933052      -107.0238
    3    0           2.0000        -0.275173        -7.4878
    2    1           6.0000        -2.544101       -69.2285
    3    1           1.0000        -0.086012        -2.3405


  Adding cutoff potential to free-atom effective potential.
  Creating fixed part of basis set: Ionic, confined, hydrogenic.
 
  Al                   ion:

  List of free ionic orbitals and eigenvalues:
    n    l      energy [Ha]    energy [eV]
    1    0       -56.167517     -1528.3959
    2    0        -4.710173      -128.1703
    3    0        -0.879347       -23.9283
    2    1        -3.321561       -90.3843


  List of ionic basis orbitals and eigenvalues:
    n    l      energy [Ha]    energy [eV]    outer radius [A]
    3    2        -0.349836        -9.5195       4.594041
    3    1        -0.638653       -17.3786       4.538221
    3    0        -0.879312       -23.9273       4.483079

  Creating atomic-like basis functions for current effective potential.

  Species Al                  :

  List of atomic basis orbitals and eigenvalues:
    n    l      energy [Ha]    energy [eV]    outer radius [A]
    1    0       -55.368617     -1506.6567       0.850197
    2    0        -3.933052      -107.0238       3.183593
    3    0        -0.275173        -7.4878       4.594041
    2    1        -2.544101       -69.2285       3.731966
    3    1        -0.086012        -2.3405       4.594041

  Assembling full basis from fixed parts.
  | Species Al :   atomic orbital   1 s accepted.
  | Species Al :   atomic orbital   2 s accepted.
  | Species Al :    ionic orbital   3 s accepted.
  | Species Al :   atomic orbital   3 s accepted.
  | Species Al :   atomic orbital   2 p accepted.
  | Species Al :    ionic orbital   3 p accepted.
  | Species Al :   atomic orbital   3 p accepted.
  | Species Al :    ionic orbital   3 d accepted.
 
  Basis size parameters after reduction:
  | Total number of radial functions:        8
  | Total number of basis functions :       18
 
  Per-task memory consumption for arrays in subroutine allocate_ext:
  |           2.745180MB.
  Testing on-site integration grid accuracy.
  |  Species  Function  <phi|h_atom|phi> (log., in eV)  <phi|h_atom|phi> (rad., in eV)
           1        1              -1506.6567349563              -1506.6561595453
           1        2               -107.0238002879               -107.0237973754
           1        3                 -7.0435360886                 -7.0439988225
           1        4                  4.8527617730                  4.7697900123 ***
           1        5                -69.2285135094                -69.2285134423
           1        6                 -1.5497969167                 -1.5527571275
           1        7                  6.4027499806                  6.1501072511 ***
           1        8                  4.3750044185                  4.3418354946 ***
 * Note: Onsite integrals marked "***" above are less accurate than
 * onsite_accuracy_threshold =    0.03000 eV. Usually, this is harmless.
 * When in doubt, tighten the "radial" and/or "radial_multiplier" flags to check.

  Preparing densities etc. for the partition functions (integrals / Hartree potential).

  Preparations completed.
  max(cpu_time)          :      0.114 s.
  Wall clock time (cpu1) :      0.114 s.
------------------------------------------------------------
  After prepare_scf [GB]:    433.17

  Initializing index lists of integration centers etc. from given atomic structure:
  Mapping all atomic coordinates to central unit cell.

  Initializing the k-points
  Using symmetry for reducing the k-points
  | k-points reduced from:     1728 to      868
  | Number of k-points                             :       868
  The eigenvectors in the calculations are COMPLEX.
  | K-points in task   0:       217
  | K-points in task   1:       217
  | K-points in task   2:       217
  | K-points in task   3:       217
  | Number of basis functions in the Hamiltonian integrals :      1420
  | Number of basis functions in a single unit cell        :        18
  | Number of centers in hartree potential         :       683
  | Number of centers in hartree multipole         :       321
  | Number of centers in electron density summation:       225
  | Number of centers in basis integrals           :       249
  | Number of centers in integrals                 :        93
  | Number of centers in hamiltonian               :       225
  | Consuming       3065 KiB for k_phase.
  | Number of super-cells (origin) [n_cells]                     :        3375
  | Number of super-cells (after PM_index) [n_cells]             :         226
  | Number of super-cells in hamiltonian [n_cells_in_hamiltonian]:         226
  | Size of matrix packed + index [n_hamiltonian_matrix_size] :       31382
  After initialize_bc_dependent_lists [GB]:    433.16

------------------------------------------------------------
          Begin self-consistency loop: Initialization.

          Date     :  20231208, Time     :  112432.815
------------------------------------------------------------

  Initializing relaxation algorithms.
  Finished initialization of distributed Hessian storage.
  | Global dimension:        12
  | BLACS block size:         3
  | Number of workers:        4

  Available memory per node after initialize_hartree_non_periodic_ewald [GB]:    433.16
  | Estimated reciprocal-space cutoff momentum G_max:         2.63548721 bohr^-1 .
  | Reciprocal lattice points for long-range Hartree potential:      26
  Available memory per node after initialize_recip_hartree_potential [GB]:    433.16
  Available memory per node after initialize_scalapack [GB]:    433.16
  Available memory per node after aims_elsi_init_scf [GB]:    433.16
  Available memory per node after initialize_fixed_grids [GB]:    433.16
  Partitioning the integration grid into batches with parallel hashing+maxmin method.
  | Number of batches:       96
  | Maximal batch size:     145
  | Minimal batch size:      49
  | Average batch size:      78.729
  | Standard deviation of batch sizes:      18.700

  Integration load balanced across     4 MPI tasks.
  Work distribution over tasks is as follows:
  Task     0 has       1930 integration points.
  Task     1 has       1858 integration points.
  Task     2 has       1891 integration points.
  Task     3 has       1879 integration points.
  Available memory per node after partition_grid [GB]:    433.16
  Initializing partition tables, free-atom densities, potentials, etc. across the integration grid (initialize_grid_storage).
  | initialize_grid_storage: Actual outermost partition radius vs. multipole_radius_free
  | (-- VB: in principle, multipole_radius_free should be larger, hence this output)
  | Species        1: Confinement radius =              4.999999999999999 AA, multipole_radius_free =              5.004487022111096 AA.
  | Species        1: outer_partition_radius set to              5.004487022111096 AA .
  | The sparse table of interatomic distances needs        345.14 kbyte instead of       496.01 kbyte of memory.
  | Net number of integration points:     7558
  | of which are non-zero points    :     6650
  | Numerical average free-atom electrostatic potential    :    -16.10851449 eV
  Available memory per node after initialize_grid_storage_p1 [GB]:    433.15
  Renormalizing the initial density to the exact electron count on the 3D integration grid.
  | Initial density: Formal number of electrons (from input files) :      13.0000000000
  | Integrated number of electrons on 3D grid     :      13.0005775920
  | Charge integration error                      :       0.0005775920
  | Normalization factor for density and gradient :       0.9999555718
  Renormalizing the free-atom superposition density to the exact electron count on the 3D integration grid.
  | Formal number of electrons (from input files) :      13.0000000000
  | Integrated number of electrons on 3D grid     :      13.0005775920
  | Charge integration error                      :       0.0005775920
  | Normalization factor for density and gradient :       0.9999555718
  Obtaining max. number of non-zero basis functions in each batch (get_n_compute_maxes).
  | Maximal number of non-zero basis functions:      623 in task     0
  | Maximal number of non-zero basis functions:      623 in task     1
  | Maximal number of non-zero basis functions:      614 in task     2
  | Maximal number of non-zero basis functions:      620 in task     3
  Available memory per node after get_n_compute_maxes_p1 [GB]:    433.15
  Allocating        0.596 MB for KS_eigenvector_complex
  Available memory per node after allocate_matrices [GB]:    433.15
  Available memory per node after init_comm_sparse_local_matrix_scalapack [GB]:    433.15
  Integrating Hamiltonian matrix: batch-based integration.
  Time summed over all CPUs for integration: real work        0.294 s, elapsed        0.327 s
  Available memory per node after integrate hamiltonian matrix [GB]:    433.11
  Integrating overlap matrix.
  Time summed over all CPUs for integration: real work        0.234 s, elapsed        0.274 s
  Available memory per node after integrate ovlp matrix [GB]:    433.10
  Available memory per node after ASI_callbacks invoke [GB]:    433.10
  Decreasing sparse matrix size:
  | Tolerance:  0.1000E-12
  Hamiltonian matrix
  | Array has    22125 nonzero elements out of    31382 elements
  | Sparsity factor is 0.295
  Overlap matrix
  | Array has    21071 nonzero elements out of    31382 elements
  | Sparsity factor is 0.329
  New size of hamiltonian matrix:       22264
  Available memory per node after save_overlap_scalapack [GB]:    433.10

  Updating Kohn-Sham eigenvalues and eigenvectors using ELSI and the (modified) LAPACK eigensolver.
  Singularity check in k-point 4, task 0 (analysis for other k-points/tasks may follow below):
  Overlap matrix is not singular
  | Lowest and highest eigenvalues :  0.4746E-03,  0.8427E+01
  Finished singularity check of overlap matrix
  | Time :     0.001 s
  Starting LAPACK eigensolver
  Finished Cholesky decomposition
  | Time :     0.000 s
  Finished transformation to standard eigenproblem
  | Time :     0.000 s
  Finished solving standard eigenproblem
  | Time :     0.000 s
  Finished back-transformation of eigenvectors
  | Time :     0.000 s

  Obtaining occupation numbers and electronic chemical potential using ELSI.
  | Note that, for insulating systems, the printed 'chemical potential' value is not uniquely defined.
  | It can be anywhere in the energy gap, as long as it correctly separates occupied and unoccupied states.
  | In systems with a gap, the physically relevant chemical potential is the VBM or HOMO.

  | Chemical potential (Fermi level):    -5.99169730 eV
  Available memory per node after advance_KS_solution [GB]:    433.10
  Writing Kohn-Sham eigenvalues.
  K-point:       1 at    0.000000    0.000000    0.000000 (in units of recip. lattice)

  State    Occupation    Eigenvalue [Ha]    Eigenvalue [eV]
      1       2.00000         -55.384976        -1507.10188
      2       2.00000          -3.955405         -107.63204
      3       2.00000          -2.565990          -69.82414
      4       2.00000          -2.565990          -69.82414
      5       2.00000          -2.565990          -69.82414
      6       2.00000          -0.635696          -17.29818
      7       0.00000           0.259435            7.05960
      8       0.00000           0.259435            7.05960
      9       0.00000           0.259435            7.05960
     10       0.00000           0.345188            9.39305

  What follows are estimated values for band gap, HOMO, LUMO, etc.
  | They are estimated on a discrete k-point grid and not necessarily exact.
  | For converged numbers, create a DOS and/or band structure plot on a denser k-grid.

  Highest occupied state (VBM) at     -6.07996038 eV (relative to internal zero)
  | Occupation number:      1.78805261
  | K-point:     713 at    0.583333    0.666667    0.250000 (in units of recip. lattice)

  Lowest unoccupied state (CBM) at    -5.92933397 eV (relative to internal zero)
  | Occupation number:      0.37780350
  | K-point:     125 at    0.083333    0.416667    0.583333 (in units of recip. lattice)

  ESTIMATED overall HOMO-LUMO gap:      0.15062641 eV between HOMO at k-point 713 and LUMO at k-point 125
  | This appears to be an indirect band gap.
  | Smallest direct gap :      0.97723265 eV for k_point 680 at    0.500000    0.750000    0.250000 (in units of recip. lattice)
  However, this system has fractional occupation numbers. Since we use a finite k-point grid,
  this material is metallic within the approximate finite broadening function (occupation_type)
  applied to determine the occupation numbers.
  Calculating total energy contributions from superposition of free atom densities.

  Total energy components:
  | Sum of eigenvalues            :        -135.22664015 Ha       -3679.70409963 eV
  | XC energy correction          :         -17.73909080 Ha        -482.70522043 eV
  | XC potential correction       :          23.42935756 Ha         637.54525715 eV
  | Free-atom electrostatic energy:        -112.62194434 Ha       -3064.59903061 eV
  | Hartree energy correction     :           0.00000000 Ha           0.00000000 eV
  | Entropy correction            :          -0.00003763 Ha          -0.00102409 eV
  | ---------------------------
  | Total energy                  :        -242.15831773 Ha       -6589.46309352 eV
  | Total energy, T -> 0          :        -242.15835536 Ha       -6589.46411761 eV  <-- do not rely on this value for anything but (periodic) metals
  | Electronic free energy        :        -242.15839300 Ha       -6589.46514170 eV

  Derived energy quantities:
  | Kinetic energy                :         242.58102144 Ha        6600.96544679 eV
  | Electrostatic energy          :        -467.00024837 Ha      -12707.72331988 eV
  | Energy correction for multipole
  | error in Hartree potential    :           0.00000000 Ha           0.00000000 eV
  | Sum of eigenvalues per atom                           :       -3679.70409963 eV
  | Total energy (T->0) per atom                          :       -6589.46411761 eV  <-- do not rely on this value for anything but (periodic) metals
  | Electronic free energy per atom                       :       -6589.46514170 eV
  Initialize hartree_potential_storage
  Max. number of atoms included in rho_multipole:            1

  End scf initialization - timings             :  max(cpu_time)    wall_clock(cpu1)
  | Time for scf. initialization                :        0.331 s           0.331 s
  | Boundary condition initialization           :        0.081 s           0.082 s
  | Relaxation initialization                   :        0.001 s           0.000 s
  | Integration                                 :        0.153 s           0.152 s
  | Solution of K.-S. eqns.                     :        0.095 s           0.095 s
  | Grid partitioning                           :        0.009 s           0.008 s
  | Preloading free-atom quantities on grid     :        0.065 s           0.064 s
  | Free-atom superposition energy              :        0.008 s           0.009 s
  | Total energy evaluation                     :        0.000 s           0.000 s

  Partial memory accounting:
  | Current value for overall tracked memory usage:
  |   Minimum:        1.051 MB (on task 0)
  |   Maximum:        1.051 MB (on task 0)
  |   Average:        1.051 MB
  | Peak value for overall tracked memory usage:
  |   Minimum:        6.138 MB (on task 2 after allocating wave)
  |   Maximum:        6.253 MB (on task 0 after allocating wave)
  |   Average:        6.215 MB
  | Largest tracked array allocation so far:
  |   Minimum:        2.876 MB (hamiltonian_shell on task 2)
  |   Maximum:        2.961 MB (hamiltonian_shell on task 0)
  |   Average:        2.933 MB
  Note:  These values currently only include a subset of arrays which are explicitly tracked.
  The "true" memory usage will be greater.
------------------------------------------------------------
  Available memory after initialize_scf [GB]:    433.10
  Available memory after allocating mixing [GB]:    433.10
  Evaluating new KS density using the density matrix
  Evaluating density matrix
  Time summed over all CPUs for getting density from density matrix: real work        0.304 s, elapsed        0.332 s
  Integration grid: deviation in total charge (<rho> - N_e) =  -1.438849E-13

  Time for density update prior                :  max(cpu_time)    wall_clock(cpu1)
  | self-consistency iterative process          :        0.100 s           0.100 s
  Available memory before start of SCF loop [GB]:    433.08

------------------------------------------------------------
          Begin self-consistency iteration #    1

  Date     :  20231208, Time     :  112433.246
------------------------------------------------------------
  Pulay mixing of updated and previous charge densities.
  Available memory per node after mixing [GB]:    433.08
  Renormalizing the density to the exact electron count on the 3D integration grid.
  | Formal number of electrons (from input files) :      13.0000000000
  | Integrated number of electrons on 3D grid     :      13.0000000000
  | Charge integration error                      :       0.0000000000
  | Normalization factor for density and gradient :       1.0000000000

  Evaluating partitioned Hartree potential by multipole expansion.
  | Original multipole sum: apparent total charge =   0.282132E-13
  | Sum of charges compensated after spline to logarithmic grids =  -0.494022E-07
  | Analytical far-field extrapolation by fixed multipoles:
  | Hartree multipole sum: apparent total charge =   0.000000E+00
  Summing up the Hartree potential.
  Time summed over all CPUs for potential: real work        0.024 s, elapsed        0.031 s
  | RMS charge density error from multipole expansion :   0.261833E-03
  | Average real-space part of the electrostatic potential :     -0.02047553 eV

  Integrating Hamiltonian matrix: batch-based integration.
  Time summed over all CPUs for integration: real work        0.343 s, elapsed        0.377 s

  Updating Kohn-Sham eigenvalues and eigenvectors using ELSI and the (modified) LAPACK eigensolver.
  Starting LAPACK eigensolver
  Finished Cholesky decomposition
  | Time :     0.000 s
  Finished transformation to standard eigenproblem
  | Time :     0.000 s
  Finished solving standard eigenproblem
  | Time :     0.000 s
  Finished back-transformation of eigenvectors
  | Time :     0.000 s

  Obtaining occupation numbers and electronic chemical potential using ELSI.
  | Note that, for insulating systems, the printed 'chemical potential' value is not uniquely defined.
  | It can be anywhere in the energy gap, as long as it correctly separates occupied and unoccupied states.
  | In systems with a gap, the physically relevant chemical potential is the VBM or HOMO.

  | Chemical potential (Fermi level):    -5.99432721 eV
  Writing Kohn-Sham eigenvalues.
  K-point:       1 at    0.000000    0.000000    0.000000 (in units of recip. lattice)

  State    Occupation    Eigenvalue [Ha]    Eigenvalue [eV]
      1       2.00000         -55.387215        -1507.16281
      2       2.00000          -3.957293         -107.68342
      3       2.00000          -2.567873          -69.87538
      4       2.00000          -2.567873          -69.87538
      5       2.00000          -2.567873          -69.87538
      6       2.00000          -0.635785          -17.30059
      7       0.00000           0.259292            7.05569
      8       0.00000           0.259292            7.05569
      9       0.00000           0.259292            7.05569
     10       0.00000           0.344804            9.38259

  What follows are estimated values for band gap, HOMO, LUMO, etc.
  | They are estimated on a discrete k-point grid and not necessarily exact.
  | For converged numbers, create a DOS and/or band structure plot on a denser k-grid.

  Highest occupied state (VBM) at     -6.08373454 eV (relative to internal zero)
  | Occupation number:      1.79391733
  | K-point:     703 at    0.583333    0.333333    0.916667 (in units of recip. lattice)

  Lowest unoccupied state (CBM) at    -5.93143899 eV (relative to internal zero)
  | Occupation number:      0.37380229
  | K-point:     628 at    0.500000    0.083333    0.666667 (in units of recip. lattice)

  ESTIMATED overall HOMO-LUMO gap:      0.15229555 eV between HOMO at k-point 703 and LUMO at k-point 628
  | This appears to be an indirect band gap.
  | Smallest direct gap :      0.97962184 eV for k_point 680 at    0.500000    0.750000    0.250000 (in units of recip. lattice)
  However, this system has fractional occupation numbers. Since we use a finite k-point grid,
  this material is metallic within the approximate finite broadening function (occupation_type)
  applied to determine the occupation numbers.

  Total energy components:
  | Sum of eigenvalues            :        -135.24647591 Ha       -3680.24385838 eV
  | XC energy correction          :         -17.73750289 Ha        -482.66201113 eV
  | XC potential correction       :          23.42725888 Ha         637.48814908 eV
  | Free-atom electrostatic energy:        -112.62194434 Ha       -3064.59903061 eV
  | Hartree energy correction     :           0.02044014 Ha           0.55620461 eV
  | Entropy correction            :          -0.00003731 Ha          -0.00101525 eV
  | ---------------------------
  | Total energy                  :        -242.15822412 Ha       -6589.46054643 eV
  | Total energy, T -> 0          :        -242.15826143 Ha       -6589.46156168 eV  <-- do not rely on this value for anything but (periodic) metals
  | Electronic free energy        :        -242.15829874 Ha       -6589.46257693 eV

  Derived energy quantities:
  | Kinetic energy                :         242.56289955 Ha        6600.47232514 eV
  | Electrostatic energy          :        -466.98362079 Ha      -12707.27086044 eV
  | Energy correction for multipole
  | error in Hartree potential    :           0.00003653 Ha           0.00099408 eV
  | Sum of eigenvalues per atom                           :       -3680.24385838 eV
  | Total energy (T->0) per atom                          :       -6589.46156168 eV  <-- do not rely on this value for anything but (periodic) metals
  | Electronic free energy per atom                       :       -6589.46257693 eV
  Evaluating new KS density using the density matrix
  Evaluating density matrix
  Time summed over all CPUs for getting density from density matrix: real work        0.294 s, elapsed        0.314 s
  Integration grid: deviation in total charge (<rho> - N_e) =  -1.296740E-13

  Self-consistency convergence accuracy:
  | Change of charge density      :  0.4030E-01
  | Change of unmixed KS density  :  0.2026E+02
  | Change of sum of eigenvalues  : -0.5398E+00 eV
  | Change of total energy        :  0.2547E-02 eV


------------------------------------------------------------
  End self-consistency iteration #     1       :  max(cpu_time)    wall_clock(cpu1)
  | Time for this iteration                     :        0.302 s           0.302 s
  | Charge density update                       :        0.095 s           0.094 s
  | Density mixing                              :        0.000 s           0.000 s
  | Hartree multipole update                    :        0.001 s           0.001 s
  | Hartree multipole summation                 :        0.032 s           0.032 s
  | Integration                                 :        0.095 s           0.095 s
  | Solution of K.-S. eqns.                     :        0.080 s           0.079 s
  | Total energy evaluation                     :        0.000 s           0.001 s

  Partial memory accounting:
  | Current value for overall tracked memory usage:
  |   Minimum:        1.320 MB (on task 1)
  |   Maximum:        1.330 MB (on task 0)
  |   Average:        1.324 MB
  | Peak value for overall tracked memory usage:
  |   Minimum:        6.239 MB (on task 2 after allocating wave)
  |   Maximum:        6.359 MB (on task 0 after allocating wave)
  |   Average:        6.315 MB
  | Largest tracked array allocation so far:
  |   Minimum:        2.876 MB (hamiltonian_shell on task 2)
  |   Maximum:        2.961 MB (hamiltonian_shell on task 0)
  |   Average:        2.933 MB
  Note:  These values currently only include a subset of arrays which are explicitly tracked.
  The "true" memory usage will be greater.
------------------------------------------------------------

------------------------------------------------------------
          Begin self-consistency iteration #    2

  Date     :  20231208, Time     :  112433.548
------------------------------------------------------------
  Pulay mixing of updated and previous charge densities.
  Available memory per node after mixing [GB]:    433.08
  Renormalizing the density to the exact electron count on the 3D integration grid.
  | Formal number of electrons (from input files) :      13.0000000000
  | Integrated number of electrons on 3D grid     :      13.0000000000
  | Charge integration error                      :      -0.0000000000
  | Normalization factor for density and gradient :       1.0000000000

  Evaluating partitioned Hartree potential by multipole expansion.
  | Original multipole sum: apparent total charge =  -0.477350E-15
  | Sum of charges compensated after spline to logarithmic grids =  -0.795224E-06
  | Analytical far-field extrapolation by fixed multipoles:
  | Hartree multipole sum: apparent total charge =   0.000000E+00
  Summing up the Hartree potential.
  Time summed over all CPUs for potential: real work        0.028 s, elapsed        0.033 s
  | RMS charge density error from multipole expansion :   0.466761E-02
  | Average real-space part of the electrostatic potential :     -0.36474754 eV

  Integrating Hamiltonian matrix: batch-based integration.
  Time summed over all CPUs for integration: real work        0.309 s, elapsed        0.333 s

  Updating Kohn-Sham eigenvalues and eigenvectors using ELSI and the (modified) LAPACK eigensolver.
  Starting LAPACK eigensolver
  Finished Cholesky decomposition
  | Time :     0.000 s
  Finished transformation to standard eigenproblem
  | Time :     0.000 s
  Finished solving standard eigenproblem
  | Time :     0.000 s
  Finished back-transformation of eigenvectors
  | Time :     0.000 s

  Obtaining occupation numbers and electronic chemical potential using ELSI.
  | Note that, for insulating systems, the printed 'chemical potential' value is not uniquely defined.
  | It can be anywhere in the energy gap, as long as it correctly separates occupied and unoccupied states.
  | In systems with a gap, the physically relevant chemical potential is the VBM or HOMO.

  | Chemical potential (Fermi level):    -6.03380240 eV
  What follows are estimated values for band gap, HOMO, LUMO, etc.
  | They are estimated on a discrete k-point grid and not necessarily exact.
  | For converged numbers, create a DOS and/or band structure plot on a denser k-grid.

  Highest occupied state (VBM) at     -6.14298022 eV (relative to internal zero)
  | Occupation number:      1.87741351
  | K-point:     591 at    0.416667    0.750000    0.333333 (in units of recip. lattice)

  Lowest unoccupied state (CBM) at    -5.96313353 eV (relative to internal zero)
  | Occupation number:      0.31759672
  | K-point:     252 at    0.166667    0.583333    0.666667 (in units of recip. lattice)

  ESTIMATED overall HOMO-LUMO gap:      0.17984669 eV between HOMO at k-point 591 and LUMO at k-point 252
  | This appears to be an indirect band gap.
  | Smallest direct gap :      1.01674918 eV for k_point 779 at    0.750000    0.500000    0.250000 (in units of recip. lattice)
  However, this system has fractional occupation numbers. Since we use a finite k-point grid,
  this material is metallic within the approximate finite broadening function (occupation_type)
  applied to determine the occupation numbers.

  Checking to see if s.c.f. parameters should be adjusted.
  Adjusted the Pulay mixing parameter (charge_mix_param) for an expected low-gap system. New value:   0.020000 .

  Total energy components:
  | Sum of eigenvalues            :        -135.57553265 Ha       -3689.19794774 eV
  | XC energy correction          :         -17.71236281 Ha        -481.97791473 eV
  | XC potential correction       :          23.39402941 Ha         636.58392916 eV
  | Free-atom electrostatic energy:        -112.62194434 Ha       -3064.59903061 eV
  | Hartree energy correction     :           0.35835393 Ha           9.75130656 eV
  | Entropy correction            :          -0.00003241 Ha          -0.00088189 eV
  | ---------------------------
  | Total energy                  :        -242.15745646 Ha       -6589.43965737 eV
  | Total energy, T -> 0          :        -242.15748887 Ha       -6589.44053926 eV  <-- do not rely on this value for anything but (periodic) metals
  | Electronic free energy        :        -242.15752128 Ha       -6589.44142116 eV

  Derived energy quantities:
  | Kinetic energy                :         242.26320239 Ha        6592.31715044 eV
  | Electrostatic energy          :        -466.70829605 Ha      -12699.77889308 eV
  | Energy correction for multipole
  | error in Hartree potential    :           0.00069425 Ha           0.01889146 eV
  | Sum of eigenvalues per atom                           :       -3689.19794774 eV
  | Total energy (T->0) per atom                          :       -6589.44053926 eV  <-- do not rely on this value for anything but (periodic) metals
  | Electronic free energy per atom                       :       -6589.44142116 eV
  Evaluating new KS density using the density matrix
  Evaluating density matrix
  Time summed over all CPUs for getting density from density matrix: real work        0.292 s, elapsed        0.315 s
  Integration grid: deviation in total charge (<rho> - N_e) =  -1.207923E-13

  Self-consistency convergence accuracy:
  | Change of charge density      :  0.3817E-01
  | Change of unmixed KS density  :  0.5374E-03
  | Change of sum of eigenvalues  : -0.8954E+01 eV
  | Change of total energy        :  0.2089E-01 eV


------------------------------------------------------------
  End self-consistency iteration #     2       :  max(cpu_time)    wall_clock(cpu1)
  | Time for this iteration                     :        0.290 s           0.290 s
  | Charge density update                       :        0.095 s           0.095 s
  | Density mixing                              :        0.000 s           0.001 s
  | Hartree multipole update                    :        0.001 s           0.000 s
  | Hartree multipole summation                 :        0.035 s           0.035 s
  | Integration                                 :        0.084 s           0.084 s
  | Solution of K.-S. eqns.                     :        0.076 s           0.075 s
  | Total energy evaluation                     :        0.000 s           0.000 s

  Partial memory accounting:
  | Current value for overall tracked memory usage:
  |   Minimum:        1.320 MB (on task 1)
  |   Maximum:        1.331 MB (on task 0)
  |   Average:        1.325 MB
  | Peak value for overall tracked memory usage:
  |   Minimum:        6.239 MB (on task 2 after allocating wave)
  |   Maximum:        6.360 MB (on task 0 after allocating wave)
  |   Average:        6.316 MB
  | Largest tracked array allocation so far:
  |   Minimum:        2.876 MB (hamiltonian_shell on task 2)
  |   Maximum:        2.961 MB (hamiltonian_shell on task 0)
  |   Average:        2.933 MB
  Note:  These values currently only include a subset of arrays which are explicitly tracked.
  The "true" memory usage will be greater.
------------------------------------------------------------

------------------------------------------------------------
          Begin self-consistency iteration #    3

  Date     :  20231208, Time     :  112433.838
------------------------------------------------------------
  Pulay mixing of updated and previous charge densities.
  Available memory per node after mixing [GB]:    433.08
  Renormalizing the density to the exact electron count on the 3D integration grid.
  | Formal number of electrons (from input files) :      13.0000000000
  | Integrated number of electrons on 3D grid     :      13.0000000000
  | Charge integration error                      :       0.0000000000
  | Normalization factor for density and gradient :       1.0000000000

  Evaluating partitioned Hartree potential by multipole expansion.
  | Original multipole sum: apparent total charge =  -0.482731E-15
  | Sum of charges compensated after spline to logarithmic grids =  -0.713516E-06
  | Analytical far-field extrapolation by fixed multipoles:
  | Hartree multipole sum: apparent total charge =   0.000000E+00
  Summing up the Hartree potential.
  Time summed over all CPUs for potential: real work        0.029 s, elapsed        0.036 s
  | RMS charge density error from multipole expansion :   0.481876E-02
  | Average real-space part of the electrostatic potential :     -0.37225471 eV

  Integrating Hamiltonian matrix: batch-based integration.
  Time summed over all CPUs for integration: real work        0.315 s, elapsed        0.351 s

  Updating Kohn-Sham eigenvalues and eigenvectors using ELSI and the (modified) LAPACK eigensolver.
  Starting LAPACK eigensolver
  Finished Cholesky decomposition
  | Time :     0.000 s
  Finished transformation to standard eigenproblem
  | Time :     0.000 s
  Finished solving standard eigenproblem
  | Time :     0.000 s
  Finished back-transformation of eigenvectors
  | Time :     0.000 s

  Obtaining occupation numbers and electronic chemical potential using ELSI.
  | Note that, for insulating systems, the printed 'chemical potential' value is not uniquely defined.
  | It can be anywhere in the energy gap, as long as it correctly separates occupied and unoccupied states.
  | In systems with a gap, the physically relevant chemical potential is the VBM or HOMO.

  | Chemical potential (Fermi level):    -6.03073493 eV
  What follows are estimated values for band gap, HOMO, LUMO, etc.
  | They are estimated on a discrete k-point grid and not necessarily exact.
  | For converged numbers, create a DOS and/or band structure plot on a denser k-grid.

  Highest occupied state (VBM) at     -6.13906473 eV (relative to internal zero)
  | Occupation number:      1.87448121
  | K-point:     591 at    0.416667    0.750000    0.333333 (in units of recip. lattice)

  Lowest unoccupied state (CBM) at    -5.96050949 eV (relative to internal zero)
  | Occupation number:      0.32064285
  | K-point:     242 at    0.166667    0.500000    0.583333 (in units of recip. lattice)

  ESTIMATED overall HOMO-LUMO gap:      0.17855524 eV between HOMO at k-point 591 and LUMO at k-point 242
  | This appears to be an indirect band gap.
  | Smallest direct gap :      1.01401944 eV for k_point 779 at    0.750000    0.500000    0.250000 (in units of recip. lattice)
  However, this system has fractional occupation numbers. Since we use a finite k-point grid,
  this material is metallic within the approximate finite broadening function (occupation_type)
  applied to determine the occupation numbers.

  Total energy components:
  | Sum of eigenvalues            :        -135.52849866 Ha       -3687.91808775 eV
  | XC energy correction          :         -17.71918527 Ha        -482.16356350 eV
  | XC potential correction       :          23.40308242 Ha         636.83027410 eV
  | Free-atom electrostatic energy:        -112.62194434 Ha       -3064.59903061 eV
  | Hartree energy correction     :           0.30911017 Ha           8.41131570 eV
  | Entropy correction            :          -0.00003269 Ha          -0.00088945 eV
  | ---------------------------
  | Total energy                  :        -242.15743569 Ha       -6589.43909206 eV
  | Total energy, T -> 0          :        -242.15746838 Ha       -6589.43998150 eV  <-- do not rely on this value for anything but (periodic) metals
  | Electronic free energy        :        -242.15750106 Ha       -6589.44087095 eV

  Derived energy quantities:
  | Kinetic energy                :         242.34907721 Ha        6594.65392331 eV
  | Electrostatic energy          :        -466.78732763 Ha      -12701.92945186 eV
  | Energy correction for multipole
  | error in Hartree potential    :           0.00071718 Ha           0.01951549 eV
  | Sum of eigenvalues per atom                           :       -3687.91808775 eV
  | Total energy (T->0) per atom                          :       -6589.43998150 eV  <-- do not rely on this value for anything but (periodic) metals
  | Electronic free energy per atom                       :       -6589.44087095 eV
  Evaluating new KS density using the density matrix
  Evaluating density matrix
  Time summed over all CPUs for getting density from density matrix: real work        0.295 s, elapsed        0.321 s
  Integration grid: deviation in total charge (<rho> - N_e) =  -1.207923E-13

  Self-consistency convergence accuracy:
  | Change of charge density      :  0.8960E-02
  | Change of unmixed KS density  :  0.8878E-02
  | Change of sum of eigenvalues  :  0.1280E+01 eV
  | Change of total energy        :  0.5653E-03 eV


------------------------------------------------------------
  End self-consistency iteration #     3       :  max(cpu_time)    wall_clock(cpu1)
  | Time for this iteration                     :        0.302 s           0.303 s
  | Charge density update                       :        0.097 s           0.097 s
  | Density mixing                              :        0.000 s           0.001 s
  | Hartree multipole update                    :        0.001 s           0.000 s
  | Hartree multipole summation                 :        0.037 s           0.037 s
  | Integration                                 :        0.088 s           0.088 s
  | Solution of K.-S. eqns.                     :        0.079 s           0.079 s
  | Total energy evaluation                     :        0.000 s           0.000 s

  Partial memory accounting:
  | Current value for overall tracked memory usage:
  |   Minimum:        1.321 MB (on task 1)
  |   Maximum:        1.331 MB (on task 0)
  |   Average:        1.325 MB
  | Peak value for overall tracked memory usage:
  |   Minimum:        6.239 MB (on task 2 after allocating wave)
  |   Maximum:        6.360 MB (on task 0 after allocating wave)
  |   Average:        6.316 MB
  | Largest tracked array allocation so far:
  |   Minimum:        2.876 MB (hamiltonian_shell on task 2)
  |   Maximum:        2.961 MB (hamiltonian_shell on task 0)
  |   Average:        2.933 MB
  Note:  These values currently only include a subset of arrays which are explicitly tracked.
  The "true" memory usage will be greater.
------------------------------------------------------------

------------------------------------------------------------
          Begin self-consistency iteration #    4

  Date     :  20231208, Time     :  112434.141
------------------------------------------------------------
  Pulay mixing of updated and previous charge densities.
  Available memory per node after mixing [GB]:    433.08
  Renormalizing the density to the exact electron count on the 3D integration grid.
  | Formal number of electrons (from input files) :      13.0000000000
  | Integrated number of electrons on 3D grid     :      13.0000000000
  | Charge integration error                      :      -0.0000000000
  | Normalization factor for density and gradient :       1.0000000000

  Evaluating partitioned Hartree potential by multipole expansion.
  | Original multipole sum: apparent total charge =  -0.140638E-13
  | Sum of charges compensated after spline to logarithmic grids =  -0.716368E-06
  | Analytical far-field extrapolation by fixed multipoles:
  | Hartree multipole sum: apparent total charge =   0.000000E+00
  Summing up the Hartree potential.
  Time summed over all CPUs for potential: real work        0.029 s, elapsed        0.036 s
  | RMS charge density error from multipole expansion :   0.485436E-02
  | Average real-space part of the electrostatic potential :     -0.37492411 eV

  Integrating Hamiltonian matrix: batch-based integration.
  Time summed over all CPUs for integration: real work        0.316 s, elapsed        0.351 s

  Updating Kohn-Sham eigenvalues and eigenvectors using ELSI and the (modified) LAPACK eigensolver.
  Starting LAPACK eigensolver
  Finished Cholesky decomposition
  | Time :     0.000 s
  Finished transformation to standard eigenproblem
  | Time :     0.000 s
  Finished solving standard eigenproblem
  | Time :     0.000 s
  Finished back-transformation of eigenvectors
  | Time :     0.000 s

  Obtaining occupation numbers and electronic chemical potential using ELSI.
  | Note that, for insulating systems, the printed 'chemical potential' value is not uniquely defined.
  | It can be anywhere in the energy gap, as long as it correctly separates occupied and unoccupied states.
  | In systems with a gap, the physically relevant chemical potential is the VBM or HOMO.

  | Chemical potential (Fermi level):    -6.03090602 eV
  What follows are estimated values for band gap, HOMO, LUMO, etc.
  | They are estimated on a discrete k-point grid and not necessarily exact.
  | For converged numbers, create a DOS and/or band structure plot on a denser k-grid.

  Highest occupied state (VBM) at     -6.13936161 eV (relative to internal zero)
  | Occupation number:      1.87491958
  | K-point:     522 at    0.416667    0.083333    0.666667 (in units of recip. lattice)

  Lowest unoccupied state (CBM) at    -5.96064337 eV (relative to internal zero)
  | Occupation number:      0.32038650
  | K-point:     242 at    0.166667    0.500000    0.583333 (in units of recip. lattice)

  ESTIMATED overall HOMO-LUMO gap:      0.17871824 eV between HOMO at k-point 522 and LUMO at k-point 242
  | This appears to be an indirect band gap.
  | Smallest direct gap :      1.01419258 eV for k_point 779 at    0.750000    0.500000    0.250000 (in units of recip. lattice)
  However, this system has fractional occupation numbers. Since we use a finite k-point grid,
  this material is metallic within the approximate finite broadening function (occupation_type)
  applied to determine the occupation numbers.

  Total energy components:
  | Sum of eigenvalues            :        -135.52967439 Ha       -3687.95008098 eV
  | XC energy correction          :         -17.71918516 Ha        -482.16356043 eV
  | XC potential correction       :          23.40308312 Ha         636.83029320 eV
  | Free-atom electrostatic energy:        -112.62194434 Ha       -3064.59903061 eV
  | Hartree energy correction     :           0.31028575 Ha           8.44330496 eV
  | Entropy correction            :          -0.00003266 Ha          -0.00088879 eV
  | ---------------------------
  | Total energy                  :        -242.15743502 Ha       -6589.43907385 eV
  | Total energy, T -> 0          :        -242.15746768 Ha       -6589.43996264 eV  <-- do not rely on this value for anything but (periodic) metals
  | Electronic free energy        :        -242.15750034 Ha       -6589.44085143 eV

  Derived energy quantities:
  | Kinetic energy                :         242.34907500 Ha        6594.65386309 eV
  | Electrostatic energy          :        -466.78732486 Ha      -12701.92937652 eV
  | Energy correction for multipole
  | error in Hartree potential    :           0.00072280 Ha           0.01966847 eV
  | Sum of eigenvalues per atom                           :       -3687.95008098 eV
  | Total energy (T->0) per atom                          :       -6589.43996264 eV  <-- do not rely on this value for anything but (periodic) metals
  | Electronic free energy per atom                       :       -6589.44085143 eV
  Evaluating new KS density using the density matrix
  Evaluating density matrix
  Time summed over all CPUs for getting density from density matrix: real work        0.328 s, elapsed        0.353 s
  Integration grid: deviation in total charge (<rho> - N_e) =  -1.136868E-13

  Self-consistency convergence accuracy:
  | Change of charge density      :  0.4850E-03
  | Change of unmixed KS density  :  0.1944E-02
  | Change of sum of eigenvalues  : -0.3199E-01 eV
  | Change of total energy        :  0.1820E-04 eV


------------------------------------------------------------
  End self-consistency iteration #     4       :  max(cpu_time)    wall_clock(cpu1)
  | Time for this iteration                     :        0.315 s           0.315 s
  | Charge density update                       :        0.105 s           0.105 s
  | Density mixing                              :        0.000 s           0.000 s
  | Hartree multipole update                    :        0.001 s           0.001 s
  | Hartree multipole summation                 :        0.037 s           0.037 s
  | Integration                                 :        0.088 s           0.088 s
  | Solution of K.-S. eqns.                     :        0.084 s           0.084 s
  | Total energy evaluation                     :        0.000 s           0.000 s

  Partial memory accounting:
  | Current value for overall tracked memory usage:
  |   Minimum:        1.321 MB (on task 1)
  |   Maximum:        1.331 MB (on task 0)
  |   Average:        1.325 MB
  | Peak value for overall tracked memory usage:
  |   Minimum:        6.239 MB (on task 2 after allocating wave)
  |   Maximum:        6.360 MB (on task 0 after allocating wave)
  |   Average:        6.316 MB
  | Largest tracked array allocation so far:
  |   Minimum:        2.876 MB (hamiltonian_shell on task 2)
  |   Maximum:        2.961 MB (hamiltonian_shell on task 0)
  |   Average:        2.933 MB
  Note:  These values currently only include a subset of arrays which are explicitly tracked.
  The "true" memory usage will be greater.
------------------------------------------------------------

------------------------------------------------------------
          Begin self-consistency iteration #    5

  Date     :  20231208, Time     :  112434.456
------------------------------------------------------------
  Pulay mixing of updated and previous charge densities.
  Available memory per node after mixing [GB]:    433.04
  Renormalizing the density to the exact electron count on the 3D integration grid.
  | Formal number of electrons (from input files) :      13.0000000000
  | Integrated number of electrons on 3D grid     :      13.0000000000
  | Charge integration error                      :      -0.0000000000
  | Normalization factor for density and gradient :       1.0000000000

  Evaluating partitioned Hartree potential by multipole expansion.
  | Original multipole sum: apparent total charge =  -0.284265E-13
  | Sum of charges compensated after spline to logarithmic grids =  -0.685997E-06
  | Analytical far-field extrapolation by fixed multipoles:
  | Hartree multipole sum: apparent total charge =   0.000000E+00
  Summing up the Hartree potential.
  Time summed over all CPUs for potential: real work        0.029 s, elapsed        0.036 s
  | RMS charge density error from multipole expansion :   0.484012E-02
  | Average real-space part of the electrostatic potential :     -0.37398705 eV

  Integrating Hamiltonian matrix: batch-based integration.
  Time summed over all CPUs for integration: real work        0.323 s, elapsed        0.364 s

  Updating Kohn-Sham eigenvalues and eigenvectors using ELSI and the (modified) LAPACK eigensolver.
  Starting LAPACK eigensolver
  Finished Cholesky decomposition
  | Time :     0.000 s
  Finished transformation to standard eigenproblem
  | Time :     0.000 s
  Finished solving standard eigenproblem
  | Time :     0.001 s
  Finished back-transformation of eigenvectors
  | Time :     0.000 s

  Obtaining occupation numbers and electronic chemical potential using ELSI.
  | Note that, for insulating systems, the printed 'chemical potential' value is not uniquely defined.
  | It can be anywhere in the energy gap, as long as it correctly separates occupied and unoccupied states.
  | In systems with a gap, the physically relevant chemical potential is the VBM or HOMO.

  | Chemical potential (Fermi level):    -6.03083172 eV
  What follows are estimated values for band gap, HOMO, LUMO, etc.
  | They are estimated on a discrete k-point grid and not necessarily exact.
  | For converged numbers, create a DOS and/or band structure plot on a denser k-grid.

  Highest occupied state (VBM) at     -6.13928802 eV (relative to internal zero)
  | Occupation number:      1.87492205
  | K-point:     591 at    0.416667    0.750000    0.333333 (in units of recip. lattice)

  Lowest unoccupied state (CBM) at    -5.96061887 eV (relative to internal zero)
  | Occupation number:      0.32072958
  | K-point:     252 at    0.166667    0.583333    0.666667 (in units of recip. lattice)

  ESTIMATED overall HOMO-LUMO gap:      0.17866916 eV between HOMO at k-point 591 and LUMO at k-point 252
  | This appears to be an indirect band gap.
  | Smallest direct gap :      1.01385247 eV for k_point 779 at    0.750000    0.500000    0.250000 (in units of recip. lattice)
  However, this system has fractional occupation numbers. Since we use a finite k-point grid,
  this material is metallic within the approximate finite broadening function (occupation_type)
  applied to determine the occupation numbers.

  Total energy components:
  | Sum of eigenvalues            :        -135.52933278 Ha       -3687.94078541 eV
  | XC energy correction          :         -17.71918363 Ha        -482.16351876 eV
  | XC potential correction       :          23.40308089 Ha         636.83023267 eV
  | Free-atom electrostatic energy:        -112.62194434 Ha       -3064.59903061 eV
  | Hartree energy correction     :           0.30994471 Ha           8.43402471 eV
  | Entropy correction            :          -0.00003269 Ha          -0.00088959 eV
  | ---------------------------
  | Total energy                  :        -242.15743515 Ha       -6589.43907741 eV
  | Total energy, T -> 0          :        -242.15746784 Ha       -6589.43996700 eV  <-- do not rely on this value for anything but (periodic) metals
  | Electronic free energy        :        -242.15750053 Ha       -6589.44085659 eV

  Derived energy quantities:
  | Kinetic energy                :         242.34869415 Ha        6594.64349952 eV
  | Electrostatic energy          :        -466.78694567 Ha      -12701.91905816 eV
  | Energy correction for multipole
  | error in Hartree potential    :           0.00072005 Ha           0.01959351 eV
  | Sum of eigenvalues per atom                           :       -3687.94078541 eV
  | Total energy (T->0) per atom                          :       -6589.43996700 eV  <-- do not rely on this value for anything but (periodic) metals
  | Electronic free energy per atom                       :       -6589.44085659 eV
  Evaluating new KS density using the density matrix
  Evaluating density matrix
  Time summed over all CPUs for getting density from density matrix: real work        0.313 s, elapsed        0.349 s
  Integration grid: deviation in total charge (<rho> - N_e) =  -4.263256E-14

  Self-consistency convergence accuracy:
  | Change of charge density      :  0.2227E-03
  | Change of unmixed KS density  :  0.1764E-04
  | Change of sum of eigenvalues  :  0.9296E-02 eV
  | Change of total energy        : -0.3556E-05 eV


------------------------------------------------------------
  End self-consistency iteration #     5       :  max(cpu_time)    wall_clock(cpu1)
  | Time for this iteration                     :        0.312 s           0.312 s
  | Charge density update                       :        0.103 s           0.103 s
  | Density mixing                              :        0.000 s           0.000 s
  | Hartree multipole update                    :        0.001 s           0.001 s
  | Hartree multipole summation                 :        0.037 s           0.037 s
  | Integration                                 :        0.092 s           0.091 s
  | Solution of K.-S. eqns.                     :        0.079 s           0.079 s
  | Total energy evaluation                     :        0.000 s           0.000 s

  Partial memory accounting:
  | Current value for overall tracked memory usage:
  |   Minimum:        1.321 MB (on task 1)
  |   Maximum:        1.331 MB (on task 0)
  |   Average:        1.325 MB
  | Peak value for overall tracked memory usage:
  |   Minimum:        6.239 MB (on task 2 after allocating wave)
  |   Maximum:        6.360 MB (on task 0 after allocating wave)
  |   Average:        6.316 MB
  | Largest tracked array allocation so far:
  |   Minimum:        2.876 MB (hamiltonian_shell on task 2)
  |   Maximum:        2.961 MB (hamiltonian_shell on task 0)
  |   Average:        2.933 MB
  Note:  These values currently only include a subset of arrays which are explicitly tracked.
  The "true" memory usage will be greater.
------------------------------------------------------------

------------------------------------------------------------
          Begin self-consistency iteration #    6

  Date     :  20231208, Time     :  112434.769
------------------------------------------------------------
  Pulay mixing of updated and previous charge densities.
  Available memory per node after mixing [GB]:    433.12
  Renormalizing the density to the exact electron count on the 3D integration grid.
  | Formal number of electrons (from input files) :      13.0000000000
  | Integrated number of electrons on 3D grid     :      13.0000000000
  | Charge integration error                      :       0.0000000000
  | Normalization factor for density and gradient :       1.0000000000

  Evaluating partitioned Hartree potential by multipole expansion.
  | Original multipole sum: apparent total charge =  -0.110425E-13
  | Sum of charges compensated after spline to logarithmic grids =  -0.685384E-06
  | Analytical far-field extrapolation by fixed multipoles:
  | Hartree multipole sum: apparent total charge =   0.000000E+00
  Summing up the Hartree potential.
  Time summed over all CPUs for potential: real work        0.029 s, elapsed        0.038 s
  | RMS charge density error from multipole expansion :   0.483928E-02
  | Average real-space part of the electrostatic potential :     -0.37393871 eV

  Integrating Hamiltonian matrix: batch-based integration.
  Time summed over all CPUs for integration: real work        0.327 s, elapsed        0.367 s

  Updating Kohn-Sham eigenvalues and eigenvectors using ELSI and the (modified) LAPACK eigensolver.
  Starting LAPACK eigensolver
  Finished Cholesky decomposition
  | Time :     0.000 s
  Finished transformation to standard eigenproblem
  | Time :     0.000 s
  Finished solving standard eigenproblem
  | Time :     0.000 s
  Finished back-transformation of eigenvectors
  | Time :     0.000 s

  Obtaining occupation numbers and electronic chemical potential using ELSI.
  | Note that, for insulating systems, the printed 'chemical potential' value is not uniquely defined.
  | It can be anywhere in the energy gap, as long as it correctly separates occupied and unoccupied states.
  | In systems with a gap, the physically relevant chemical potential is the VBM or HOMO.

  | Chemical potential (Fermi level):    -6.03083749 eV
  What follows are estimated values for band gap, HOMO, LUMO, etc.
  | They are estimated on a discrete k-point grid and not necessarily exact.
[...]
  | ---------------------------
  | Total energy                  :        -242.15744418 Ha       -6589.43932321 eV
  | Total energy, T -> 0          :        -242.15747569 Ha       -6589.44018044 eV  <-- do not rely on this value for anything but (periodic) metals
  | Electronic free energy        :        -242.15750719 Ha       -6589.44103768 eV

  Derived energy quantities:
  | Kinetic energy                :         242.34144659 Ha        6594.44628333 eV
  | Electrostatic energy          :        -466.78186190 Ha      -12701.78072183 eV
  | Energy correction for multipole
  | error in Hartree potential    :           0.00071221 Ha           0.01938030 eV
  | Sum of eigenvalues per atom                           :       -3687.69253296 eV
  | Total energy (T->0) per atom                          :       -6589.44018044 eV  <-- do not rely on this value for anything but (periodic) metals
  | Electronic free energy per atom                       :       -6589.44103768 eV
  Evaluating new KS density using the density matrix
  Evaluating density matrix
  Time summed over all CPUs for getting density from density matrix: real work        0.234 s, elapsed        0.302 s
  
  Evaluating density-matrix-based force terms: batch-based integration
  Evaluating density matrix
  Evaluating density matrix
  Integration grid: deviation in total charge (<rho> - N_e) =  -2.131628E-13

  atomic forces [eV/Ang]:
  -----------------------
  atom #    1
   Hellmann-Feynman              : -0.492146E-11 -0.316361E-11  0.130678E-11
   Ionic forces                  :  0.000000E+00  0.000000E+00  0.000000E+00
   Multipole                     :  0.230492E-12  0.260751E-12  0.736159E-13
   Hartree pot. SCF incomplete   : -0.442745E-12 -0.375236E-11  0.494974E-11
   Pulay                         : -0.439912E-08  0.643061E-10  0.634000E-08
   ----------------------------------------------------------------
   Total forces(   1)            : -0.440426E-08  0.576509E-10  0.634633E-08


  Analytical stress tensor components [eV]         xx                  yy                  zz                  xy                  xz                  yz
  -----------------------------------------------------------------------------------------------------------------------------------------------------------
    Nuclear Hellmann-Feynman      :    -0.5521899819E+01   -0.5521959867E+01   -0.5521959869E+01   -0.7114382696E-06   -0.7105353380E-06    0.1421118157E-05
    Multipole Hellmann-Feynman    :    -0.2617915757E+02   -0.2617911160E+02   -0.2617911160E+02   -0.1241972016E-05   -0.1240392383E-05    0.2484186758E-05
    On-site Multipole corrections :    -0.1145437149E+00   -0.1145437258E+00   -0.1145437258E+00    0.4533297640E-09    0.4552632492E-09   -0.9080613048E-09
    Strain deriv. of the orbitals :     0.3181509657E+02    0.3181510516E+02    0.3181510516E+02    0.1502024625E-05    0.1500170532E-05   -0.3005654336E-05
  -----------------------------------------------------------------------------------------------------------------------------------------------------------
  Sum of all contributions        :    -0.5045380355E-03   -0.5100274267E-03   -0.5100290576E-03   -0.4509323309E-06   -0.4503019264E-06    0.8987425174E-06

  +-------------------------------------------------------------------+
  |              Analytical stress tensor - Symmetrized               |
  |                  Cartesian components [eV/A**3]                   |
  +-------------------------------------------------------------------+
  |                x                y                z                |
  |                                                                   |
  |  x        -0.00003179      -0.00000003      -0.00000003           |
  |  y        -0.00000003      -0.00003214       0.00000006           |
  |  z        -0.00000003       0.00000006      -0.00003214           |
  |                                                                   |
  |  Pressure:       0.00003202   [eV/A**3]                           |
  |                                                                   |
  +-------------------------------------------------------------------+

 * Warning: Stress tensor is anisotropic. Be aware that pressure is an isotropic quantity.


  Self-consistency convergence accuracy:
  | Change of charge density      :  0.1116E-07
  | Change of unmixed KS density  :  0.7817E-08
  | Change of sum of eigenvalues  : -0.1806E-05 eV
  | Change of total energy        : -0.1508E-09 eV
  | Change of forces              :  0.3653E-11 eV/A

  Writing Kohn-Sham eigenvalues.
  K-point:       1 at    0.000000    0.000000    0.000000 (in units of recip. lattice)

  State    Occupation    Eigenvalue [Ha]    Eigenvalue [eV]
      1       2.00000         -55.414436        -1507.90354
      2       2.00000          -3.985255         -108.44429
      3       2.00000          -2.595264          -70.62072
      4       2.00000          -2.595264          -70.62072
      5       2.00000          -2.595264          -70.62072
      6       2.00000          -0.634340          -17.26126
      7       0.00000           0.256543            6.98090
      8       0.00000           0.256544            6.98091
      9       0.00000           0.256544            6.98091
     10       0.00000           0.336030            9.14383

  What follows are estimated values for band gap, HOMO, LUMO, etc.
  | They are estimated on a discrete k-point grid and not necessarily exact.
  | For converged numbers, create a DOS and/or band structure plot on a denser k-grid.

  Highest occupied state (VBM) at     -6.11685950 eV (relative to internal zero)
  | Occupation number:      1.87920618
  | K-point:     767 at    0.750000    0.166667    0.250000 (in units of recip. lattice)

  Lowest unoccupied state (CBM) at    -5.93529409 eV (relative to internal zero)
  | Occupation number:      0.30949970
  | K-point:     151 at    0.083333    0.666667    0.500000 (in units of recip. lattice)

  ESTIMATED overall HOMO-LUMO gap:      0.18156541 eV between HOMO at k-point 767 and LUMO at k-point 151
  | This appears to be an indirect band gap.
  | Smallest direct gap :      1.01761305 eV for k_point 376 at    0.250000    0.750000    0.500000 (in units of recip. lattice)
  However, this system has fractional occupation numbers. Since we use a finite k-point grid,
  this material is metallic within the approximate finite broadening function (occupation_type)
  applied to determine the occupation numbers.

  | Chemical Potential                          :    -6.00715540 eV
  | Note that, for insulating systems, the printed 'chemical potential' value is not uniquely defined.
  | It can be anywhere in the energy gap, as long as it correctly separates occupied and unoccupied states.
  | In systems with a gap, the physically relevant chemical potential is the VBM or HOMO.

  Self-consistency cycle converged.


------------------------------------------------------------
  End self-consistency iteration #     7       :  max(cpu_time)    wall_clock(cpu1)
  | Time for this iteration                     :        3.175 s           3.176 s
  | Charge density & force component update     :        2.525 s           2.525 s
  | Density mixing                              :        0.000 s           0.000 s
  | Hartree multipole update                    :        0.000 s           0.001 s
  | Hartree multipole summation                 :        0.241 s           0.241 s
  | Hartree pot. SCF incomplete forces          :        0.242 s           0.242 s
  | Integration                                 :        0.082 s           0.082 s
  | Solution of K.-S. eqns.                     :        0.083 s           0.083 s
  | Total energy evaluation                     :        0.000 s           0.000 s

  Partial memory accounting:
  | Current value for overall tracked memory usage:
  |   Minimum:        2.003 MB (on task 3)
  |   Maximum:        2.012 MB (on task 0)
  |   Average:        2.007 MB
  | Peak value for overall tracked memory usage:
  |   Minimum:       14.477 MB (on task 2 after allocating d_wave)
  |   Maximum:       15.482 MB (on task 0 after allocating d_wave)
  |   Average:       15.058 MB
  | Largest tracked array allocation so far:
  |   Minimum:        2.876 MB (hamiltonian_shell on task 2)
  |   Maximum:        3.038 MB (hamiltonian_shell on task 0)
  |   Average:        2.959 MB
  Note:  These values currently only include a subset of arrays which are explicitly tracked.
  The "true" memory usage will be greater.
------------------------------------------------------------
  Removing unitary transformations (pure translations, rotations) from forces on atoms.
  Atomic forces before filtering:
  | Net force on center of mass :  -0.440426E-08  0.576509E-10  0.634633E-08 eV/A
  Atomic forces after filtering:
  | Net force on center of mass :   0.000000E+00  0.000000E+00  0.000000E+00 eV/A

  Energy and forces in a compact form:
  | Total energy uncorrected      :         -0.658943932320720E+04 eV
  | Total energy corrected        :         -0.658944018044189E+04 eV  <-- do not rely on this value for anything but (periodic) metals
  | Electronic free energy        :         -0.658944103767659E+04 eV
  Total atomic forces (unitary forces cleaned) [eV/Ang]:
  |    1          0.000000000000000E+00          0.000000000000000E+00          0.000000000000000E+00

  ------------------------------------ 
  Start decomposition of the XC Energy 
  ------------------------------------ 
  X and C from original XC functional choice 
  Hartree-Fock Energy :          0.000000000 Ha              0.000000000 eV
  X Energy            :        -16.727278763 Ha           -455.172414063 eV
  C Energy            :         -0.989750104 Ha            -26.932470645 eV
  XC Energy w/o HF    :        -17.717028867 Ha           -482.104884708 eV
  Total XC Energy     :        -17.717028867 Ha           -482.104884708 eV
  ------------------------------------ 
  LDA X and C from self-consistent density 
  X Energy LDA        :        -16.727278763 Ha           -455.172414063 eV
  C Energy LDA        :         -0.989750104 Ha            -26.932470645 eV
  ------------------------------------ 
  End decomposition of the XC Energy 
  ------------------------------------ 

------------------------------------------------------------
  Relaxation / MD: End force evaluation.       :  max(cpu_time)    wall_clock(cpu1)
  | Time for this force evaluation              :        5.822 s           5.822 s

------------------------------------------------------------
  Geometry optimization: Attempting to predict improved coordinates.

  +-------------------------------------------------------------------+
  | Generalized derivatives on lattice vectors [eV/A]                 |
  +-------------------------------------------------------------------+
  |lattice_vector      -0.00012648      -0.00012819       0.00012797  |
  |lattice_vector       0.00012625      -0.00012752      -0.00012752  |
  |lattice_vector      -0.00012648       0.00012797      -0.00012819  |
  +-------------------------------------------------------------------+
  | Forces on lattice vectors cleaned from atomic contributions [eV/A]|
  +-------------------------------------------------------------------+
  |lattice_vector       0.00012648       0.00012819      -0.00012797  |
  |lattice_vector      -0.00012625       0.00012752       0.00012752  |
  |lattice_vector       0.00012648      -0.00012797       0.00012819  |
  +-------------------------------------------------------------------+
  Removing unitary transformations (pure translations, rotations) from forces on atoms.
  Atomic forces before filtering:
  | Net force on center of mass :   0.000000E+00  0.000000E+00  0.000000E+00 eV/A
  Atomic forces after filtering:
  | Net force on center of mass :   0.000000E+00  0.000000E+00  0.000000E+00 eV/A
  Net remaining forces (excluding translations, rotations) in present geometry:
  || Forces on atoms   || =   0.000000E+00 eV/A.
  || Forces on lattice || =   0.128193E-03 eV/A^3.
  Maximum force component is  0.128193E-03 eV/A.
  Present geometry is converged.

------------------------------------------------------------
  Final atomic structure:
                         x [A]             y [A]             z [A]
  lattice_vector         1.99456569        1.99456597       -0.00000026
  lattice_vector         0.00000053        1.99456646        1.99456646
  lattice_vector         1.99456569       -0.00000026        1.99456597

            atom         0.00000000        0.00000000        0.00000000  Al

  Fractional coordinates:
                         L1                L2                L3
       atom_frac         0.00000000        0.00000000        0.00000000  Al
------------------------------------------------------------

------------------------------------------------------------------------------
  Final output of selected total energy values:

  The following output summarizes some interesting total energy values
  at the end of a run (AFTER all relaxation, molecular dynamics, etc.).

  | Total energy of the DFT / Hartree-Fock s.c.f. calculation      :          -6589.439323207 eV
  | Final zero-broadening corrected energy (caution - metals only) :          -6589.440180442 eV
  | For reference only, the value of 1 Hartree used in FHI-aims is :             27.211384500 eV
  | For reference only, the overall average (free atom contribution
  | + realspace contribution) of the electrostatic potential after
  | s.c.f. convergence is                                          :            -16.371185901 eV

  Before relying on these values, please be sure to understand exactly which
  total energy value is referred to by a given number. Different objects may
  all carry the same name 'total energy'. Definitions:

  Total energy of the DFT / Hartree-Fock s.c.f. calculation:
  | Note that this energy does not include ANY quantities calculated after the
  | s.c.f. cycle, in particular not ANY RPA, MP2, etc. many-body perturbation terms.

  Final zero-broadening corrected energy:
  | For metallic systems only, a broadening of the occupation numbers at the Fermi
  | level can be extrapolated back to zero broadening by an electron-gas inspired
  | formula. For all systems that are not real metals, this value can be
  | meaningless and should be avoided.

------------------------------------------------------------------------------
  Methods described in the following list of references were used in this FHI-aims run.
  If you publish the results, please make sure to cite these reference if they apply.
  FHI-aims is an academic code, and for our developers (often, Ph.D. students
  and postdocs), scientific credit in the community is essential.
  Thank you for helping us!

  For any use of FHI-aims, please cite:

    Volker Blum, Ralf Gehrke, Felix Hanke, Paula Havu, Ville Havu,
    Xinguo Ren, Karsten Reuter, and Matthias Scheffler
    'Ab initio molecular simulations with numeric atom-centered orbitals'
    Computer Physics Communications 180, 2175-2196 (2009)
    http://doi.org/10.1016/j.cpc.2009.06.022


  For the analytical stress tensor used in your run, please cite:

    Franz Knuth, Christian Carbogno, Viktor Atalla, Volker Blum, Matthias Scheffler
    'All-electron formalism for total energy strain derivatives and
    stress tensor components for numeric atom-centered orbitals'
    Computer Physics Communications 190, 33-50 (2015).
    http://doi.org/10.1016/j.cpc.2015.01.003


  The provided symmetry information was generated with SPGlib:

    Atsushi Togo, Yusuke Seto, Dimitar Pashov
    SPGlib 1.7.3 obtained from http://spglib.sourceforge.net
    Licence: New BSD license
    Copyright (C) 2008 Atsushi Togo


  The ELSI infrastructure was used in your run to solve the Kohn-Sham electronic structure.
  Please check out http://elsi-interchange.org to learn more.
  If scalability is important for your project, please acknowledge ELSI by citing:

    V. W-z. Yu, F. Corsetti, A. Garcia, W. P. Huhn, M. Jacquelin, W. Jia,
    B. Lange, L. Lin, J. Lu, W. Mi, A. Seifitokaldani, A. Vazquez-Mayagoitia,
    C. Yang, H. Yang, and V. Blum
    'ELSI: A unified software interface for Kohn-Sham electronic structure solvers'
    Computer Physics Communications 222, 267-285 (2018).
    http://doi.org/10.1016/j.cpc.2017.09.007


  For the real-space grid partitioning and parallelization used in this calculation, please cite:

    Ville Havu, Volker Blum, Paula Havu, and Matthias Scheffler,
    'Efficient O(N) integration for all-electron electronic structure calculation'
    'using numerically tabulated basis functions'
    Journal of Computational Physics 228, 8367-8379 (2009).
    http://doi.org/10.1016/j.jcp.2009.08.008

  Of course, there are many other important community references, e.g., those cited in the
  above references. Our list is limited to references that describe implementations in the
  FHI-aims code. The reason is purely practical (length of this list) - please credit others as well.

------------------------------------------------------------
          Leaving FHI-aims.
          Date     :  20231208, Time     :  112451.500

          Computational steps:
          | Number of self-consistency cycles          :           24
          | Number of SCF (re)initializations          :            3
          | Number of relaxation steps                 :            2

          Detailed time accounting                     :  max(cpu_time)    wall_clock(cpu1)
          | Total time                                  :       18.937 s          18.940 s
          | Preparation time                            :        0.114 s           0.114 s
          | Boundary condition initalization            :        0.249 s           0.250 s
          | Grid partitioning                           :        0.025 s           0.025 s
          | Preloading free-atom quantities on grid     :        0.190 s           0.189 s
          | Free-atom superposition energy              :        0.025 s           0.025 s
          | Total time for integrations                 :        2.410 s           2.410 s
          | Total time for solution of K.-S. equations  :        2.091 s           2.089 s
          | Total time for EV reorthonormalization      :        0.034 s           0.019 s
          | Total time for density & force components   :       10.044 s          10.044 s
          | Total time for mixing                       :        0.005 s           0.007 s
          | Total time for Hartree multipole update     :        0.013 s           0.012 s
          | Total time for Hartree multipole sum        :        2.196 s           2.197 s
          | Total time for total energy evaluation      :        0.003 s           0.002 s
          | Total time NSC force correction             :        1.429 s           1.429 s
          | Total time for scaled ZORA corrections      :        0.000 s           0.000 s

          Partial memory accounting:
          | Residual value for overall tracked memory usage across tasks:     0.000000 MB (should be 0.000000 MB)
          | Peak values for overall tracked memory usage:
          |   Minimum:       14.477 MB (on task 2 after allocating d_wave)
          |   Maximum:       15.482 MB (on task 0 after allocating d_wave)
          |   Average:       15.058 MB
          | Largest tracked array allocation:
          |   Minimum:        2.876 MB (hamiltonian_shell on task 2)
          |   Maximum:        3.038 MB (hamiltonian_shell on task 0)
          |   Average:        2.959 MB
          Note:  These values currently only include a subset of arrays which are explicitly tracked.
          The "true" memory usage will be greater.

          Have a nice day.
------------------------------------------------------------
