 *******************************************************************************
 ** Site#: 30659        For non-commercial use only    Version 20.225L 64BITS **
 *******************************************************************************
 ** Cite this program as: MOPAC2016, Version: 20.225L, James J. P. Stewart,   **
 ** Stewart Computational Chemistry, web: HTTP://OpenMOPAC.net. Days left: 284**
 *******************************************************************************
 **                                                                           **
 **                                MOPAC2016                                  **
 **                                                                           **
 *******************************************************************************

                              PM7 CALCULATION RESULTS

 *******************************************************************************
 *  CALCULATION DONE:                                Mon Nov  2 11:19:17 2020  *
 *  PM7        - The PM7 Hamiltonian to be used
 *  SINGLET    - SPIN STATE DEFINED AS A SINGLET
 *
 *
 *
 *                 CHARGE ON SYSTEM = 0
 *
 *
 *
 *  T=         - A TIME OF 172800.0 SECONDS REQUESTED
 *  DUMP=N     - RESTART FILE WRITTEN EVERY 7200.0 SECONDS REQUESTED
 *  AUX        - OUTPUT AUXILIARY INFORMATION
 *  LARGE      - EXPANDED OUTPUT TO BE PRINTED
 *  GRAPH      - GENERATE FILE FOR GRAPHICS
 *  ALLVEC     - PRINT ALL EIGENVECTORS
 *******************************************************************************
 AUX LARGE CHARGE=0 SINGLET  PM7 GRAPHF ALLVEC
 1,4-dinitrocyklohexan

   ATOM   CHEMICAL          X               Y               Z
  NUMBER   SYMBOL      (ANGSTROMS)     (ANGSTROMS)     (ANGSTROMS)
 
     1       C         17.32756000  * -10.34661000  *  -0.66033000  *
     2       C         17.28658000  * -10.73290000  *  -2.14534000  *
     3       C         16.76721000  *  -8.92608000  *  -0.45021000  *
     4       C         18.09715000  *  -9.72761000  *  -2.99775000  *
     5       C         17.57777000  *  -7.92079000  *  -1.30263000  *
     6       C         17.53680000  *  -8.30708000  *  -2.78763000  *
     7       N         16.78881000  *  -8.59029000  *   0.96670000  *
     8       O         16.10142000  *  -9.32196000  *   1.81756000  *
     9       O         17.40072000  *  -7.64766000  *   1.37261000  *
    10       N         18.07557000  * -10.06340000  *  -4.41466000  *
    11       O         18.76298000  *  -9.33175000  *  -5.26551000  *
    12       O         17.46366000  * -11.00603000  *  -4.82058000  *
    13       H         18.37780000  * -10.39142000  *  -0.29534000  *
    14       H         16.72736000  * -11.08199000  *  -0.08202000  *
    15       H         17.70783000  * -11.75473000  *  -2.26515000  *
    16       H         16.22728000  * -10.74795000  *  -2.48655000  *
    17       H         15.70901000  *  -8.90078000  *  -0.79536000  *
    18       H         19.15534000  *  -9.75291000  *  -2.65259000  *
    19       H         17.15651000  *  -6.89896000  *  -1.18282000  *
    20       H         18.63707000  *  -7.90573000  *  -0.96142000  *
    21       H         16.48656000  *  -8.26228000  *  -3.15264000  *
    22       H         18.13700000  *  -7.57171000  *  -3.36594000  *
 


          CARTESIAN COORDINATES 

    NO.       ATOM           X           Y           Z

     1         C         17.3276    -10.3466     -0.6603
     2         C         17.2866    -10.7329     -2.1453
     3         C         16.7672     -8.9261     -0.4502
     4         C         18.0971     -9.7276     -2.9977
     5         C         17.5778     -7.9208     -1.3026
     6         C         17.5368     -8.3071     -2.7876
     7         N         16.7888     -8.5903      0.9667
     8         O         16.1014     -9.3220      1.8176
     9         O         17.4007     -7.6477      1.3726
    10         N         18.0756    -10.0634     -4.4147
    11         O         18.7630     -9.3317     -5.2655
    12         O         17.4637    -11.0060     -4.8206
    13         H         18.3778    -10.3914     -0.2953
    14         H         16.7274    -11.0820     -0.0820
    15         H         17.7078    -11.7547     -2.2652
    16         H         16.2273    -10.7479     -2.4866
    17         H         15.7090     -8.9008     -0.7954
    18         H         19.1553     -9.7529     -2.6526
    19         H         17.1565     -6.8990     -1.1828
    20         H         18.6371     -7.9057     -0.9614
    21         H         16.4866     -8.2623     -3.1526
    22         H         18.1370     -7.5717     -3.3659

 General Reference for PM7:
 "Optimization of Parameters for Semiempirical Methods VI: More Modifications to the 
 NDDO Approximations and Re-optimization of Parameters", J. J. P. Stewart, J. Mol. Mod., 1:32, 19 (2013)
 https://link.springer.com/article/10.1007/s00894-012-1667-x

           Empirical Formula: C6 H10 N2 O4  =    22 atoms



      MOLECULAR POINT GROUP   :   Ci  


 SINGLET STATE CALCULATION


      RHF CALCULATION, NO. OF DOUBLY OCCUPIED LEVELS = 34


          Geometry optimization using EF

          DIAGONAL MATRIX USED AS START HESSIAN

 CYCLE:     1 TIME:   0.031 TIME LEFT:  2.00D  GRAD.:   270.155 HEAT: -21.38879
 CYCLE:     2 TIME:   0.020 TIME LEFT:  2.00D  GRAD.:    46.375 HEAT: -35.96095
 CYCLE:     3 TIME:   0.035 TIME LEFT:  2.00D  GRAD.:    49.207 HEAT: -36.42012
 CYCLE:     4 TIME:   0.008 TIME LEFT:  2.00D  GRAD.:    17.807 HEAT: -37.22024
 CYCLE:     5 TIME:   0.016 TIME LEFT:  2.00D  GRAD.:    30.362 HEAT: -37.59302
 CYCLE:     6 TIME:   0.020 TIME LEFT:  2.00D  GRAD.:    25.146 HEAT: -37.81261
 CYCLE:     7 TIME:   0.020 TIME LEFT:  2.00D  GRAD.:    12.523 HEAT: -38.00172
 CYCLE:     8 TIME:   0.020 TIME LEFT:  2.00D  GRAD.:    16.195 HEAT: -38.02887
 CYCLE:     9 TIME:   0.012 TIME LEFT:  2.00D  GRAD.:    14.696 HEAT: -38.05396
 CYCLE:    10 TIME:   0.016 TIME LEFT:  2.00D  GRAD.:     8.295 HEAT: -38.10949
 CYCLE:    11 TIME:   0.020 TIME LEFT:  2.00D  GRAD.:     9.713 HEAT: -38.12149
 CYCLE:    12 TIME:   0.012 TIME LEFT:  2.00D  GRAD.:    10.115 HEAT: -38.13747
 CYCLE:    13 TIME:   0.012 TIME LEFT:  2.00D  GRAD.:     6.810 HEAT: -38.14895
 CYCLE:    14 TIME:   0.012 TIME LEFT:  2.00D  GRAD.:     2.737 HEAT: -38.17019
 CYCLE:    15 TIME:   0.020 TIME LEFT:  2.00D  GRAD.:     3.714 HEAT: -38.17134
 CYCLE:    16 TIME:   0.020 TIME LEFT:  2.00D  GRAD.:     4.182 HEAT: -38.17484
 CYCLE:    17 TIME:   0.008 TIME LEFT:  2.00D  GRAD.:     3.530 HEAT: -38.17502
 CYCLE:    18 TIME:   0.012 TIME LEFT:  2.00D  GRAD.:     2.587 HEAT: -38.17973
 CYCLE:    19 TIME:   0.012 TIME LEFT:  2.00D  GRAD.:     4.242 HEAT: -38.17617
 CYCLE:    20 TIME:   0.008 TIME LEFT:  2.00D  GRAD.:     3.347 HEAT: -38.18051
 CYCLE:    21 TIME:   0.008 TIME LEFT:  2.00D  GRAD.:     2.042 HEAT: -38.18289
 CYCLE:    22 TIME:   0.008 TIME LEFT:  2.00D  GRAD.:     0.902 HEAT: -38.18509

     GRADIENT =  0.90241 IS LESS THAN CUTOFF =  1.00000



 -------------------------------------------------------------------------------
 AUX LARGE CHARGE=0 SINGLET  PM7 GRAPHF ALLVEC
 1,4-dinitrocyklohexan



     GEOMETRY OPTIMISED USING EIGENVECTOR FOLLOWING (EF).     
     SCF FIELD WAS ACHIEVED                                   


                              PM7 CALCULATION
                                                       MOPAC2016 (Version: 20.225L)
                                                       Mon Nov  2 11:19:17 2020
                                                       No. of days remaining = 284




          FINAL HEAT OF FORMATION =        -38.18509 KCAL/MOL =    -159.76640 KJ/MOL


          TOTAL ENERGY            =      -2420.65255 EV
          ELECTRONIC ENERGY       =     -12380.31478 EV  POINT GROUP:     Ci  
          CORE-CORE REPULSION     =       9959.66223 EV
          COSMO AREA              =        187.30 SQUARE ANGSTROMS
          COSMO VOLUME            =        194.80 CUBIC ANGSTROMS

          GRADIENT NORM           =          0.90241 = 0.19239 PER ATOM
          IONIZATION POTENTIAL    =         11.191547 EV
          HOMO LUMO ENERGIES (EV) =        -11.192 -0.348
          NO. OF FILLED LEVELS    =         34
          MOLECULAR WEIGHT        =        174.1560

          MOLECULAR DIMENSIONS (Angstroms)

            Atom       Atom       Distance
            O    11    O     8     7.35487
            H    15    H    19     4.86572
            H    20    H    16     2.82692


          SCF CALCULATIONS        =         31
 
          WALL-CLOCK TIME         =          0.383 SECONDS
          COMPUTATION TIME        =          5.731 SECONDS




   ATOM   CHEMICAL          X               Y               Z
  NUMBER   SYMBOL      (ANGSTROMS)     (ANGSTROMS)     (ANGSTROMS)
 
     1       C         17.32888721  * -10.35991656  *  -0.67141925  *
     2       C         17.29073675  * -10.73560033  *  -2.15297342  *
     3       C         16.76208904  *  -8.94119702  *  -0.48933547  *
     4       C         18.10253463  *  -9.71209551  *  -2.95857604  *
     5       C         17.57384054  *  -7.91788712  *  -1.29493367  *
     6       C         17.53564412  *  -8.29354701  *  -2.77640887  *
     7       N         16.78091592  *  -8.60115807  *   0.97376068  *
     8       O         16.13727560  *  -9.31991823  *   1.71763430  *
     9       O         17.42416177  *  -7.63576134  *   1.34027974  *
    10       N         18.08343500  * -10.05255465  *  -4.42178199  *
    11       O         18.72624079  *  -9.33423928  *  -5.16648693  *
    12       O         17.44047679  * -11.01848454  *  -4.78740045  *
    13       H         18.36382452  * -10.42145831  *  -0.27923171  *
    14       H         16.74323571  * -11.09131665  *  -0.07421532  *
    15       H         17.68823017  * -11.76055276  *  -2.30438405  *
    16       H         16.24494915  * -10.78506711  *  -2.52242084  *
    17       H         15.68492075  *  -8.91882350  *  -0.81013316  *
    18       H         19.17971234  *  -9.73459311  *  -2.63795565  *
    19       H         17.17602098  *  -6.89286834  *  -1.14363954  *
    20       H         18.61958539  *  -7.86813505  *  -0.92552358  *
    21       H         16.50056776  *  -8.23224547  *  -3.16853729  *
    22       H         18.12102567  *  -7.56217025  *  -3.37418755  *

                             CARTESIAN COORDINATES

   1    C       17.328887209   -10.359916559    -0.671419253
   2    C       17.290736747   -10.735600331    -2.152973415
   3    C       16.762089041    -8.941197018    -0.489335474
   4    C       18.102534626    -9.712095510    -2.958576040
   5    C       17.573840542    -7.917887119    -1.294933668
   6    C       17.535644122    -8.293547013    -2.776408874
   7    N       16.780915921    -8.601158071     0.973760679
   8    O       16.137275605    -9.319918229     1.717634295
   9    O       17.424161774    -7.635761335     1.340279736
  10    N       18.083435001   -10.052554651    -4.421781992
  11    O       18.726240789    -9.334239284    -5.166486931
  12    O       17.440476791   -11.018484543    -4.787400450
  13    H       18.363824517   -10.421458307    -0.279231710
  14    H       16.743235711   -11.091316646    -0.074215320
  15    H       17.688230171   -11.760552758    -2.304384050
  16    H       16.244949152   -10.785067106    -2.522420836
  17    H       15.684920750    -8.918823504    -0.810133163
  18    H       19.179712343    -9.734593110    -2.637955651
  19    H       17.176020978    -6.892868338    -1.143639538
  20    H       18.619585387    -7.868135047    -0.925523581
  21    H       16.500567759    -8.232245473    -3.168537291
  22    H       18.121025668    -7.562170249    -3.374187545


           Empirical Formula: C6 H10 N2 O4  =    22 atoms



      MOLECULAR POINT GROUP   :   Ci  


                EIGENVECTORS  


   Root No.       1         2         3         4         5         6         7         8

                 1 ag      1 au      2 ag      2 au      3 ag      3 au      4 au      4 ag  

               -37.512   -37.492   -31.645   -30.996   -30.957   -28.319   -27.242   -25.999
  
  S   C    1    0.0566    0.0394    0.3280    0.0486   -0.0506   -0.1638    0.3921    0.1455
  Px  C    1   -0.0076   -0.0106   -0.0085   -0.0118    0.0124    0.0430   -0.0063    0.0193
  Py  C    1    0.0287    0.0275    0.0653   -0.0035   -0.0107   -0.0898   -0.0747   -0.0507
  Pz  C    1    0.0095    0.0259   -0.0781   -0.0004   -0.0089   -0.0795   -0.0666   -0.0812
  S   C    2    0.0573   -0.0328    0.3306    0.0621    0.0001    0.1543    0.3909    0.1461
  Px  C    2    0.0124   -0.0127    0.0267    0.0009    0.0024    0.0552    0.0036   -0.0237
  Py  C    2    0.0194   -0.0080    0.0915   -0.0011   -0.0087    0.0321   -0.0330   -0.0012
  Pz  C    2   -0.0226    0.0332    0.0354   -0.0091   -0.0255   -0.1111    0.0945    0.0932
  S   C    3    0.1543    0.1507    0.3313    0.0038   -0.0367   -0.3792   -0.0093   -0.1211
  Px  C    3    0.0064    0.0028    0.0638   -0.0336    0.0272   -0.0158   -0.0112    0.0478
  Py  C    3    0.0213    0.0256   -0.0261   -0.0574    0.0498   -0.0092   -0.1914   -0.0498
  Pz  C    3    0.0971    0.1140   -0.0927    0.0159   -0.0070   -0.0560    0.0484   -0.1824
  S   C    4    0.1641   -0.1398    0.3313   -0.0060   -0.0361    0.3793    0.0092   -0.1211
  Px  C    4   -0.0066    0.0024   -0.0639   -0.0344   -0.0258   -0.0158   -0.0112   -0.0478
  Py  C    4   -0.0230    0.0241    0.0260   -0.0593   -0.0476   -0.0091   -0.1913    0.0499
  Pz  C    4   -0.1046    0.1071    0.0927    0.0157    0.0063   -0.0560    0.0484    0.1824
  S   C    5    0.0549    0.0367    0.3305   -0.0631    0.0023   -0.1544   -0.3909    0.1461
  Px  C    5   -0.0115   -0.0135   -0.0267    0.0008   -0.0024    0.0553    0.0036    0.0237
  Py  C    5   -0.0188   -0.0093   -0.0915   -0.0005    0.0088    0.0321   -0.0330    0.0012
  Pz  C    5    0.0203    0.0347   -0.0355   -0.0080    0.0257   -0.1112    0.0944   -0.0932
  S   C    6    0.0591   -0.0354    0.3280   -0.0515   -0.0486    0.1639   -0.3919    0.1455
  Px  C    6    0.0083   -0.0101    0.0085   -0.0123   -0.0119    0.0430   -0.0063   -0.0193
  Py  C    6   -0.0304    0.0255   -0.0654   -0.0029    0.0107   -0.0898   -0.0747    0.0507
  Pz  C    6   -0.0112    0.0252    0.0781   -0.0003    0.0089   -0.0795   -0.0665    0.0812
  S   N    7    0.5325    0.5737   -0.0636    0.0017    0.0028   -0.0530   -0.0019   -0.1942
  Px  N    7    0.0003   -0.0002    0.0276   -0.2061    0.2140   -0.0050    0.0402    0.0084
  Py  N    7    0.0087    0.0099   -0.0125   -0.2734    0.2875    0.0655    0.0070    0.0483
  Pz  N    7    0.0395    0.0450   -0.1487    0.0584   -0.0448    0.2872    0.0025    0.2606
  S   O    8    0.1760    0.1908   -0.1428    0.3887   -0.3942    0.2550   -0.0757    0.3667
  Px  O    8    0.1008    0.1089   -0.0401    0.0637   -0.0627    0.0400    0.0020    0.0071
  Py  O    8    0.1128    0.1222   -0.0572    0.0616   -0.0593    0.0657   -0.0167    0.0163
  Pz  O    8   -0.1131   -0.1219    0.0189   -0.1107    0.1144    0.0275    0.0050    0.0675
  S   O    9    0.1775    0.1920   -0.0758   -0.3939    0.4234    0.2482    0.0778    0.3435
  Px  O    9   -0.1008   -0.1091    0.0347    0.0636   -0.0701   -0.0431   -0.0019    0.0024
  Py  O    9   -0.1508   -0.1628    0.0377    0.1028   -0.1117   -0.0448   -0.0176    0.0111
  Pz  O    9   -0.0546   -0.0584   -0.0230    0.0738   -0.0740    0.0555    0.0079    0.0680
  S   N   10    0.5702   -0.5361   -0.0634   -0.0012    0.0031    0.0532    0.0018   -0.1943
  Px  N   10   -0.0003   -0.0002   -0.0282   -0.2138   -0.2060   -0.0047    0.0402   -0.0086
  Py  N   10   -0.0093    0.0093    0.0118   -0.2841   -0.2770    0.0659    0.0070   -0.0485
  Pz  N   10   -0.0426    0.0423    0.1489    0.0600    0.0432    0.2871    0.0025   -0.2605
  S   O   11    0.1888   -0.1786   -0.1439   -0.4029   -0.3795   -0.2546    0.0757    0.3665
  Px  O   11   -0.1079    0.1018    0.0402    0.0658    0.0602    0.0399    0.0020   -0.0071
  Py  O   11   -0.1209    0.1143    0.0574    0.0635    0.0569    0.0657   -0.0167   -0.0163
  Pz  O   11    0.1213   -0.1141   -0.0192   -0.1149   -0.1102    0.0276    0.0050   -0.0676
  S   O   12    0.1901   -0.1795   -0.0747    0.4097    0.4081   -0.2486   -0.0777    0.3436
  Px  O   12    0.1080   -0.1019   -0.0344    0.0663    0.0676   -0.0431   -0.0019   -0.0025
  Py  O   12    0.1616   -0.1522   -0.0374    0.1071    0.1079   -0.0448   -0.0176   -0.0111
  Pz  O   12    0.0583   -0.0544    0.0233    0.0764    0.0712    0.0555    0.0079   -0.0680
  S   H   13    0.0259    0.0178    0.1331    0.0157   -0.0181   -0.0638    0.1638    0.0627
  S   H   14    0.0236    0.0199    0.1103    0.0283   -0.0271   -0.0754    0.1844    0.0560
  S   H   15    0.0236   -0.0167    0.1127    0.0306    0.0069    0.0711    0.1859    0.0565
  S   H   16    0.0264   -0.0152    0.1325    0.0306    0.0039    0.0594    0.1573    0.0625
  S   H   17    0.0518    0.0481    0.1321    0.0147   -0.0274   -0.1455   -0.0074   -0.0420
  S   H   18    0.0549   -0.0445    0.1321   -0.0161   -0.0266    0.1456    0.0074   -0.0420
  S   H   19    0.0224    0.0183    0.1126   -0.0306    0.0080   -0.0711   -0.1859    0.0565
  S   H   20    0.0253    0.0170    0.1324   -0.0309    0.0051   -0.0594   -0.1573    0.0625
  S   H   21    0.0270   -0.0160    0.1331   -0.0168   -0.0174    0.0638   -0.1637    0.0627
  S   H   22    0.0249   -0.0182    0.1103   -0.0296   -0.0259    0.0754   -0.1842    0.0560


   Root No.       9        10        11        12        13        14        15        16

                 5 au      5 ag      6 ag      6 au      7 ag      8 ag      7 au      8 au  

               -23.745   -22.238   -21.496   -20.907   -19.021   -18.441   -18.380   -18.169
  
  S   C    1   -0.1743    0.3221   -0.1066    0.1673   -0.0515    0.0019    0.1061    0.0283
  Px  C    1    0.0247   -0.0143   -0.0510    0.2043    0.0006    0.0762   -0.1009   -0.0116
  Py  C    1   -0.0612    0.0024    0.1856   -0.0213    0.2177    0.1257    0.0197   -0.0564
  Pz  C    1   -0.0784    0.1791    0.0655    0.1131   -0.1591    0.0468    0.0488   -0.0733
  S   C    2    0.1722   -0.2975   -0.1672   -0.1810   -0.0528   -0.0168   -0.1126    0.0292
  Px  C    2    0.0317   -0.0253    0.0732    0.2098    0.0651   -0.0370   -0.1036   -0.0795
  Py  C    2    0.0112    0.0677    0.1345    0.0369    0.2639    0.1123    0.0238   -0.0417
  Pz  C    2   -0.0992    0.1718   -0.1125    0.0809    0.0372   -0.0982    0.0191    0.0919
  S   C    3   -0.1967   -0.0315    0.2909   -0.1747    0.1078   -0.0067    0.0506    0.0292
  Px  C    3   -0.0409   -0.0067   -0.0845    0.2721    0.0098    0.2745   -0.0570    0.0112
  Py  C    3    0.0354   -0.2714   -0.0157   -0.0200   -0.0639   -0.0126   -0.0730    0.1014
  Pz  C    3    0.1236    0.0670    0.0224    0.0468   -0.2783    0.0369   -0.2901   -0.0825
  S   C    4    0.1967   -0.0315    0.2908    0.1748    0.1078   -0.0066   -0.0506   -0.0291
  Px  C    4   -0.0409    0.0067    0.0845    0.2721   -0.0099   -0.2743   -0.0579    0.0116
  Py  C    4    0.0355    0.2714    0.0157   -0.0200    0.0639    0.0130   -0.0730    0.1013
  Pz  C    4    0.1236   -0.0670   -0.0224    0.0468    0.2783   -0.0361   -0.2902   -0.0823
  S   C    5   -0.1723   -0.2974   -0.1673    0.1809   -0.0529   -0.0171    0.1125   -0.0292
  Px  C    5    0.0318    0.0253   -0.0732    0.2099   -0.0651    0.0373   -0.1036   -0.0797
  Py  C    5    0.0112   -0.0677   -0.1345    0.0368   -0.2639   -0.1124    0.0233   -0.0416
  Pz  C    5   -0.0992   -0.1718    0.1125    0.0809   -0.0372    0.0983    0.0194    0.0918
  S   C    6    0.1744    0.3221   -0.1066   -0.1673   -0.0515    0.0022   -0.1061   -0.0284
  Px  C    6    0.0248    0.0143    0.0510    0.2044   -0.0006   -0.0759   -0.1012   -0.0115
  Py  C    6   -0.0613   -0.0024   -0.1856   -0.0213   -0.2178   -0.1258    0.0193   -0.0563
  Pz  C    6   -0.0785   -0.1791   -0.0656    0.1131    0.1592   -0.0470    0.0487   -0.0732
  S   N    7    0.2288    0.0098   -0.1193    0.0258   -0.0028    0.0040   -0.0359   -0.0061
  Px  N    7   -0.0145    0.0434   -0.0299    0.1287   -0.0138    0.3452   -0.0621    0.1136
  Py  N    7    0.0039   -0.0698   -0.0382   -0.0357    0.0710   -0.0036    0.0597    0.3159
  Pz  N    7   -0.0306    0.0347   -0.1914    0.0832    0.2665   -0.0478    0.3746   -0.0157
  S   O    8   -0.3555   -0.1071    0.2142   -0.0184   -0.1172    0.1996   -0.1902    0.2385
  Px  O    8    0.0574    0.0486   -0.1080    0.0791    0.0905    0.0376    0.1417   -0.1604
  Py  O    8    0.0785   -0.0113   -0.1202   -0.0049    0.1626   -0.2002    0.2324   -0.0567
  Pz  O    8   -0.0716   -0.0326    0.0142    0.0325    0.0396    0.1878    0.0130    0.2581
  S   O    9   -0.3409    0.0617    0.2652   -0.1240   -0.1165   -0.1612   -0.0958   -0.2757
  Px  O    9   -0.0718    0.0239    0.0932    0.0170   -0.1142    0.0733   -0.1348   -0.2010
  Py  O    9   -0.0935   -0.0182    0.1446   -0.0981   -0.1191   -0.2244   -0.1029   -0.2053
  Pz  O    9   -0.0280    0.0497   -0.0172   -0.0121    0.1091   -0.1171    0.1705   -0.1662
  S   N   10   -0.2288    0.0099   -0.1193   -0.0258   -0.0029    0.0039    0.0360    0.0061
  Px  N   10   -0.0145   -0.0434    0.0300    0.1288    0.0136   -0.3450   -0.0631    0.1141
  Py  N   10    0.0039    0.0697    0.0383   -0.0357   -0.0712    0.0040    0.0600    0.3159
  Pz  N   10   -0.0307   -0.0347    0.1912    0.0832   -0.2665    0.0467    0.3747   -0.0159
  S   O   11    0.3555   -0.1072    0.2143    0.0185   -0.1172    0.1986    0.1908   -0.2389
  Px  O   11    0.0573   -0.0486    0.1079    0.0792   -0.0905   -0.0387    0.1415   -0.1601
  Py  O   11    0.0785    0.0112    0.1202   -0.0048   -0.1627    0.1993    0.2332   -0.0568
  Pz  O   11   -0.0718    0.0326   -0.0144    0.0324   -0.0396   -0.1876    0.0123    0.2587
  S   O   12    0.3410    0.0616    0.2650    0.1240   -0.1165   -0.1610    0.0954    0.2761
  Px  O   12   -0.0717   -0.0239   -0.0930    0.0171    0.1141   -0.0733   -0.1349   -0.2008
  Py  O   12   -0.0935    0.0182   -0.1445   -0.0981    0.1191    0.2245   -0.1021   -0.2059
  Pz  O   12   -0.0279   -0.0498    0.0174   -0.0120   -0.1092    0.1161    0.1709   -0.1662
  S   H   13   -0.0804    0.1741   -0.0694    0.2214   -0.0677    0.0497    0.0005   -0.0079
  S   H   14   -0.0881    0.2027   -0.0821    0.0580   -0.1672   -0.0596    0.0894    0.0142
  S   H   15    0.0872   -0.1890   -0.1232   -0.0657   -0.1656   -0.0749   -0.0907    0.0125
  S   H   16    0.0808   -0.1537   -0.0960   -0.2216   -0.0804    0.0296    0.0066    0.0448
  S   H   17   -0.0882   -0.0238    0.1711   -0.2464    0.0891   -0.1734    0.1136    0.0250
  S   H   18    0.0882   -0.0238    0.1710    0.2465    0.0891   -0.1731   -0.1141   -0.0247
  S   H   19   -0.0872   -0.1889   -0.1232    0.0656   -0.1656   -0.0752    0.0904   -0.0124
  S   H   20   -0.0808   -0.1536   -0.0961    0.2216   -0.0805    0.0295   -0.0066   -0.0449
  S   H   21    0.0804    0.1741   -0.0693   -0.2214   -0.0677    0.0497   -0.0003    0.0078
  S   H   22    0.0881    0.2027   -0.0821   -0.0580   -0.1672   -0.0593   -0.0896   -0.0141


   Root No.      17        18        19        20        21        22        23        24

                 9 ag      9 au     10 ag     11 ag     10 au     11 au     12 au     12 ag  

               -17.785   -17.330   -16.333   -15.821   -15.250   -14.677   -14.461   -14.167
  
  S   C    1   -0.0813   -0.0726    0.0188   -0.0399    0.0571   -0.0532   -0.0410   -0.0265
  Px  C    1   -0.0665   -0.1137    0.4088   -0.0414   -0.2043    0.0153   -0.0294    0.0143
  Py  C    1    0.1072    0.1331    0.0052   -0.1326   -0.2455   -0.3541    0.0717    0.0755
  Pz  C    1   -0.0344    0.0001    0.0288    0.0155    0.1268    0.1253    0.4225    0.4038
  S   C    2    0.0816    0.0397   -0.0067   -0.0165   -0.0582   -0.0529   -0.0384   -0.0256
  Px  C    2   -0.1383   -0.0808    0.3127    0.2162   -0.1090   -0.1185    0.0861   -0.0551
  Py  C    2    0.0172   -0.0675    0.0245   -0.1618    0.3309   -0.3337   -0.1529   -0.1153
  Pz  C    2   -0.0713   -0.0747   -0.0402    0.0467   -0.0565    0.0548   -0.4035   -0.3888
  S   C    3   -0.0108    0.0808   -0.0180    0.0723   -0.1778   -0.0066    0.0039    0.1019
  Px  C    3    0.1285    0.0698    0.1308   -0.2680   -0.1569    0.0430   -0.0495    0.0248
  Py  C    3   -0.0755   -0.1008    0.1923    0.0627    0.0044    0.3582   -0.1777   -0.0163
  Pz  C    3    0.0287   -0.0442   -0.0187   -0.0757    0.1063   -0.0798    0.0517   -0.0420
  S   C    4   -0.0107   -0.0809   -0.0180    0.0724    0.1778    0.0067   -0.0044    0.1019
  Px  C    4   -0.1285    0.0694   -0.1307    0.2682   -0.1571    0.0428   -0.0493   -0.0252
  Py  C    4    0.0756   -0.1006   -0.1924   -0.0629    0.0042    0.3582   -0.1777    0.0151
  Pz  C    4   -0.0285   -0.0443    0.0189    0.0757    0.1062   -0.0798    0.0515    0.0422
  S   C    5    0.0816   -0.0395   -0.0068   -0.0165    0.0583    0.0529    0.0385   -0.0254
  Px  C    5    0.1386   -0.0805   -0.3126   -0.2164   -0.1090   -0.1185    0.0859    0.0555
  Py  C    5   -0.0172   -0.0676   -0.0245    0.1618    0.3308   -0.3336   -0.1535    0.1149
  Pz  C    5    0.0714   -0.0745    0.0402   -0.0469   -0.0566    0.0551   -0.4054    0.3868
  S   C    6   -0.0814    0.0725    0.0188   -0.0399   -0.0572    0.0531    0.0412   -0.0264
  Px  C    6    0.0667   -0.1137   -0.4085    0.0412   -0.2044    0.0154   -0.0294   -0.0146
  Py  C    6   -0.1072    0.1329   -0.0052    0.1328   -0.2456   -0.3542    0.0719   -0.0750
  Pz  C    6    0.0344    0.0001   -0.0287   -0.0154    0.1270    0.1249    0.4245   -0.4018
  S   N    7    0.0042   -0.0047    0.0054   -0.0239    0.0206    0.0031   -0.0019   -0.0791
  Px  N    7    0.0731    0.3834   -0.0591    0.2456    0.0718    0.0121   -0.0185   -0.0357
  Py  N    7   -0.3492   -0.1992   -0.0847   -0.1198   -0.0280   -0.0708    0.0866    0.0511
  Pz  N    7    0.0659    0.0720   -0.0078    0.0969   -0.0475    0.0079   -0.0245    0.1561
  S   O    8   -0.1793    0.0369   -0.0524    0.0053    0.0195   -0.0242    0.0298   -0.0302
  Px  O    8    0.2467    0.2305    0.0471    0.2054    0.0193    0.0859   -0.1098    0.0536
  Py  O    8   -0.0094   -0.1909    0.0465   -0.1321   -0.1218   -0.0106   -0.0345    0.1533
  Pz  O    8   -0.1726    0.1002   -0.0799    0.0896   -0.0262   -0.0433    0.0257    0.1217
  S   O    9    0.1839   -0.0472    0.0695   -0.0343   -0.0106    0.0273   -0.0235   -0.0243
  Px  O    9    0.2620    0.2088    0.0581    0.1472    0.0494    0.0860   -0.1210   -0.0921
  Py  O    9    0.0693   -0.2415    0.0993   -0.2021   -0.0385    0.0176   -0.0303   -0.0088
  Pz  O    9    0.1427    0.0343    0.0437    0.0655   -0.0799    0.0346    0.0202    0.1332
  S   N   10    0.0042    0.0047    0.0054   -0.0239   -0.0206   -0.0031    0.0023   -0.0791
  Px  N   10   -0.0737    0.3835    0.0591   -0.2455    0.0718    0.0121   -0.0186    0.0356
  Py  N   10    0.3494   -0.1987    0.0846    0.1196   -0.0279   -0.0707    0.0867   -0.0507
  Pz  N   10   -0.0661    0.0719    0.0077   -0.0969   -0.0473    0.0078   -0.0237   -0.1562
  S   O   11   -0.1793   -0.0371   -0.0524    0.0053   -0.0195    0.0241   -0.0296   -0.0304
  Px  O   11   -0.2469    0.2305   -0.0470   -0.2057    0.0194    0.0857   -0.1094   -0.0543
  Py  O   11    0.0097   -0.1908   -0.0464    0.1318   -0.1218   -0.0107   -0.0338   -0.1539
  Pz  O   11    0.1727    0.1004    0.0800   -0.0896   -0.0260   -0.0435    0.0264   -0.1216
  S   O   12    0.1839    0.0474    0.0695   -0.0342    0.0107   -0.0273    0.0236   -0.0242
  Px  O   12   -0.2622    0.2086   -0.0580   -0.1472    0.0493    0.0860   -0.1213    0.0912
  Py  O   12   -0.0693   -0.2414   -0.0993    0.2017   -0.0385    0.0177   -0.0305    0.0085
  Pz  O   12   -0.1426    0.0343   -0.0435   -0.0656   -0.0799    0.0345    0.0211   -0.1330
  S   H   13   -0.0901   -0.1087    0.2665   -0.0328   -0.0636    0.0298    0.0632    0.1036
  S   H   14   -0.0713   -0.0518   -0.1259    0.0621    0.2664    0.1844    0.1195    0.1004
  S   H   15    0.0020    0.0522    0.0595    0.1388   -0.2662    0.1607    0.1447    0.0895
  S   H   16    0.1348    0.0847   -0.1870   -0.1442    0.0431    0.0497    0.0246    0.1246
  S   H   17   -0.0898    0.0059   -0.0867    0.2266   -0.0008   -0.0119    0.0231    0.0559
  S   H   18   -0.0898   -0.0062   -0.0866    0.2268    0.0007    0.0119   -0.0234    0.0558
  S   H   19    0.0020   -0.0523    0.0594    0.1388    0.2661   -0.1606   -0.1452    0.0890
  S   H   20    0.1350   -0.0845   -0.1870   -0.1443   -0.0432   -0.0498   -0.0252    0.1245
  S   H   21   -0.0903    0.1086    0.2664   -0.0328    0.0637   -0.0298   -0.0636    0.1033
  S   H   22   -0.0713    0.0516   -0.1257    0.0621   -0.2665   -0.1843   -0.1202    0.0999


   Root No.      25        26        27        28        29        30        31        32

                13 au     14 au     13 ag     14 ag     15 au     15 ag     16 ag     16 au  

               -13.583   -13.306   -12.525   -12.428   -11.647   -11.640   -11.614   -11.582
  
  S   C    1    0.0228   -0.0157    0.0264   -0.0175   -0.0068   -0.0077   -0.0175    0.0018
  Px  C    1   -0.2732   -0.3239   -0.3251   -0.0325    0.0009    0.0341    0.0129    0.0118
  Py  C    1    0.1079   -0.0897   -0.0266   -0.3325    0.0028    0.0030   -0.0106   -0.0073
  Pz  C    1    0.0157   -0.0874    0.0403    0.0624   -0.0077   -0.0095    0.0154   -0.0591
  S   C    2   -0.0252   -0.0175    0.0278    0.0090    0.0064   -0.0018    0.0252   -0.0136
  Px  C    2   -0.2103    0.3698    0.3128   -0.0695    0.0292   -0.0395   -0.0011   -0.0109
  Py  C    2   -0.0649   -0.1069    0.0109    0.3385   -0.0085    0.0131    0.0158    0.0054
  Pz  C    2    0.0224    0.1321   -0.0383   -0.0936    0.0056    0.0046   -0.0262    0.0595
  S   C    3   -0.0157    0.0023    0.0523   -0.0085    0.0085   -0.0098    0.0042   -0.0012
  Px  C    3    0.4057   -0.0469    0.2823   -0.0108   -0.0109   -0.0327    0.0248    0.0270
  Py  C    3   -0.0689   -0.0987    0.0292    0.3482   -0.0012    0.0004    0.0313    0.0289
  Pz  C    3    0.0077    0.0057   -0.0250   -0.0849    0.0079   -0.0109    0.0112   -0.0119
  S   C    4    0.0157   -0.0023    0.0524   -0.0086   -0.0077   -0.0104    0.0041    0.0012
  Px  C    4    0.4055   -0.0469   -0.2823    0.0106   -0.0135    0.0316   -0.0246    0.0271
  Py  C    4   -0.0691   -0.0988   -0.0293   -0.3481   -0.0012   -0.0005   -0.0311    0.0288
  Pz  C    4    0.0076    0.0058    0.0252    0.0850    0.0071    0.0115   -0.0106   -0.0122
  S   C    5    0.0252    0.0175    0.0278    0.0090   -0.0062   -0.0024    0.0251    0.0136
  Px  C    5   -0.2102    0.3696   -0.3128    0.0696    0.0259    0.0418    0.0011   -0.0107
  Py  C    5   -0.0652   -0.1069   -0.0108   -0.3386   -0.0073   -0.0137   -0.0157    0.0052
  Pz  C    5    0.0224    0.1322    0.0382    0.0934    0.0060   -0.0042    0.0262    0.0591
  S   C    6   -0.0228    0.0157    0.0264   -0.0174    0.0073   -0.0071   -0.0174   -0.0018
  Px  C    6   -0.2733   -0.3240    0.3251    0.0326    0.0036   -0.0339   -0.0129    0.0116
  Py  C    6    0.1080   -0.0897    0.0268    0.3325    0.0031   -0.0028    0.0105   -0.0072
  Pz  C    6    0.0157   -0.0874   -0.0402   -0.0623   -0.0085    0.0089   -0.0154   -0.0587
  S   N    7    0.0149   -0.0046   -0.0015    0.0009    0.0006   -0.0002   -0.0006   -0.0012
  Px  N    7   -0.0776   -0.0025   -0.0252   -0.0022   -0.0004    0.0019    0.0140    0.0150
  Py  N    7    0.0240    0.0163    0.0015   -0.0244   -0.0031   -0.0007    0.0192    0.0172
  Pz  N    7   -0.0297    0.0133    0.0038    0.0053   -0.0019    0.0030   -0.0074   -0.0012
  S   O    8   -0.0060   -0.0010   -0.0056   -0.0094   -0.0007   -0.0008    0.0146    0.0128
  Px  O    8   -0.0735   -0.0237    0.0282    0.0572    0.4040    0.4185   -0.1871   -0.1537
  Py  O    8    0.0671    0.0038    0.0311    0.0054   -0.2421   -0.3109   -0.3285   -0.3637
  Pz  O    8   -0.0577   -0.0093    0.0127   -0.0229    0.1091    0.0508   -0.2813   -0.3128
  S   O    9    0.0135   -0.0089    0.0065    0.0085    0.0018   -0.0008   -0.0132   -0.0140
  Px  O    9   -0.0794    0.0032   -0.0786    0.0792   -0.3637   -0.4017   -0.2054   -0.2263
  Py  O    9    0.1185   -0.0262    0.0857    0.0013    0.2922    0.2962   -0.1664   -0.1443
  Pz  O    9   -0.0431   -0.0219    0.0255   -0.0027   -0.0804   -0.0991    0.4507    0.4034
  S   N   10   -0.0149    0.0046   -0.0015    0.0009   -0.0006   -0.0002   -0.0007    0.0013
  Px  N   10   -0.0775   -0.0025    0.0252    0.0023   -0.0004   -0.0019   -0.0140    0.0150
  Py  N   10    0.0240    0.0163   -0.0014    0.0244   -0.0031    0.0003   -0.0192    0.0173
  Pz  N   10   -0.0297    0.0133   -0.0038   -0.0053   -0.0017   -0.0032    0.0072   -0.0010
  S   O   11    0.0060    0.0010   -0.0056   -0.0094    0.0008   -0.0007    0.0145   -0.0128
  Px  O   11   -0.0737   -0.0238   -0.0282   -0.0571    0.4372   -0.3838    0.1865   -0.1549
  Py  O   11    0.0669    0.0039   -0.0311   -0.0055   -0.2660    0.2907    0.3290   -0.3637
  Pz  O   11   -0.0578   -0.0092   -0.0126    0.0230    0.1133   -0.0409    0.2812   -0.3132
  S   O   12   -0.0135    0.0089    0.0065    0.0085   -0.0017   -0.0009   -0.0132    0.0140
  Px  O   12   -0.0794    0.0033    0.0785   -0.0791   -0.3954    0.3714    0.2053   -0.2255
  Py  O   12    0.1182   -0.0262   -0.0856   -0.0014    0.3155   -0.2709    0.1658   -0.1452
  Pz  O   12   -0.0432   -0.0219   -0.0253    0.0028   -0.0887    0.0913   -0.4494    0.4040
  S   H   13   -0.1813   -0.2599   -0.2337    0.0039   -0.0060    0.0217    0.0040   -0.0064
  S   H   14    0.0715    0.1295    0.1804    0.2088   -0.0049   -0.0185    0.0066   -0.0155
  S   H   15   -0.0285    0.1512    0.0999   -0.2583    0.0127   -0.0182   -0.0027   -0.0155
  S   H   16    0.1305   -0.3009   -0.2254    0.0709   -0.0156    0.0260    0.0126   -0.0073
  S   H   17   -0.3077    0.0340   -0.2060    0.0320    0.0085    0.0232   -0.0170   -0.0175
  S   H   18    0.3076   -0.0339   -0.2060    0.0319   -0.0103    0.0223   -0.0168    0.0175
  S   H   19    0.0284   -0.1513    0.1000   -0.2584   -0.0111   -0.0192   -0.0027    0.0153
  S   H   20   -0.1305    0.3008   -0.2254    0.0709    0.0135    0.0271    0.0125    0.0073
  S   H   21    0.1813    0.2600   -0.2337    0.0037    0.0043    0.0221    0.0041    0.0065
  S   H   22   -0.0714   -0.1294    0.1804    0.2089    0.0064   -0.0180    0.0065    0.0153


   Root No.      33        34        35        36        37        38        39        40

                17 au     17 ag     35 ????   36 ????   18 au     18 ag     19 au     19 ag  

               -11.291   -11.192    -0.348    -0.347     0.186     0.383     2.199     2.413
  
  S   C    1   -0.0165    0.0087   -0.0684    0.0252   -0.0445    0.0207    0.1123    0.0525
  Px  C    1   -0.0354    0.0242    0.0453   -0.0123   -0.0038    0.0051   -0.0903   -0.0994
  Py  C    1   -0.0480   -0.0493   -0.1273    0.0439    0.0357   -0.0215    0.2840    0.2809
  Pz  C    1    0.0035   -0.1065   -0.0090    0.0038    0.0971   -0.0490    0.0233    0.1677
  S   C    2    0.0163    0.0152    0.0067   -0.0031    0.0493    0.0146    0.1318   -0.0781
  Px  C    2    0.0102   -0.0444   -0.0018   -0.0003   -0.0000   -0.0113    0.1612   -0.1738
  Py  C    2    0.0519    0.0170    0.0042   -0.0044    0.0234   -0.0012    0.2384   -0.1836
  Pz  C    2    0.0137    0.1170    0.0267   -0.0052    0.0943    0.0512   -0.1544    0.3066
  S   C    3    0.0591    0.0575    0.0266   -0.0140    0.1392    0.1716    0.0045    0.0191
  Px  C    3    0.0180    0.0049    0.0054   -0.0081    0.0059    0.0297    0.0603    0.0728
  Py  C    3    0.0632    0.0633   -0.0392    0.0065    0.1035    0.0955    0.4511    0.4222
  Pz  C    3    0.2501    0.2410    0.0114    0.0060    0.3934    0.3861   -0.1204   -0.1248
  S   C    4   -0.0591    0.0574   -0.0052   -0.0296   -0.1396    0.1713   -0.0047    0.0206
  Px  C    4    0.0182   -0.0050   -0.0032    0.0092    0.0060   -0.0297    0.0606   -0.0743
  Py  C    4    0.0634   -0.0633   -0.0188   -0.0351    0.1037   -0.0952    0.4512   -0.4216
  Pz  C    4    0.2505   -0.2408    0.0117    0.0053    0.3944   -0.3854   -0.1206    0.1254
  S   C    5   -0.0164    0.0151   -0.0016   -0.0072   -0.0494    0.0145   -0.1316   -0.0782
  Px  C    5    0.0102    0.0445   -0.0014   -0.0013   -0.0000    0.0113    0.1608    0.1729
  Py  C    5    0.0520   -0.0170   -0.0010    0.0060    0.0235    0.0012    0.2382    0.1832
  Pz  C    5    0.0138   -0.1171    0.0122    0.0243    0.0945   -0.0510   -0.1541   -0.3043
  S   C    6    0.0165    0.0088    0.0218    0.0695    0.0445    0.0208   -0.1121    0.0523
  Px  C    6   -0.0354   -0.0242    0.0179    0.0434   -0.0038   -0.0051   -0.0902    0.0987
  Py  C    6   -0.0481    0.0492   -0.0429   -0.1275    0.0356    0.0216    0.2838   -0.2790
  Pz  C    6    0.0034    0.1066   -0.0025   -0.0094    0.0970    0.0492    0.0234   -0.1660
  S   N    7    0.0371    0.0537   -0.0136    0.0011   -0.3451   -0.3509    0.0054    0.0020
  Px  N    7   -0.0002    0.0005    0.5384   -0.1837   -0.0123   -0.0088    0.0996    0.0811
  Py  N    7   -0.0223   -0.0294   -0.3932    0.1339    0.0278    0.0206    0.0187    0.0287
  Pz  N    7   -0.1020   -0.1258    0.0914   -0.0293    0.0806    0.0584   -0.0004   -0.0094
  S   O    8    0.0177    0.0199    0.0001   -0.0001    0.0219    0.0260    0.0166    0.0174
  Px  O    8    0.0210    0.0637   -0.3548    0.1217    0.1534    0.1610    0.0012    0.0118
  Py  O    8    0.1513    0.1368    0.2676   -0.0903    0.1539    0.1658    0.0446    0.0401
  Pz  O    8    0.4125    0.4340   -0.0621    0.0202   -0.1814   -0.1862   -0.0582   -0.0565
  S   O    9    0.0170    0.0212    0.0013   -0.0004    0.0221    0.0262   -0.0179   -0.0158
  Px  O    9   -0.0295   -0.0336   -0.3687    0.1242   -0.1373   -0.1477    0.0091    0.0142
  Py  O    9    0.0317    0.0718    0.2520   -0.0886   -0.2276   -0.2364    0.0739    0.0596
  Pz  O    9    0.4574    0.4032   -0.0643    0.0217   -0.0965   -0.0981    0.0305    0.0271
  S   N   10   -0.0372    0.0537    0.0074    0.0114    0.3458   -0.3501   -0.0053    0.0015
  Px  N   10   -0.0003   -0.0005    0.1830    0.5390   -0.0122    0.0086    0.0995   -0.0808
  Py  N   10   -0.0224    0.0295   -0.1337   -0.3929    0.0278   -0.0206    0.0188   -0.0289
  Pz  N   10   -0.1022    0.1257    0.0325    0.0903    0.0808   -0.0583   -0.0006    0.0102
  S   O   11   -0.0178    0.0199    0.0000   -0.0002   -0.0220    0.0259   -0.0166    0.0176
  Px  O   11    0.0210   -0.0637   -0.1201   -0.3556    0.1534   -0.1604    0.0012   -0.0123
  Py  O   11    0.1511   -0.1367    0.0917    0.2669    0.1542   -0.1653    0.0446   -0.0405
  Pz  O   11    0.4122   -0.4329   -0.0219   -0.0615   -0.1822    0.1861   -0.0583    0.0568
  S   O   12   -0.0170    0.0212   -0.0005   -0.0012   -0.0221    0.0261    0.0179   -0.0157
  Px  O   12   -0.0297    0.0335   -0.1266   -0.3680   -0.1375    0.1472    0.0091   -0.0139
  Py  O   12    0.0318   -0.0718    0.0835    0.2536   -0.2281    0.2358    0.0739   -0.0589
  Pz  O   12    0.4587   -0.4031   -0.0221   -0.0641   -0.0966    0.0977    0.0304   -0.0271
  S   H   13   -0.0359   -0.0088   -0.0048    0.0022   -0.0274   -0.0144   -0.0125    0.0131
  S   H   14    0.0256   -0.0370   -0.0109    0.0005   -0.0123   -0.0316    0.1232    0.0002
  S   H   15   -0.0226   -0.0389   -0.0192    0.0024    0.0146   -0.0309    0.1178   -0.0065
  S   H   16    0.0031    0.0014    0.0059   -0.0008    0.0278   -0.0171   -0.0020   -0.0225
  S   H   17   -0.0447   -0.0343    0.1058   -0.0355    0.0000   -0.0071    0.0241    0.0228
  S   H   18    0.0449   -0.0344   -0.0364   -0.1055   -0.0000   -0.0071   -0.0242    0.0230
  S   H   19    0.0226   -0.0390    0.0098    0.0167   -0.0145   -0.0309   -0.1179   -0.0072
  S   H   20   -0.0031    0.0015   -0.0029   -0.0051   -0.0278   -0.0172    0.0020   -0.0222
  S   H   21    0.0360   -0.0087    0.0012    0.0052    0.0275   -0.0144    0.0125    0.0129
  S   H   22   -0.0256   -0.0371    0.0062    0.0089    0.0124   -0.0316   -0.1233    0.0007


   Root No.      41        42        43        44        45        46        47        48

                20 au     20 ag     21 ag     21 au     22 ag     22 au     23 ag     23 au  

                 2.470     2.666     3.045     3.218     3.693     3.833     4.159     4.202
  
  S   C    1   -0.0023    0.1174   -0.2238   -0.1659    0.0106    0.0922    0.0041   -0.1028
  Px  C    1   -0.1035   -0.1275    0.0948    0.1559    0.0309   -0.0003    0.0862   -0.0529
  Py  C    1    0.2672    0.3110   -0.0577   -0.1032   -0.0133    0.0290    0.0991   -0.1439
  Pz  C    1    0.2754    0.0592    0.4118    0.2628    0.0040   -0.2161   -0.0102    0.0588
  S   C    2    0.0076    0.1528    0.2065    0.1668    0.0249   -0.0970    0.0076    0.0996
  Px  C    2   -0.1356    0.1712    0.0817    0.1622   -0.0027   -0.0234   -0.0281   -0.0114
  Py  C    2   -0.0705    0.2232    0.1824    0.1575    0.0130   -0.1244    0.1264    0.1785
  Pz  C    2    0.3623   -0.0779    0.3603    0.1962    0.0354   -0.1777   -0.0338   -0.0217
  S   C    3   -0.2210   -0.2714    0.0286    0.1009    0.0608    0.0349   -0.3183    0.3652
  Px  C    3   -0.2289   -0.3289    0.0109    0.2706    0.1460    0.0505    0.2229   -0.1463
  Py  C    3    0.0599    0.1178   -0.1435   -0.0636    0.0408    0.0719   -0.0375    0.0151
  Pz  C    3    0.0990    0.1918    0.0003   -0.0247    0.2902    0.3182    0.0473   -0.0523
  S   C    4    0.2209   -0.2715    0.0284   -0.1009    0.0606   -0.0349   -0.3160   -0.3671
  Px  C    4   -0.2282    0.3289   -0.0107    0.2705   -0.1460    0.0507   -0.2220   -0.1477
  Py  C    4    0.0626   -0.1182    0.1436   -0.0639   -0.0406    0.0719    0.0375    0.0153
  Pz  C    4    0.0980   -0.1917   -0.0004   -0.0249   -0.2894    0.3187   -0.0469   -0.0525
  S   C    5   -0.0069    0.1529    0.2062   -0.1670    0.0252    0.0970    0.0081   -0.0996
  Px  C    5   -0.1368   -0.1712   -0.0815    0.1623    0.0027   -0.0233    0.0283   -0.0116
  Py  C    5   -0.0718   -0.2234   -0.1822    0.1578   -0.0133   -0.1245   -0.1276    0.1783
  Pz  C    5    0.3644    0.0778   -0.3601    0.1964   -0.0359   -0.1777    0.0339   -0.0214
  S   C    6    0.0020    0.1175   -0.2237    0.1661    0.0105   -0.0923    0.0034    0.1030
  Px  C    6   -0.1041    0.1276   -0.0948    0.1563   -0.0309   -0.0003   -0.0865   -0.0541
  Py  C    6    0.2689   -0.3114    0.0576   -0.1032    0.0134    0.0290   -0.0985   -0.1448
  Pz  C    6    0.2764   -0.0593   -0.4114    0.2631   -0.0046   -0.2161    0.0100    0.0591
  S   N    7    0.0771    0.0026   -0.0068    0.0608    0.0776    0.0503   -0.0275    0.0273
  Px  N    7    0.0216    0.0375   -0.0707   -0.0228   -0.0043   -0.0005    0.0311   -0.0239
  Py  N    7   -0.0133   -0.0652   -0.0339    0.1041    0.1280    0.0822    0.0513   -0.0142
  Pz  N    7    0.1262    0.0585   -0.0175    0.1397    0.4322    0.3901   -0.1838    0.1993
  S   O    8   -0.0274   -0.0159   -0.0109   -0.0150   -0.0556   -0.0526    0.0379   -0.0344
  Px  O    8   -0.0924   -0.0567   -0.0029   -0.0331   -0.1358   -0.1263    0.0908   -0.0831
  Py  O    8   -0.0814   -0.0138   -0.0187   -0.0837   -0.1935   -0.1651    0.0936   -0.0932
  Pz  O    8    0.0584    0.0328    0.0411    0.0095    0.0400    0.0397   -0.0556    0.0411
  S   O    9   -0.0192    0.0017    0.0192   -0.0339   -0.0645   -0.0503    0.0017   -0.0108
  Px  O    9    0.0452   -0.0252   -0.0199    0.1033    0.1649    0.1241   -0.0138    0.0328
  Py  O    9    0.0934    0.0151   -0.0609    0.1013    0.2055    0.1623   -0.0271    0.0471
  Pz  O    9    0.0001   -0.0205   -0.0317    0.0162   -0.0302   -0.0421    0.0518   -0.0424
  S   N   10   -0.0771    0.0026   -0.0069   -0.0608    0.0776   -0.0506   -0.0274   -0.0275
  Px  N   10    0.0222   -0.0376    0.0707   -0.0229    0.0040   -0.0002   -0.0304   -0.0238
  Py  N   10   -0.0130    0.0650    0.0341    0.1041   -0.1283    0.0830   -0.0505   -0.0141
  Pz  N   10    0.1260   -0.0585    0.0175    0.1395   -0.4314    0.3908    0.1826    0.2004
  S   O   11    0.0272   -0.0159   -0.0110    0.0150   -0.0555    0.0527    0.0375    0.0346
  Px  O   11   -0.0922    0.0567    0.0029   -0.0331    0.1355   -0.1265   -0.0900   -0.0834
  Py  O   11   -0.0810    0.0137    0.0187   -0.0837    0.1932   -0.1655   -0.0929   -0.0937
  Pz  O   11    0.0581   -0.0328   -0.0411    0.0096   -0.0401    0.0398    0.0551    0.0414
  S   O   12    0.0193    0.0017    0.0192    0.0339   -0.0645    0.0505    0.0018    0.0109
  Px  O   12    0.0452    0.0252    0.0200    0.1032   -0.1647    0.1245    0.0138    0.0330
  Py  O   12    0.0938   -0.0152    0.0610    0.1012   -0.2055    0.1630    0.0272    0.0475
  Pz  O   12    0.0003    0.0204    0.0317    0.0161    0.0302   -0.0421   -0.0513   -0.0426
  S   H   13    0.0362    0.0371   -0.0955   -0.1616   -0.0559   -0.0019   -0.1118    0.1047
  S   H   14   -0.0821    0.0231   -0.0545    0.0201   -0.0103    0.0656    0.1340   -0.0801
  S   H   15    0.0864    0.0260    0.0439   -0.0413   -0.0103   -0.0561    0.1331    0.0946
  S   H   16   -0.0409    0.0481    0.0784    0.1504   -0.0269    0.0019   -0.0746   -0.0959
  S   H   17   -0.0305   -0.0918   -0.0113    0.2157    0.1953    0.1157    0.4419   -0.3989
  S   H   18    0.0303   -0.0917   -0.0114   -0.2155    0.1951   -0.1161    0.4394    0.4015
  S   H   19   -0.0864    0.0263    0.0440    0.0412   -0.0102    0.0563    0.1339   -0.0944
  S   H   20    0.0411    0.0481    0.0783   -0.1505   -0.0268   -0.0019   -0.0751    0.0959
  S   H   21   -0.0363    0.0372   -0.0954    0.1619   -0.0560    0.0020   -0.1117   -0.1061
  S   H   22    0.0821    0.0232   -0.0544   -0.0202   -0.0105   -0.0656    0.1342    0.0816


   Root No.      49        50        51        52        53        54        55        56

                24 ag     24 au     25 ag     25 au     26 ag     26 au     27 ag     27 au  

                 4.407     4.453     4.601     4.684     4.742     4.786     5.259     5.312
  
  S   C    1   -0.0584   -0.0310   -0.0363    0.0365    0.0280    0.0090    0.3378    0.4068
  Px  C    1   -0.3054   -0.2734    0.1628   -0.0412   -0.1784    0.2911    0.0989    0.0465
  Py  C    1   -0.1301   -0.1507    0.0865    0.0205   -0.0173    0.0502   -0.1040   -0.1584
  Pz  C    1    0.0518    0.0294   -0.0666    0.0217    0.0085   -0.0233    0.1729    0.1665
  S   C    2    0.0458    0.0360   -0.0316    0.0234    0.0513   -0.0121    0.1646   -0.0069
  Px  C    2   -0.1994   -0.1180   -0.2528    0.2499    0.1383   -0.2307   -0.1224   -0.0151
  Py  C    2    0.1764    0.0783    0.0867   -0.2219   -0.1723    0.0540   -0.0576   -0.0057
  Pz  C    2   -0.0198   -0.0428   -0.0204    0.0316   -0.0074   -0.0089   -0.1222   -0.1035
  S   C    3   -0.0202   -0.0410    0.0637    0.0600   -0.1182    0.0298   -0.0405   -0.0109
  Px  C    3    0.0232    0.1385   -0.0231   -0.1797    0.1741   -0.0996   -0.0617   -0.0175
  Py  C    3   -0.0117   -0.0440    0.0775    0.0120    0.0512   -0.1072    0.0227    0.0835
  Pz  C    3    0.0125    0.0443   -0.0218   -0.0203   -0.0057    0.0229   -0.0314   -0.0004
  S   C    4   -0.0219    0.0414    0.0637   -0.0590   -0.1187   -0.0281   -0.0407    0.0101
  Px  C    4   -0.0266    0.1387    0.0226   -0.1784   -0.1765   -0.0973    0.0620   -0.0163
  Py  C    4    0.0125   -0.0439   -0.0770    0.0127   -0.0527   -0.1067   -0.0245    0.0834
  Pz  C    4   -0.0135    0.0440    0.0213   -0.0205    0.0058    0.0228    0.0315    0.0002
  S   C    5    0.0461   -0.0350   -0.0319   -0.0240    0.0516    0.0115    0.1649    0.0116
  Px  C    5    0.2015   -0.1139    0.2550    0.2493   -0.1396   -0.2283    0.1230   -0.0125
  Py  C    5   -0.1778    0.0750   -0.0880   -0.2224    0.1714    0.0516    0.0577   -0.0038
  Pz  C    5    0.0206   -0.0424    0.0207    0.0313    0.0076   -0.0089    0.1244   -0.1009
  S   C    6   -0.0587    0.0297   -0.0366   -0.0365    0.0277   -0.0093    0.3458   -0.4007
  Px  C    6    0.3105   -0.2678   -0.1635   -0.0419    0.1816    0.2878   -0.1000    0.0446
  Py  C    6    0.1328   -0.1482   -0.0864    0.0208    0.0180    0.0496    0.1070   -0.1565
  Pz  C    6   -0.0523    0.0286    0.0671    0.0217   -0.0089   -0.0231   -0.1764    0.1631
  S   N    7    0.0009   -0.0019    0.0002    0.0031   -0.0013   -0.0000    0.0087    0.0028
  Px  N    7    0.0097    0.1477   -0.1923    0.1877   -0.2140    0.1751    0.0106   -0.0113
  Py  N    7    0.0235    0.2350   -0.2657    0.2126   -0.2643    0.2260   -0.0110   -0.0317
  Pz  N    7   -0.0041   -0.0407    0.0898   -0.0350    0.0105   -0.0438   -0.0295    0.0125
  S   O    8    0.0051    0.0544   -0.0702    0.0547   -0.0604    0.0551    0.0046   -0.0055
  Px  O    8    0.0089    0.0913   -0.1146    0.0763   -0.0845    0.0840    0.0041   -0.0127
  Py  O    8    0.0031    0.0768   -0.1103    0.0864   -0.0921    0.0891    0.0056   -0.0162
  Pz  O    8   -0.0124   -0.1385    0.1651   -0.1378    0.1599   -0.1357   -0.0026    0.0106
  S   O    9   -0.0051   -0.0575    0.0638   -0.0574    0.0711   -0.0571    0.0032    0.0059
  Px  O    9    0.0126    0.0936   -0.0970    0.0868   -0.1098    0.0854   -0.0047   -0.0093
  Py  O    9    0.0110    0.1383   -0.1549    0.1444   -0.1777    0.1411   -0.0028   -0.0114
  Pz  O    9    0.0078    0.0896   -0.1094    0.0846   -0.0948    0.0854    0.0037   -0.0117
  S   N   10    0.0008    0.0020    0.0002   -0.0031   -0.0013    0.0000    0.0087   -0.0026
  Px  N   10   -0.0121    0.1474    0.1924    0.1852    0.2176    0.1728   -0.0102   -0.0117
  Py  N   10   -0.0274    0.2346    0.2658    0.2095    0.2690    0.2234    0.0118   -0.0318
  Pz  N   10    0.0052   -0.0414   -0.0904   -0.0351   -0.0119   -0.0442    0.0292    0.0132
  S   O   11    0.0061   -0.0545   -0.0703   -0.0540   -0.0616   -0.0546    0.0044    0.0056
  Px  O   11   -0.0106    0.0912    0.1145    0.0751    0.0861    0.0831   -0.0038   -0.0128
  Py  O   11   -0.0044    0.0768    0.1104    0.0853    0.0940    0.0882   -0.0053   -0.0164
  Pz  O   11    0.0147   -0.1385   -0.1654   -0.1360   -0.1629   -0.1343    0.0023    0.0108
  S   O   12   -0.0060    0.0574    0.0638    0.0565    0.0723    0.0564    0.0033   -0.0059
  Px  O   12   -0.0141    0.0933    0.0969    0.0855    0.1115    0.0842    0.0049   -0.0094
  Py  O   12   -0.0132    0.1381    0.1551    0.1424    0.1807    0.1393    0.0031   -0.0115
  Pz  O   12   -0.0094    0.0894    0.1094    0.0833    0.0965    0.0843   -0.0035   -0.0119
  S   H   13    0.3312    0.2779   -0.0956    0.0051    0.1311   -0.2600   -0.3247   -0.3323
  S   H   14   -0.2626   -0.2587    0.2078   -0.0432   -0.1395    0.2016   -0.2985   -0.3935
  S   H   15    0.2243    0.0975    0.2110   -0.3155   -0.2440    0.1498   -0.1146    0.0037
  S   H   16   -0.2651   -0.1604   -0.2254    0.2417    0.0864   -0.2079   -0.2238   -0.0392
  S   H   17    0.0344    0.1615   -0.0642   -0.1834    0.2010   -0.0855    0.0001   -0.0098
  S   H   18    0.0388   -0.1618   -0.0636    0.1818    0.2031    0.0828   -0.0001    0.0099
  S   H   19    0.2263   -0.0933    0.2133    0.3160   -0.2440   -0.1462   -0.1146   -0.0073
  S   H   20   -0.2676    0.1551   -0.2273   -0.2404    0.0871    0.2062   -0.2251    0.0337
  S   H   21    0.3363   -0.2716   -0.0958   -0.0058    0.1341    0.2574   -0.3314    0.3263
  S   H   22   -0.2674    0.2540    0.2085    0.0435   -0.1417   -0.1989   -0.3063    0.3879


   Root No.      57        58

                28 au     28 ag  

                 5.433     5.487
  
  S   C    1    0.0409   -0.2124
  Px  C    1   -0.0115    0.0228
  Py  C    1   -0.0455    0.1083
  Pz  C    1   -0.0704   -0.0195
  S   C    2   -0.4003    0.3658
  Px  C    2    0.1127   -0.0897
  Py  C    2    0.1838   -0.1614
  Pz  C    2    0.0782   -0.0372
  S   C    3   -0.0081   -0.0066
  Px  C    3   -0.0558   -0.0386
  Py  C    3   -0.0606   -0.0850
  Pz  C    3    0.0341    0.0156
  S   C    4    0.0081   -0.0067
  Px  C    4   -0.0551    0.0394
  Py  C    4   -0.0592    0.0857
  Pz  C    4    0.0338   -0.0161
  S   C    5    0.4060    0.3593
  Px  C    5    0.1143    0.0882
  Py  C    5    0.1860    0.1582
  Pz  C    5    0.0786    0.0363
  S   C    6   -0.0448   -0.2103
  Px  C    6   -0.0119   -0.0227
  Py  C    6   -0.0473   -0.1069
  Pz  C    6   -0.0700    0.0200
  S   N    7    0.0036    0.0026
  Px  N    7    0.0384    0.0413
  Py  N    7    0.0469    0.0633
  Pz  N    7   -0.0049   -0.0188
  S   O    8    0.0105    0.0138
  Px  O    8    0.0144    0.0225
  Py  O    8    0.0148    0.0252
  Pz  O    8   -0.0251   -0.0293
  S   O    9   -0.0100   -0.0123
  Px  O    9    0.0208    0.0247
  Py  O    9    0.0322    0.0352
  Pz  O    9    0.0095    0.0159
  S   N   10   -0.0036    0.0027
  Px  N   10    0.0377   -0.0418
  Py  N   10    0.0457   -0.0639
  Pz  N   10   -0.0047    0.0189
  S   O   11   -0.0103    0.0139
  Px  O   11    0.0140   -0.0227
  Py  O   11    0.0143   -0.0254
  Pz  O   11   -0.0246    0.0297
  S   O   12    0.0098   -0.0124
  Px  O   12    0.0203   -0.0250
  Py  O   12    0.0316   -0.0356
  Pz  O   12    0.0092   -0.0160
  S   H   13    0.0045    0.1302
  S   H   14   -0.0331    0.2107
  S   H   15    0.3549   -0.3195
  S   H   16    0.3598   -0.3123
  S   H   17   -0.0281   -0.0093
  S   H   18    0.0278   -0.0097
  S   H   19   -0.3594   -0.3134
  S   H   20   -0.3649   -0.3069
  S   H   21   -0.0020    0.1292
  S   H   22    0.0369    0.2087


              NET ATOMIC CHARGES AND DIPOLE CONTRIBUTIONS

  ATOM NO.   TYPE          CHARGE      No. of ELECS.   s-Pop       p-Pop       
    1          C          -0.281804        4.2818     1.06411     3.21769
    2          C          -0.279611        4.2796     1.06202     3.21759
    3          C          -0.075778        4.0758     1.10069     2.97509
    4          C          -0.075737        4.0757     1.10074     2.97500
    5          C          -0.279633        4.2796     1.06199     3.21765
    6          C          -0.281860        4.2819     1.06410     3.21776
    7          N           0.575970        4.4240     1.47545     2.94858
    8          O          -0.395183        6.3952     1.94104     4.45415
    9          O          -0.390874        6.3909     1.94049     4.45038
   10          N           0.576000        4.4240     1.47545     2.94855
   11          O          -0.395031        6.3950     1.94098     4.45405
   12          O          -0.391060        6.3911     1.94048     4.45058
   13          H           0.159050        0.8410     0.84095
   14          H           0.172736        0.8273     0.82726
   15          H           0.168285        0.8317     0.83172
   16          H           0.168743        0.8313     0.83126
   17          H           0.178493        0.8215     0.82151
   18          H           0.178454        0.8215     0.82155
   19          H           0.168285        0.8317     0.83172
   20          H           0.168751        0.8312     0.83125
   21          H           0.159058        0.8409     0.84094
   22          H           0.172746        0.8273     0.82725
 DIPOLE           X         Y         Z       TOTAL
 POINT-CHG.     0.002     0.003    -0.001     0.004
 HYBRID        -0.000    -0.000    -0.000     0.000
 SUM            0.001     0.003    -0.001     0.004


          ATOMIC ORBITAL ELECTRON POPULATIONS

     Atom    s        px        py        pz   
    1  C   1.06411   1.16578   1.01370   1.03822
    2  C   1.06202   1.14628   1.08543   0.98588
    3  C   1.10069   1.11937   1.01103   0.84469
    4  C   1.10074   1.11935   1.01101   0.84465
    5  C   1.06199   1.14630   1.08545   0.98590
    6  C   1.06410   1.16579   1.01378   1.03819
    7  N   1.47545   0.95332   0.96589   1.02937
    8  O   1.94104   1.40973   1.45204   1.59237
    9  O   1.94049   1.40746   1.19902   1.84390
   10  N   1.47545   0.95329   0.96592   1.02934
   11  O   1.94098   1.41012   1.45258   1.59135
   12  O   1.94048   1.40760   1.19868   1.84430
   13  H   0.84095
   14  H   0.82726
   15  H   0.83172
   16  H   0.83126
   17  H   0.82151
   18  H   0.82155
   19  H   0.83172
   20  H   0.83125
   21  H   0.84094
   22  H   0.82725

           DATA FOR GRAPH WRITTEN TO DISK

 **********************
 *                    *
 * JOB ENDED NORMALLY *
 *                    *
 **********************



 TOTAL JOB TIME:             0.41 SECONDS

 == MOPAC DONE ==
