

 Parallel Execution: Process Information
 ==============================================================================
 Rank   Node Name                              NodeID   MyNodeRank  NodeMaster
    0   adf1                                      0          0          0
    1   adf1                                      0          1         -1
    2   adf1                                      0          2         -1
    3   adf1                                      0          3         -1
    4   adf1                                      0          4         -1
    5   adf1                                      0          5         -1
    6   adf1                                      1          0          1
    7   adf1                                      1          1         -1
    8   adf1                                      1          2         -1
    9   adf1                                      1          3         -1
   10   adf1                                      1          4         -1
   11   adf1                                      1          5         -1
 ==============================================================================


May use up to 11697MB of RAM as shared memory on node 0
May use up to 11718MB of RAM as shared memory on node 1

 *******************************************************************************
 *                                                                             *
 *  --------------------------------                                           *
 *   Amsterdam Modeling Suite (AMS)              2021.102                      *
 *  --------------------------------                                           *
 *                                               r95042 2021-06-07             *
 *                                                                             *
 *                                                                             *
 *                              =================                              *
 *                              |               |                              *
 *                              |     A M S     |                              *
 *                              |               |                              *
 *                              =================                              *
 *                                                                             *
 *                                                                             *
 *   Online information and documentation:  https://www.scm.com/support/       *
 *   E-mail:  support@scm.com   info@scm.com                                   *
 *                                                                             *
 *   Scientific publications using AMS results must be properly referenced     *
 *   See the User Manuals (or the web site) for recommended citations          *
 *   The terms and conditions of the End User License Agreement apply to       *
 *   the use of AMS, https://www.scm.com/license-terms/                        *
 *                                                                             *
 **********************  x86_64_linux_intel / intelmpi  ************************
 
 Licensed to: Dr. Miroslav Ilias / Matej Bel University, Department Chemistry, Fac. Natural Sciences / Banska Bystrica / SLOVAKIA
 SCM User ID: u17848
  
 AMS 2021.102  RunTime: Sep05-2021 20:56:22  ShM Nodes: 2  Procs: 12

 AMS jobname: ams
 AMS jobid  : 1181037345

 Start   directory: /home/milias/Work/projects/open-collection/theoretical_chemistry/projects/nmr_diplomovky/derivaty_markerov/derivative_7/ams/srzora/tmp.milias.27164.0.noindex/
 Results directory: /home/milias/Work/projects/open-collection/theoretical_chemistry/projects/nmr_diplomovky/derivaty_markerov/derivative_7/ams/srzora/der7.geopt_pbe0_srzora_gnuc_tzp_good_cosmo-chcl3.results/
 Scratch directory: /tmp/amstmp_ams_kid0.1181037345/


 Communication costs MPI_COMM_WORLD:      2.866 usec per message,   0.0274 usec per 8-byte item
 Communication costs for intra-node:      1.589 usec per message,   0.0130 usec per 8-byte item

 RNG seed: 1386980810 585017572 -527987714 -1163718756 -1414167522 117221014 -27660307 -1050468248



                     *************************************************************************
                     *  ADF 2021.102  RunTime: Sep05-2021 20:56:23  ShM Nodes: 2  Procs: 12  *
                     *************************************************************************
  
       ***************************
       *  GEOMETRY OPTIMIZATION  *
       ***************************

Optimization Method                    Quasi Newton
Optimization Coordinates               Delocalized Coordinates
Optimize lattice                       F
 
 ------------------------------------------------------
 Convergence criteria (Hartree,Angstrom)
 ------------------------------------------------------
 Maximum gradient               0.001000000000
 Maximum rms gradient           0.000666666667
 Maximum step allowed           0.010000000000
 Maximum rms step allowed       0.006666666667
 Maximum energy change allowe   0.000410000000
 Maximum stress energy allowe   0.000500000000
 
Initial model Hessian                  Automatic Hessian
 
------------------------------------
Quasi-Newton Optimizer Parameters
------------------------------------
Hessian Update Method                  BFGS
Maximum number of steps                  250
First GDIIS cycle                          0
Maximum GDIIS vectors                      0
Trust radius (bohr)                        0.200000
Trust radius varies                        T
Constraints converged at all steps         T
Use projector                              T
 
 Rigid motions settings for: old optimizer
 Atomic rotations (x,y,z):     T T T
 Atomic translations (x,y,z):  T T T
 Tolerance:                   1.000000000000000E-006
 
--------
Geometry
--------
Formula: C12H25O3P
Atoms
  Index Symbol   x (angstrom)   y (angstrom)   z (angstrom)
      1      O     3.38131830    -0.49295779     0.04322250
      2      P     2.30681325     0.20249395    -0.97030217
      3      O     1.51881796     1.29792060    -0.03626549
      4      O     1.09452107    -0.90739818    -0.86138415
      5      C     0.40678438     0.72324206     0.70490732
      6      C    -0.11432591    -0.38024575    -0.25817996
      7      C     0.93123298     0.17368483     2.02279213
      8      C    -0.58612849     1.83840520     0.96060379
      9      C    -0.98511059     0.16930591    -1.37832290
     10      C    -0.81661278    -1.52672912     0.44045945
     11      H     0.10762521    -0.15704284     2.65782253
     12      H     1.61806855    -0.65766648     1.86800733
     13      H     1.46651116     0.96807151     2.54521828
     14      H    -0.85409481     2.35597844     0.04067629
     15      H    -1.49480099     1.43868261     1.41628891
     16      H    -0.15340523     2.56315135     1.65198631
     17      H    -1.95953312     0.48587067    -1.00348019
     18      H    -0.50978955     1.01730988    -1.87447135
     19      H    -1.14261538    -0.61733702    -2.11755886
     20      H    -1.69324225    -1.16107227     0.97988496
     21      H    -1.15526371    -2.25436439    -0.29866198
     22      H    -0.15609186    -2.03068767     1.14420899
     23      C     4.76853775    -0.53309674    -0.35562343
     24      C     5.61476477     0.26313213     0.65751230
     25      H     4.49618057    -2.44339747    -1.28507960
     26      H     5.02200514    -2.54393082     0.39802496
     27      C     5.48348448    -0.31175726     2.06626426
     28      C     5.13973941     1.71612622     0.65928730
     29      H     6.17603267    -2.09342252    -0.87091711
     30      C     5.14428403    -1.98924699    -0.53377653
     31      H     4.86177325    -0.02347229    -1.32433358
     32      C     7.07941430     0.23018184     0.21957593
     33      H     5.75870811     2.31362794     1.33319726
     34      H     4.10293091     1.79652773     0.99000450
     35      H     5.21374774     2.15511070    -0.34048468
     36      H     5.87322148    -1.33036509     2.12752653
     37      H     4.43992710    -0.32283790     2.38686119
     38      H     6.04958524     0.30125635     2.77236476
     39      H     7.67094345     0.89303865     0.85572815
     40      H     7.19346991     0.57167779    -0.81351811
     41      H     7.50810847    -0.77069587     0.29742269
 
Total System Charge             0.00000
Bonding info available!
 
 
----------------
ADF Engine Input
----------------
 
 Basis
 Type TZP
 Core None
 End
 XC
 Hybrid PBE0
 End
 NumericalQuality Good
 NuclearModel Gaussian
 

 Title: *** (NO TITLE) ***

 Using automatic Hessian for delocalized coordinates.
 *** GOStep1 ***



 ======================
 RI Hartree-Fock Scheme
 ======================
  
 Fit Set Quality     : GOOD
 Integration Quality : GOOD
 Threshold Quality   : GOOD
 Response Quality    : DEFAULT
 Is Range Separated  :  F
 
 RIHartreeFock Dependency: number of modified vectors:          30
  
 Hartree-Fock exchange energy:   -118.709298029281     
  pauli hf:                              3.129569797113785         85.1599          1963.83          8216.68
  elstat hf:                            -4.122645113130201       -112.1829         -2587.00        -10824.00

 Energy gradients wrt nuclear displacements
 ==========================================

     Atom      Cartesian (a.u./angstrom)
                 X         Y         Z
 ----------------------------------------
     1 O    -0.005451  0.001662 -0.003057
     2 P     0.003091 -0.001513  0.005608
     3 O     0.003965  0.000853 -0.004002
     4 O     0.004914 -0.001326 -0.002765
     5 C    -0.004565 -0.001914  0.003764
     6 C    -0.006951  0.002215  0.002261
     7 C     0.000451  0.000206 -0.000228
     8 C    -0.000068 -0.000289 -0.000231
     9 C     0.000698 -0.000021  0.000117
    10 C     0.000312  0.000219  0.000104
    11 H     0.000124  0.000236 -0.000691
    12 H    -0.000070 -0.000108  0.000260
    13 H    -0.000086  0.000138  0.000150
    14 H    -0.000661 -0.000130 -0.000393
    15 H     0.000523  0.000080 -0.000408
    16 H     0.000122 -0.000155  0.000562
    17 H     0.000639 -0.000289  0.000019
    18 H    -0.000252  0.000436 -0.000240
    19 H    -0.000627 -0.000308 -0.000082
    20 H     0.000656 -0.000044 -0.000318
    21 H    -0.000563  0.000080 -0.000359
    22 H    -0.000050  0.000125  0.000791
    23 C     0.003853 -0.000221 -0.001473
    24 C    -0.000226 -0.000174  0.000052
    25 H     0.000102  0.000055 -0.000701
    26 H     0.000498  0.000041  0.000470
    27 C     0.000192 -0.000199  0.000305
    28 C     0.000268  0.000646 -0.000220
    29 H    -0.000247  0.000026  0.000182
    30 C    -0.000270  0.000296  0.000251
    31 H     0.000381 -0.000260  0.000385
    32 C     0.000482  0.000100 -0.000366
    33 H     0.000064 -0.000121  0.000116
    34 H    -0.000383 -0.000397  0.000591
    35 H     0.000292 -0.000142 -0.000438
    36 H     0.000007 -0.000136 -0.000267
    37 H    -0.000484  0.000123  0.000158
    38 H     0.000076  0.000314 -0.000090
    39 H    -0.000222  0.000210  0.000411
    40 H    -0.000259 -0.000135 -0.000150
    41 H    -0.000273 -0.000178 -0.000079
 ----------------------------------------
 Mulliken charges used for AMS results%charges...
 
----------------------------------------------------------------------
Geometry Convergence after Step   1       (Hartree/Angstrom,Angstrom)
----------------------------------------------------------------------
current energy                              -10.15816540 Hartree
energy change                     -10.15816540     0.00041000    F
constrained gradient max            0.00695206     0.00100000    F
constrained gradient rms            0.00149820     0.00066667    F
gradient max                        0.00695206
gradient rms                        0.00149820
cart. step max                      0.03622955     0.01000000    F
cart. step rms                      0.01537574     0.00666667    F
 
 
--------
Geometry
--------
Formula: C12H25O3P
Atoms
  Index Symbol   x (angstrom)   y (angstrom)   z (angstrom)
      1      O     3.37388374    -0.47547187     0.05012339
      2      P     2.30579905     0.22287352    -0.97165266
      3      O     1.51388017     1.30678234    -0.02684224
      4      O     1.09918152    -0.89374610    -0.87260630
      5      C     0.40964377     0.71826822     0.70955120
      6      C    -0.10765129    -0.37770073    -0.26437396
      7      C     0.93990029     0.15504103     2.01959193
      8      C    -0.58557587     1.82797043     0.98083806
      9      C    -0.98046527     0.18096746    -1.37855478
     10      C    -0.80451612    -1.53646157     0.41971313
     11      H     0.12088321    -0.18639225     2.65543671
     12      H     1.62932563    -0.67153227     1.85136291
     13      H     1.47526001     0.94496239     2.54851810
     14      H    -0.85535657     2.35549734     0.06739171
     15      H    -1.49279649     1.42229750     1.43499706
     16      H    -0.15221861     2.54693897     1.67755959
     17      H    -1.95818884     0.48793695    -1.00328586
     18      H    -0.50722490     1.03692021    -1.86247049
     19      H    -1.12973811    -0.59693832    -2.12837532
     20      H    -1.68382955    -1.18391555     0.96426977
     21      H    -1.13743896    -2.25701381    -0.32858820
     22      H    -0.14008971    -2.04628979     1.11514440
     23      C     4.75833940    -0.53161508    -0.34862213
     24      C     5.61285500     0.26912621     0.65422729
     25      H     4.46337713    -2.44978998    -1.25418004
     26      H     4.99206360    -2.53649557     0.42676710
     27      C     5.47630177    -0.28728856     2.06984096
     28      C     5.15016537     1.72605308     0.63738072
     29      H     6.14884071    -2.11307611    -0.84993993
     30      C     5.11912968    -1.99361052    -0.51112280
     31      H     4.85344698    -0.03369454    -1.32348462
     32      C     7.07763403     0.21782075     0.21810206
     33      H     5.77272778     2.32695904     1.30488182
     34      H     4.11343588     1.82077897     0.96356783
     35      H     5.22959472     2.15264398    -0.36710995
     36      H     5.85797671    -1.30796178     2.14471881
     37      H     4.43269481    -0.28660835     2.38950647
     38      H     6.04639659     0.32934396     2.76941817
     39      H     7.67519124     0.88357167     0.84530078
     40      H     7.19620463     0.54512435    -0.81902169
     41      H     7.49849386    -0.78520371     0.30950955
 
Total System Charge             0.00000
Bonding info available!
 
 *** GOStep2 ***



 ======================
 RI Hartree-Fock Scheme
 ======================
  
 Fit Set Quality     : GOOD
 Integration Quality : GOOD
 Threshold Quality   : GOOD
 Response Quality    : DEFAULT
 Is Range Separated  :  F
 
 RIHartreeFock Dependency: number of modified vectors:          30
  
 Hartree-Fock exchange energy:   -118.713230562062     
  pauli hf:                              3.118833002717839         84.8678          1957.10          8188.49
  elstat hf:                            -4.124842385545847       -112.2427         -2588.38        -10829.77

 Energy gradients wrt nuclear displacements
 ==========================================

     Atom      Cartesian (a.u./angstrom)
                 X         Y         Z
 ----------------------------------------
     1 O    -0.004306  0.000376 -0.001052
     2 P     0.001563 -0.000092  0.001350
     3 O     0.001887  0.000742 -0.001335
     4 O     0.002777 -0.001475 -0.000773
     5 C    -0.002389 -0.001579  0.001800
     6 C    -0.003174  0.001900  0.001588
     7 C     0.000302  0.000450 -0.000504
     8 C     0.000767  0.000360 -0.000283
     9 C     0.000972 -0.000290 -0.000032
    10 C     0.000795 -0.000319 -0.000561
    11 H     0.000085 -0.000015 -0.000116
    12 H     0.000097 -0.000142 -0.000036
    13 H    -0.000108  0.000041  0.000016
    14 H    -0.000219 -0.000066 -0.000012
    15 H     0.000141 -0.000089 -0.000135
    16 H    -0.000088 -0.000028  0.000179
    17 H     0.000135 -0.000139  0.000061
    18 H    -0.000079  0.000012 -0.000048
    19 H    -0.000261 -0.000105  0.000002
    20 H     0.000156  0.000118 -0.000090
    21 H    -0.000261  0.000010 -0.000006
    22 H    -0.000132  0.000058  0.000203
    23 C     0.002693  0.000120 -0.000752
    24 C    -0.000480 -0.000043  0.000016
    25 H     0.000126 -0.000012 -0.000231
    26 H     0.000186 -0.000002  0.000078
    27 C     0.000186 -0.000153  0.000179
    28 C    -0.000059  0.000336 -0.000132
    29 H    -0.000118  0.000095  0.000028
    30 C    -0.000951  0.000098  0.000297
    31 H    -0.000345 -0.000121  0.000251
    32 C     0.000480  0.000056 -0.000010
    33 H     0.000068 -0.000078  0.000009
    34 H    -0.000080 -0.000106  0.000095
    35 H     0.000015 -0.000071 -0.000071
    36 H    -0.000037 -0.000002 -0.000030
    37 H    -0.000134  0.000061  0.000017
    38 H     0.000032  0.000098 -0.000047
    39 H    -0.000099  0.000027  0.000105
    40 H    -0.000105 -0.000057 -0.000008
    41 H    -0.000036  0.000027 -0.000010
 ----------------------------------------
 Mulliken charges used for AMS results%charges...

 dE(predicted):    -0.66625E-04, dE(actual):    -0.77769E-04, Trust radius:    0.200000, all in a.u.
 
----------------------------------------------------------------------
Geometry Convergence after Step   2       (Hartree/Angstrom,Angstrom)
----------------------------------------------------------------------
current energy                              -10.15824317 Hartree
energy change                      -0.00007777     0.00041000    T
constrained gradient max            0.00430637     0.00100000    F
constrained gradient rms            0.00081646     0.00066667    F
gradient max                        0.00430637
gradient rms                        0.00081646
cart. step max                      0.03239604     0.01000000    F
cart. step rms                      0.01292847     0.00666667    F
 
 
--------
Geometry
--------
Formula: C12H25O3P
Atoms
  Index Symbol   x (angstrom)   y (angstrom)   z (angstrom)
      1      O     3.37899855    -0.46643449     0.06498707
      2      P     2.30518290     0.23185924    -0.95500075
      3      O     1.50840960     1.30650997    -0.00282327
      4      O     1.09989950    -0.88734390    -0.86808471
      5      C     0.39967015     0.71335211     0.71851459
      6      C    -0.10910524    -0.37698189    -0.26638076
      7      C     0.91451226     0.14040306     2.03095703
      8      C    -0.59874045     1.82107631     0.98768734
      9      C    -0.97505999     0.19056842    -1.38199914
     10      C    -0.81142873    -1.54026003     0.40500383
     11      H     0.08848717    -0.20256965     2.65718229
     12      H     1.60340587    -0.68677424     1.86428067
     13      H     1.44728182     0.92538775     2.56972358
     14      H    -0.85830955     2.35443958     0.07479218
     15      H    -1.51081267     1.41410215     1.43137653
     16      H    -0.17105690     2.53639519     1.69145836
     17      H    -1.95696846     0.49277027    -1.01319543
     18      H    -0.49833114     1.05138009    -1.85354180
     19      H    -1.11471299    -0.58031391    -2.14067317
     20      H    -1.69580256    -1.19345536     0.94551613
     21      H    -1.13626573    -2.25637392    -0.35088234
     22      H    -0.15090255    -2.05463088     1.10063918
     23      C     4.75893919    -0.53066569    -0.34205043
     24      C     5.62434834     0.27321940     0.64904530
     25      H     4.45168791    -2.45479568    -1.23029491
     26      H     4.99217658    -2.53048251     0.44588740
     27      C     5.49301606    -0.27192921     2.06945357
     28      C     5.16963728     1.73249994     0.62382085
     29      H     6.14208036    -2.12082832    -0.84217332
     30      C     5.11520708    -1.99496512    -0.49666502
     31      H     4.85005372    -0.03985780    -1.32120717
     32      C     7.08601272     0.20975274     0.20445571
     33      H     5.79817767     2.33521438     1.28402873
     34      H     4.13490712     1.83631790     0.95299252
     35      H     5.24691075     2.15179231    -0.38379766
     36      H     5.87044563    -1.29370360     2.15021773
     37      H     4.45136242    -0.26437396     2.39470031
     38      H     6.06954106     0.34672685     2.76185484
     39      H     7.69205711     0.87665461     0.82210136
     40      H     7.20080675     0.52826527    -0.83581471
     41      H     7.50181835    -0.79487547     0.30139603
 
Total System Charge             0.00000
Bonding info available!
 
 *** GOStep3 ***



 ======================
 RI Hartree-Fock Scheme
 ======================
  
 Fit Set Quality     : GOOD
 Integration Quality : GOOD
 Threshold Quality   : GOOD
 Response Quality    : DEFAULT
 Is Range Separated  :  F
 
 RIHartreeFock Dependency: number of modified vectors:          30
  
 Hartree-Fock exchange energy:   -118.713866179829     
  pauli hf:                              3.133175183501518         85.2580          1966.10          8226.15
  elstat hf:                            -4.125219193943575       -112.2529         -2588.61        -10830.76

 Energy gradients wrt nuclear displacements
 ==========================================

     Atom      Cartesian (a.u./angstrom)
                 X         Y         Z
 ----------------------------------------
     1 O    -0.000293 -0.000246 -0.000375
     2 P    -0.000475 -0.000046  0.000416
     3 O     0.000086  0.000948 -0.000568
     4 O     0.000141 -0.000512 -0.000194
     5 C    -0.000181 -0.000732  0.000043
     6 C    -0.000084  0.000687  0.000301
     7 C    -0.000352 -0.000111 -0.000178
     8 C     0.000670  0.000163 -0.000204
     9 C     0.000581 -0.000070  0.000207
    10 C     0.000525 -0.000167 -0.000383
    11 H    -0.000096 -0.000085  0.000277
    12 H    -0.000190  0.000115 -0.000063
    13 H    -0.000116  0.000002 -0.000057
    14 H     0.000104 -0.000069  0.000075
    15 H    -0.000222 -0.000102  0.000089
    16 H    -0.000126 -0.000021 -0.000142
    17 H    -0.000301  0.000093  0.000037
    18 H     0.000046 -0.000194  0.000137
    19 H     0.000060  0.000043  0.000115
    20 H    -0.000273  0.000080  0.000157
    21 H     0.000063  0.000038  0.000180
    22 H    -0.000053  0.000066 -0.000155
    23 C     0.001008  0.000079  0.000182
    24 C    -0.000312 -0.000082 -0.000141
    25 H     0.000094  0.000039  0.000147
    26 H    -0.000063  0.000027 -0.000134
    27 C     0.000021 -0.000095 -0.000015
    28 C    -0.000246  0.000075  0.000087
    29 H     0.000197 -0.000026 -0.000038
    30 C    -0.000373  0.000141  0.000247
    31 H    -0.000332 -0.000020  0.000064
    32 C     0.000205 -0.000036  0.000044
    33 H     0.000058 -0.000013 -0.000081
    34 H     0.000175  0.000095 -0.000239
    35 H    -0.000120  0.000006  0.000136
    36 H    -0.000045  0.000054  0.000078
    37 H     0.000137  0.000007 -0.000018
    38 H    -0.000019 -0.000053 -0.000008
    39 H     0.000002 -0.000096 -0.000092
    40 H     0.000036  0.000005  0.000071
    41 H     0.000065  0.000014 -0.000005
 ----------------------------------------
 Mulliken charges used for AMS results%charges...

 dE(predicted):    -0.27124E-04, dE(actual):    -0.17318E-04, Trust radius:    0.200000, all in a.u.
 
----------------------------------------------------------------------
Geometry Convergence after Step   3       (Hartree/Angstrom,Angstrom)
----------------------------------------------------------------------
current energy                              -10.15826049 Hartree
energy change                      -0.00001732     0.00041000    T
constrained gradient max            0.00100678     0.00100000    F
constrained gradient rms            0.00024647     0.00066667    T
gradient max                        0.00100678
gradient rms                        0.00024647
cart. step max                      0.01247118     0.01000000    F
cart. step rms                      0.00360455     0.00666667    T
 
 
--------
Geometry
--------
Formula: C12H25O3P
Atoms
  Index Symbol   x (angstrom)   y (angstrom)   z (angstrom)
      1      O     3.37860868    -0.46689047     0.06150836
      2      P     2.30535561     0.22998237    -0.96050630
      3      O     1.50966689     1.30585036    -0.00883072
      4      O     1.09841194    -0.88740277    -0.87131108
      5      C     0.40286340     0.71414025     0.71558852
      6      C    -0.10906540    -0.37705424    -0.26725722
      7      C     0.92416919     0.14272307     2.02632587
      8      C    -0.59579806     1.82108522     0.98813253
      9      C    -0.97890227     0.18916929    -1.38103519
     10      C    -0.81046958    -1.53896318     0.40778392
     11      H     0.10095836    -0.20032798     2.65600725
     12      H     1.61322194    -0.68401349     1.85762908
     13      H     1.45866830     0.92855084     2.56223116
     14      H    -0.85951911     2.35393187     0.07605112
     15      H    -1.50562839     1.41366398     1.43571542
     16      H    -0.16566387     2.53702792     1.68987027
     17      H    -1.95968377     0.49103018    -1.00937839
     18      H    -0.50441732     1.05000499    -1.85500153
     19      H    -1.12048191    -0.58241897    -2.13870944
     20      H    -1.69322231    -1.19092136     0.94986249
     21      H    -1.13750129    -2.25588685    -0.34649025
     22      H    -0.14852541    -2.05280818     1.10257660
     23      C     4.75872897    -0.53095051    -0.34363266
     24      C     5.62151446     0.27251405     0.65029466
     25      H     4.45445368    -2.45472132    -1.23408393
     26      H     4.99278984    -2.53131755     0.44288621
     27      C     5.48644905    -0.27347337     2.06999903
     28      C     5.16611810     1.73147851     0.62536351
     29      H     6.14403202    -2.11960976    -0.84325605
     30      C     5.11664255    -1.99492270    -0.49913274
     31      H     4.85255349    -0.03913089    -1.32211032
     32      C     7.08412785     0.21045171     0.20921761
     33      H     5.79219203     2.33389635     1.28819613
     34      H     4.13035900     1.83402046     0.95201868
     35      H     5.24614920     2.15190936    -0.38163151
     36      H     5.86461004    -1.29497271     2.15114777
     37      H     4.44377294    -0.26705422     2.39215905
     38      H     6.06038413     0.34532651     2.76445519
     39      H     7.68809517     0.87759696     0.82872484
     40      H     7.20118058     0.52950606    -0.83066395
     41      H     7.50033830    -0.79394788     0.30677456
 
Total System Charge             0.00000
Bonding info available!
 
 *** GOStep4 ***



 ======================
 RI Hartree-Fock Scheme
 ======================
  
 Fit Set Quality     : GOOD
 Integration Quality : GOOD
 Threshold Quality   : GOOD
 Response Quality    : DEFAULT
 Is Range Separated  :  F
 
 RIHartreeFock Dependency: number of modified vectors:          30
  
 Hartree-Fock exchange energy:   -118.713664849857     
  pauli hf:                              3.130443948552898         85.1837          1964.38          8218.98
  elstat hf:                            -4.125112929331099       -112.2500         -2588.55        -10830.48

 Energy gradients wrt nuclear displacements
 ==========================================

     Atom      Cartesian (a.u./angstrom)
                 X         Y         Z
 ----------------------------------------
     1 O    -0.000034 -0.000014  0.000180
     2 P     0.000058  0.000066 -0.000246
     3 O     0.000031 -0.000054  0.000074
     4 O    -0.000066  0.000045  0.000246
     5 C    -0.000204 -0.000346 -0.000082
     6 C     0.000016  0.000254 -0.000134
     7 C     0.000171  0.000182 -0.000261
     8 C     0.000087 -0.000011 -0.000048
     9 C     0.000087 -0.000129  0.000124
    10 C     0.000083  0.000041 -0.000125
    11 H    -0.000052 -0.000005  0.000040
    12 H    -0.000003  0.000028 -0.000021
    13 H    -0.000012 -0.000020  0.000027
    14 H     0.000077 -0.000025  0.000044
    15 H    -0.000171  0.000012  0.000067
    16 H    -0.000031 -0.000028 -0.000100
    17 H    -0.000150  0.000066 -0.000026
    18 H     0.000019 -0.000105  0.000047
    19 H     0.000033  0.000038  0.000033
    20 H    -0.000170 -0.000007  0.000103
    21 H     0.000069  0.000041  0.000072
    22 H    -0.000019  0.000031 -0.000102
    23 C     0.000475 -0.000034  0.000071
    24 C    -0.000282 -0.000141 -0.000101
    25 H     0.000043  0.000017  0.000102
    26 H    -0.000062  0.000025 -0.000064
    27 C    -0.000058  0.000039 -0.000016
    28 C    -0.000051 -0.000027  0.000095
    29 H     0.000112 -0.000059  0.000004
    30 C    -0.000036  0.000070  0.000069
    31 H    -0.000110 -0.000013  0.000008
    32 C     0.000080  0.000011 -0.000045
    33 H     0.000010  0.000013 -0.000041
    34 H     0.000064  0.000040 -0.000101
    35 H    -0.000055 -0.000010  0.000051
    36 H    -0.000025  0.000045  0.000026
    37 H     0.000041  0.000002  0.000008
    38 H    -0.000013 -0.000022  0.000013
    39 H    -0.000002 -0.000038 -0.000036
    40 H     0.000039  0.000009  0.000031
    41 H     0.000013  0.000015  0.000015
 ----------------------------------------
 Mulliken charges used for AMS results%charges...

 dE(predicted):    -0.46420E-05, dE(actual):    -0.53934E-05, Trust radius:    0.200000, all in a.u.
 
---------------------------------------------------------
Geometry Convergence after Step   4       ** CONVERGED **
---------------------------------------------------------
current energy                              -10.15826588 Hartree
energy change                      -0.00000539     0.00041000    T
constrained gradient max            0.00047336     0.00100000    T
constrained gradient rms            0.00010117     0.00066667    T
gradient max                        0.00047336
gradient rms                        0.00010117
cart. step max                      0.00417216     0.01000000    T
cart. step rms                      0.00183855     0.00666667    T
 
Geometry optimization converged

Optimized geometry:
 
--------
Geometry
--------
Formula: C12H25O3P
Atoms
  Index Symbol   x (angstrom)   y (angstrom)   z (angstrom)
      1      O     3.37860868    -0.46689047     0.06150836
      2      P     2.30535561     0.22998237    -0.96050630
      3      O     1.50966689     1.30585036    -0.00883072
      4      O     1.09841194    -0.88740277    -0.87131108
      5      C     0.40286340     0.71414025     0.71558852
      6      C    -0.10906540    -0.37705424    -0.26725722
      7      C     0.92416919     0.14272307     2.02632587
      8      C    -0.59579806     1.82108522     0.98813253
      9      C    -0.97890227     0.18916929    -1.38103519
     10      C    -0.81046958    -1.53896318     0.40778392
     11      H     0.10095836    -0.20032798     2.65600725
     12      H     1.61322194    -0.68401349     1.85762908
     13      H     1.45866830     0.92855084     2.56223116
     14      H    -0.85951911     2.35393187     0.07605112
     15      H    -1.50562839     1.41366398     1.43571542
     16      H    -0.16566387     2.53702792     1.68987027
     17      H    -1.95968377     0.49103018    -1.00937839
     18      H    -0.50441732     1.05000499    -1.85500153
     19      H    -1.12048191    -0.58241897    -2.13870944
     20      H    -1.69322231    -1.19092136     0.94986249
     21      H    -1.13750129    -2.25588685    -0.34649025
     22      H    -0.14852541    -2.05280818     1.10257660
     23      C     4.75872897    -0.53095051    -0.34363266
     24      C     5.62151446     0.27251405     0.65029466
     25      H     4.45445368    -2.45472132    -1.23408393
     26      H     4.99278984    -2.53131755     0.44288621
     27      C     5.48644905    -0.27347337     2.06999903
     28      C     5.16611810     1.73147851     0.62536351
     29      H     6.14403202    -2.11960976    -0.84325605
     30      C     5.11664255    -1.99492270    -0.49913274
     31      H     4.85255349    -0.03913089    -1.32211032
     32      C     7.08412785     0.21045171     0.20921761
     33      H     5.79219203     2.33389635     1.28819613
     34      H     4.13035900     1.83402046     0.95201868
     35      H     5.24614920     2.15190936    -0.38163151
     36      H     5.86461004    -1.29497271     2.15114777
     37      H     4.44377294    -0.26705422     2.39215905
     38      H     6.06038413     0.34532651     2.76445519
     39      H     7.68809517     0.87759696     0.82872484
     40      H     7.20118058     0.52950606    -0.83066395
     41      H     7.50033830    -0.79394788     0.30677456
 
Total System Charge             0.00000
Bonding info available!
 
Performing a single point calculation on the final geometry ...

 *** adf ***



 ===========================
 A T T A C H E D   F I L E S
 ===========================
  
 Restart/tmp/amstmp_ams_kid0.1181037345/GOStep4.rkf*** GOStep4 ***



 ===============================
 M O D E L   P A R A M E T E R S
 ===============================
  
 DENSITY FUNCTIONAL POTENTIAL (scf)
    Hybrid:                            PBE0                                    == Not Default ==

 SPIN  (restricted / unrestr.)
    Molecule:                          Restricted                               
    Fragments:                         Restricted                               

 OTHER ASPECTS
    Relativistic Corrections:          scalar (ZORA,MAPA)                       

    Nuclear Charge Density Model:      Gaussian Charge Distributions            *** SPECIAL ***
    Core Treatment:                    Frozen Orbital(s)                        

    Hyperfine or Zeeman Interaction:   ---                                      



 ===============
 G E O M E T R Y  ***  3D  Molecule  ***
 ===============
  

 ATOMS
 =====                            X Y Z                    CHARGE
                                (Angstrom)             Nucl     +Core       At.Mass
                       --------------------------    ----------------       -------
    1  O               3.3786   -0.4669    0.0615      8.00      8.00       15.9949
    2  P               2.3054    0.2300   -0.9605     15.00     15.00       30.9738
    3  O               1.5097    1.3059   -0.0088      8.00      8.00       15.9949
    4  O               1.0984   -0.8874   -0.8713      8.00      8.00       15.9949
    5  C               0.4029    0.7141    0.7156      6.00      6.00       12.0000
    6  C              -0.1091   -0.3771   -0.2673      6.00      6.00       12.0000
    7  C               0.9242    0.1427    2.0263      6.00      6.00       12.0000
    8  C              -0.5958    1.8211    0.9881      6.00      6.00       12.0000
    9  C              -0.9789    0.1892   -1.3810      6.00      6.00       12.0000
   10  C              -0.8105   -1.5390    0.4078      6.00      6.00       12.0000
   11  H               0.1010   -0.2003    2.6560      1.00      1.00        1.0078
   12  H               1.6132   -0.6840    1.8576      1.00      1.00        1.0078
   13  H               1.4587    0.9286    2.5622      1.00      1.00        1.0078
   14  H              -0.8595    2.3539    0.0761      1.00      1.00        1.0078
   15  H              -1.5056    1.4137    1.4357      1.00      1.00        1.0078
   16  H              -0.1657    2.5370    1.6899      1.00      1.00        1.0078
   17  H              -1.9597    0.4910   -1.0094      1.00      1.00        1.0078
   18  H              -0.5044    1.0500   -1.8550      1.00      1.00        1.0078
   19  H              -1.1205   -0.5824   -2.1387      1.00      1.00        1.0078
   20  H              -1.6932   -1.1909    0.9499      1.00      1.00        1.0078
   21  H              -1.1375   -2.2559   -0.3465      1.00      1.00        1.0078
   22  H              -0.1485   -2.0528    1.1026      1.00      1.00        1.0078
   23  C               4.7587   -0.5310   -0.3436      6.00      6.00       12.0000
   24  C               5.6215    0.2725    0.6503      6.00      6.00       12.0000
   25  H               4.4545   -2.4547   -1.2341      1.00      1.00        1.0078
   26  H               4.9928   -2.5313    0.4429      1.00      1.00        1.0078
   27  C               5.4864   -0.2735    2.0700      6.00      6.00       12.0000
   28  C               5.1661    1.7315    0.6254      6.00      6.00       12.0000
   29  H               6.1440   -2.1196   -0.8433      1.00      1.00        1.0078
   30  C               5.1166   -1.9949   -0.4991      6.00      6.00       12.0000
   31  H               4.8526   -0.0391   -1.3221      1.00      1.00        1.0078
   32  C               7.0841    0.2105    0.2092      6.00      6.00       12.0000
   33  H               5.7922    2.3339    1.2882      1.00      1.00        1.0078
   34  H               4.1304    1.8340    0.9520      1.00      1.00        1.0078
   35  H               5.2461    2.1519   -0.3816      1.00      1.00        1.0078
   36  H               5.8646   -1.2950    2.1511      1.00      1.00        1.0078
   37  H               4.4438   -0.2671    2.3922      1.00      1.00        1.0078
   38  H               6.0604    0.3453    2.7645      1.00      1.00        1.0078
   39  H               7.6881    0.8776    0.8287      1.00      1.00        1.0078
   40  H               7.2012    0.5295   -0.8307      1.00      1.00        1.0078
   41  H               7.5003   -0.7939    0.3068      1.00      1.00        1.0078


 FRAGMENTS
 =========                                     Atoms in this Fragment     Cart. coord.s (Angstrom)
                                               -------------------------------------------------------
    1  O                                                 1  O            3.3786   -0.4669    0.0615
    2  O                                                 3  O            1.5097    1.3059   -0.0088
    3  O                                                 4  O            1.0984   -0.8874   -0.8713
    4  P                                                 2  P            2.3054    0.2300   -0.9605
    5  C                                                 5  C            0.4029    0.7141    0.7156
    6  C                                                 6  C           -0.1091   -0.3771   -0.2673
    7  C                                                 7  C            0.9242    0.1427    2.0263
    8  C                                                 8  C           -0.5958    1.8211    0.9881
    9  C                                                 9  C           -0.9789    0.1892   -1.3810
   10  C                                                10  C           -0.8105   -1.5390    0.4078
   11  C                                                23  C            4.7587   -0.5310   -0.3436
   12  C                                                24  C            5.6215    0.2725    0.6503
   13  C                                                27  C            5.4864   -0.2735    2.0700
   14  C                                                28  C            5.1661    1.7315    0.6254
   15  C                                                30  C            5.1166   -1.9949   -0.4991
   16  C                                                32  C            7.0841    0.2105    0.2092
   17  H                                                11  H            0.1010   -0.2003    2.6560
   18  H                                                12  H            1.6132   -0.6840    1.8576
   19  H                                                13  H            1.4587    0.9286    2.5622
   20  H                                                14  H           -0.8595    2.3539    0.0761
   21  H                                                15  H           -1.5056    1.4137    1.4357
   22  H                                                16  H           -0.1657    2.5370    1.6899
   23  H                                                17  H           -1.9597    0.4910   -1.0094
   24  H                                                18  H           -0.5044    1.0500   -1.8550
   25  H                                                19  H           -1.1205   -0.5824   -2.1387
   26  H                                                20  H           -1.6932   -1.1909    0.9499
   27  H                                                21  H           -1.1375   -2.2559   -0.3465
   28  H                                                22  H           -0.1485   -2.0528    1.1026
   29  H                                                25  H            4.4545   -2.4547   -1.2341
   30  H                                                26  H            4.9928   -2.5313    0.4429
   31  H                                                29  H            6.1440   -2.1196   -0.8433
   32  H                                                31  H            4.8526   -0.0391   -1.3221
   33  H                                                33  H            5.7922    2.3339    1.2882
   34  H                                                34  H            4.1304    1.8340    0.9520
   35  H                                                35  H            5.2461    2.1519   -0.3816
   36  H                                                36  H            5.8646   -1.2950    2.1511
   37  H                                                37  H            4.4438   -0.2671    2.3922
   38  H                                                38  H            6.0604    0.3453    2.7645
   39  H                                                39  H            7.6881    0.8776    0.8287
   40  H                                                40  H            7.2012    0.5295   -0.8307
   41  H                                                41  H            7.5003   -0.7939    0.3068



 =====================================
 S Y M M E T R Y ,   E L E C T R O N S
 =====================================
  
 Symmetry: NOSYM

 Irreducible Representations, including subspecies
 -------------------------------------------------
 A

 Symmetry is NOT used when fitting density


 Configuration of Valence Electrons
 ==================================
 ( determined in the SCF procedure )

 Total:   136

 Net Charge: 0 (Nuclei minus Electrons)

 Aufbau principle for MO occupations will be applied through SCF cycle no.     150
 Thereafter, the program will assign electrons to MOs that are spatially
 similar to the occupied MOs in a "reference" cycle ("KeepOrbitals").
 The reference cycle is always the PREVIOUS cycle: it will evolve with
 the SCF procedure.
1
 ***************************************************************************************************



                                      ****************************************
                                      *  B U I L D : (Fragments, Functions)  *
                                      ****************************************
  



 =======
 S F O s  ***  (Symmetrized Fragment Orbitals)  ***
 =======
  
 SFOs are linear combinations of (valence) Fragment Orbitals (FOs), such that the SFOs transform as the
 irreducible representations of the (molecular) symmetry group. Each SFO is therefore characterized by
 an irrep of the molecule and by a few (or only one) generating FOs.
 The SFOs constitute a symmetry-adapted basis for the Fock matrix. The MO eigenvector coefficients in
 this basis provide a direct interpretation of the MOs in terms of Frontier Orbital Theory.

 The SFOs are combined with auxiliary Core Functions (CFs) to ensure orthogonalization on the (frozen)
 Core Orbitals (COs). The Core-orthogonalized SFOs (CSFOs) constitute the true Fock basis.

 The FOs, and hence also the (C)SFOs are combinations of the elementary basis functions (BAS). The basis
 functions that participate in the description of the SFOs depend on the irrep. The indices of the
 involved functions are printed below for each irrep.
 (The complete list of primitive basis functions is printed in another section)

 Total nr. of (C)SFOs (summation over all irreps) :   462

 NOTE: a (C)SFO that is defined as a combination of more than one FO is usually NOT normalized.



                                       === A ===
 Nr. of SFOs :  462
 Cartesian basis functions that participate in this irrep (total number =   478) :
      1     2     3     4     5     6     9    12     7    10
     13     8    11    14    15    16    17    18    19    20
     21    22    23    24    25    26    29    32    27    30
     33    28    31    34    35    36    37    38    39    40
     41    42    43    44    45    46    49    52    47    50
     53    48    51    54    55    56    57    58    59    60
     61    62    63    64    71    72    73    65    68    74
     77    80    66    69    75    78    81    67    70    76
     79    82    83    84    85    86    87    88    89    90
     91    92    93    94    97   100    95    98   101    96
     99   102   103   104   105   106   107   108   109   110
    111   112   113   114   117   120   115   118   121   116
    119   122   123   124   125   126   127   128   129   130
    131   132   133   134   137   140   135   138   141   136
    139   142   143   144   145   146   147   148   149   150
    151   152   153   154   157   160   155   158   161   156
    159   162   163   164   165   166   167   168   169   170
    171   172   173   174   177   180   175   178   181   176
    179   182   183   184   185   186   187   188   189   190
    191   192   193   194   197   200   195   198   201   196
    199   202   203   204   205   206   207   208   209   210
    211   212   213   214   217   220   215   218   221   216
    219   222   223   224   225   226   227   228   229   230
    231   232   233   234   237   240   235   238   241   236
    239   242   243   244   245   246   247   248   249   250
    251   252   253   254   257   260   255   258   261   256
    259   262   263   264   265   266   267   268   269   270
    271   272   273   274   277   280   275   278   281   276
    279   282   283   284   285   286   287   288   289   290
    291   292   293   294   297   300   295   298   301   296
    299   302   303   304   305   306   307   308   309   310
    311   312   313   314   317   320   315   318   321   316
    319   322   323   324   325   326   327   328   329   330
    331   332   333   334   335   336   337   338   339   340
    341   342   343   344   345   346   347   348   349   350
    351   352   353   354   355   356   357   358   359   360
    361   362   363   364   365   366   367   368   369   370
    371   372   373   374   375   376   377   378   379   380
    381   382   383   384   385   386   387   388   389   390
    391   392   393   394   395   396   397   398   399   400
    401   402   403   404   405   406   407   408   409   410
    411   412   413   414   415   416   417   418   419   420
    421   422   423   424   425   426   427   428   429   430
    431   432   433   434   435   436   437   438   439   440
    441   442   443   444   445   446   447   448   449   450
    451   452   453   454   455   456   457   458   459   460
    461   462   463   464   465   466   467   468   469   470
    471   472   473   474   475   476   477   478

    SFO  (index         Fragment          Generating    Expansion in Fragment Orbitals
  indx  incl.CFs)   Occup   Orb.Energy   FragmentType  Coeff.   Orbital     on Fragment
 --------------------------------------------------------------------------------------
     1       1      2.000     -19.396 au  O             1.00      1 S               1
                        (    -527.802 eV)
     2       2      2.000      -0.999 au  O             1.00      2 S               1
                        (     -27.198 eV)
     3       3       --         0.856 au  O             1.00      3 S               1
                        (      23.286 eV)
     4       4       --        13.669 au  O             1.00      4 S               1
                        (     371.949 eV)
     5       5       --       122.369 au  O             1.00      5 S               1
                        (    3329.823 eV)
     6       6      1.333      -0.366 au  O             1.00      1 P:x             1
                        (      -9.955 eV)
     7       7       --         0.397 au  O             1.00      2 P:x             1
                        (      10.811 eV)
     8       8       --         3.979 au  O             1.00      3 P:x             1
                        (     108.277 eV)
     9       9      1.333      -0.366 au  O             1.00      1 P:y             1
                        (      -9.955 eV)
    10      10       --         0.397 au  O             1.00      2 P:y             1
                        (      10.811 eV)
    11      11       --         3.979 au  O             1.00      3 P:y             1
                        (     108.277 eV)
    12      12      1.333      -0.366 au  O             1.00      1 P:z             1
                        (      -9.955 eV)
    13      13       --         0.397 au  O             1.00      2 P:z             1
                        (      10.811 eV)
    14      14       --         3.979 au  O             1.00      3 P:z             1
                        (     108.277 eV)
    15      15       --         1.128 au  O             1.00      1 D:z2            1
                        (      30.706 eV)
    16      16       --         1.128 au  O             1.00      1 D:x2-y2         1
                        (      30.706 eV)
    17      17       --         1.128 au  O             1.00      1 D:xy            1
                        (      30.706 eV)
    18      18       --         1.128 au  O             1.00      1 D:xz            1
                        (      30.706 eV)
    19      19       --         1.128 au  O             1.00      1 D:yz            1
                        (      30.706 eV)
    20      20      2.000     -19.396 au  O             1.00      1 S               2
                        (    -527.802 eV)
    21      21      2.000      -0.999 au  O             1.00      2 S               2
                        (     -27.198 eV)
    22      22       --         0.856 au  O             1.00      3 S               2
                        (      23.286 eV)
    23      23       --        13.669 au  O             1.00      4 S               2
                        (     371.949 eV)
    24      24       --       122.369 au  O             1.00      5 S               2
                        (    3329.823 eV)
    25      25      1.333      -0.366 au  O             1.00      1 P:x             2
                        (      -9.955 eV)
    26      26       --         0.397 au  O             1.00      2 P:x             2
                        (      10.811 eV)
    27      27       --         3.979 au  O             1.00      3 P:x             2
                        (     108.277 eV)
    28      28      1.333      -0.366 au  O             1.00      1 P:y             2
                        (      -9.955 eV)
    29      29       --         0.397 au  O             1.00      2 P:y             2
                        (      10.811 eV)
    30      30       --         3.979 au  O             1.00      3 P:y             2
                        (     108.277 eV)
    31      31      1.333      -0.366 au  O             1.00      1 P:z             2
                        (      -9.955 eV)
    32      32       --         0.397 au  O             1.00      2 P:z             2
                        (      10.811 eV)
    33      33       --         3.979 au  O             1.00      3 P:z             2
                        (     108.277 eV)
    34      34       --         1.128 au  O             1.00      1 D:z2            2
                        (      30.706 eV)
    35      35       --         1.128 au  O             1.00      1 D:x2-y2         2
                        (      30.706 eV)
    36      36       --         1.128 au  O             1.00      1 D:xy            2
                        (      30.706 eV)
    37      37       --         1.128 au  O             1.00      1 D:xz            2
                        (      30.706 eV)
    38      38       --         1.128 au  O             1.00      1 D:yz            2
                        (      30.706 eV)
    39      39      2.000     -19.396 au  O             1.00      1 S               3
                        (    -527.802 eV)
    40      40      2.000      -0.999 au  O             1.00      2 S               3
                        (     -27.198 eV)
    41      41       --         0.856 au  O             1.00      3 S               3
                        (      23.286 eV)
    42      42       --        13.669 au  O             1.00      4 S               3
                        (     371.949 eV)
    43      43       --       122.369 au  O             1.00      5 S               3
                        (    3329.823 eV)
    44      44      1.333      -0.366 au  O             1.00      1 P:x             3
                        (      -9.955 eV)
    45      45       --         0.397 au  O             1.00      2 P:x             3
                        (      10.811 eV)
    46      46       --         3.979 au  O             1.00      3 P:x             3
                        (     108.277 eV)
    47      47      1.333      -0.366 au  O             1.00      1 P:y             3
                        (      -9.955 eV)
    48      48       --         0.397 au  O             1.00      2 P:y             3
                        (      10.811 eV)
    49      49       --         3.979 au  O             1.00      3 P:y             3
                        (     108.277 eV)
    50      50      1.333      -0.366 au  O             1.00      1 P:z             3
                        (      -9.955 eV)
    51      51       --         0.397 au  O             1.00      2 P:z             3
                        (      10.811 eV)
    52      52       --         3.979 au  O             1.00      3 P:z             3
                        (     108.277 eV)
    53      53       --         1.128 au  O             1.00      1 D:z2            3
                        (      30.706 eV)
    54      54       --         1.128 au  O             1.00      1 D:x2-y2         3
                        (      30.706 eV)
    55      55       --         1.128 au  O             1.00      1 D:xy            3
                        (      30.706 eV)
    56      56       --         1.128 au  O             1.00      1 D:xz            3
                        (      30.706 eV)
    57      57       --         1.128 au  O             1.00      1 D:yz            3
                        (      30.706 eV)
    58      58      2.000     -77.495 au  P             1.00      1 S               4
                        (   -2108.752 eV)
    59      59      2.000      -6.709 au  P             1.00      2 S               4
                        (    -182.551 eV)
    60      60      2.000      -0.580 au  P             1.00      3 S               4
                        (     -15.778 eV)
    61      61       --         0.140 au  P             1.00      4 S               4
                        (       3.817 eV)
    62      62       --         1.380 au  P             1.00      5 S               4
                        (      37.549 eV)
    63      63       --         9.471 au  P             1.00      6 S               4
                        (     257.719 eV)
    64      64       --       159.701 au  P             1.00      7 S               4
                        (    4345.676 eV)
    65      65      2.000      -4.804 au  P             1.00      1 P:x             4
                        (    -130.726 eV)
    66      66      1.000      -0.208 au  P             1.00      2 P:x             4
                        (      -5.658 eV)
    67      67       --         0.107 au  P             1.00      3 P:x             4
                        (       2.910 eV)
    68      68       --         0.924 au  P             1.00      4 P:x             4
                        (      25.153 eV)
    69      69       --        10.501 au  P             1.00      5 P:x             4
                        (     285.747 eV)
    70      70      2.000      -4.804 au  P             1.00      1 P:y             4
                        (    -130.726 eV)
    71      71      1.000      -0.208 au  P             1.00      2 P:y             4
                        (      -5.658 eV)
    72      72       --         0.107 au  P             1.00      3 P:y             4
                        (       2.910 eV)
    73      73       --         0.924 au  P             1.00      4 P:y             4
                        (      25.153 eV)
    74      74       --        10.501 au  P             1.00      5 P:y             4
                        (     285.747 eV)
    75      75      2.000      -4.804 au  P             1.00      1 P:z             4
                        (    -130.726 eV)
    76      76      1.000      -0.208 au  P             1.00      2 P:z             4
                        (      -5.658 eV)
    77      77       --         0.107 au  P             1.00      3 P:z             4
                        (       2.910 eV)
    78      78       --         0.924 au  P             1.00      4 P:z             4
                        (      25.153 eV)
    79      79       --        10.501 au  P             1.00      5 P:z             4
                        (     285.747 eV)
    80      80       --         0.440 au  P             1.00      1 D:z2            4
                        (      11.981 eV)
    81      81       --         0.440 au  P             1.00      1 D:x2-y2         4
                        (      11.981 eV)
    82      82       --         0.440 au  P             1.00      1 D:xy            4
                        (      11.981 eV)
    83      83       --         0.440 au  P             1.00      1 D:xz            4
                        (      11.981 eV)
    84      84       --         0.440 au  P             1.00      1 D:yz            4
                        (      11.981 eV)
    85      85      2.000     -10.410 au  C             1.00      1 S               5
                        (    -283.269 eV)
    86      86      2.000      -0.583 au  C             1.00      2 S               5
                        (     -15.871 eV)
    87      87       --         0.414 au  C             1.00      3 S               5
                        (      11.266 eV)
    88      88       --         5.548 au  C             1.00      4 S               5
                        (     150.972 eV)
    89      89       --        50.361 au  C             1.00      5 S               5
                        (    1370.394 eV)
    90      90      0.667      -0.185 au  C             1.00      1 P:x             5
                        (      -5.048 eV)
    91      91       --         0.203 au  C             1.00      2 P:x             5
                        (       5.519 eV)
    92      92       --         2.124 au  C             1.00      3 P:x             5
                        (      57.805 eV)
    93      93      0.667      -0.185 au  C             1.00      1 P:y             5
                        (      -5.048 eV)
    94      94       --         0.203 au  C             1.00      2 P:y             5
                        (       5.519 eV)
    95      95       --         2.124 au  C             1.00      3 P:y             5
                        (      57.805 eV)
    96      96      0.667      -0.185 au  C             1.00      1 P:z             5
                        (      -5.048 eV)
    97      97       --         0.203 au  C             1.00      2 P:z             5
                        (       5.519 eV)
    98      98       --         2.124 au  C             1.00      3 P:z             5
                        (      57.805 eV)
    99      99       --         1.300 au  C             1.00      1 D:z2            5
                        (      35.364 eV)
   100     100       --         1.300 au  C             1.00      1 D:x2-y2         5
                        (      35.364 eV)
   101     101       --         1.300 au  C             1.00      1 D:xy            5
                        (      35.364 eV)
   102     102       --         1.300 au  C             1.00      1 D:xz            5
                        (      35.364 eV)
   103     103       --         1.300 au  C             1.00      1 D:yz            5
                        (      35.364 eV)
   104     104      2.000     -10.410 au  C             1.00      1 S               6
                        (    -283.269 eV)
   105     105      2.000      -0.583 au  C             1.00      2 S               6
                        (     -15.871 eV)
   106     106       --         0.414 au  C             1.00      3 S               6
                        (      11.266 eV)
   107     107       --         5.548 au  C             1.00      4 S               6
                        (     150.972 eV)
   108     108       --        50.361 au  C             1.00      5 S               6
                        (    1370.394 eV)
   109     109      0.667      -0.185 au  C             1.00      1 P:x             6
                        (      -5.048 eV)
   110     110       --         0.203 au  C             1.00      2 P:x             6
                        (       5.519 eV)
   111     111       --         2.124 au  C             1.00      3 P:x             6
                        (      57.805 eV)
   112     112      0.667      -0.185 au  C             1.00      1 P:y             6
                        (      -5.048 eV)
   113     113       --         0.203 au  C             1.00      2 P:y             6
                        (       5.519 eV)
   114     114       --         2.124 au  C             1.00      3 P:y             6
                        (      57.805 eV)
   115     115      0.667      -0.185 au  C             1.00      1 P:z             6
                        (      -5.048 eV)
   116     116       --         0.203 au  C             1.00      2 P:z             6
                        (       5.519 eV)
   117     117       --         2.124 au  C             1.00      3 P:z             6
                        (      57.805 eV)
   118     118       --         1.300 au  C             1.00      1 D:z2            6
                        (      35.364 eV)
   119     119       --         1.300 au  C             1.00      1 D:x2-y2         6
                        (      35.364 eV)
   120     120       --         1.300 au  C             1.00      1 D:xy            6
                        (      35.364 eV)
   121     121       --         1.300 au  C             1.00      1 D:xz            6
                        (      35.364 eV)
   122     122       --         1.300 au  C             1.00      1 D:yz            6
                        (      35.364 eV)
   123     123      2.000     -10.410 au  C             1.00      1 S               7
                        (    -283.269 eV)
   124     124      2.000      -0.583 au  C             1.00      2 S               7
                        (     -15.871 eV)
   125     125       --         0.414 au  C             1.00      3 S               7
                        (      11.266 eV)
   126     126       --         5.548 au  C             1.00      4 S               7
                        (     150.972 eV)
   127     127       --        50.361 au  C             1.00      5 S               7
                        (    1370.394 eV)
   128     128      0.667      -0.185 au  C             1.00      1 P:x             7
                        (      -5.048 eV)
   129     129       --         0.203 au  C             1.00      2 P:x             7
                        (       5.519 eV)
   130     130       --         2.124 au  C             1.00      3 P:x             7
                        (      57.805 eV)
   131     131      0.667      -0.185 au  C             1.00      1 P:y             7
                        (      -5.048 eV)
   132     132       --         0.203 au  C             1.00      2 P:y             7
                        (       5.519 eV)
   133     133       --         2.124 au  C             1.00      3 P:y             7
                        (      57.805 eV)
   134     134      0.667      -0.185 au  C             1.00      1 P:z             7
                        (      -5.048 eV)
   135     135       --         0.203 au  C             1.00      2 P:z             7
                        (       5.519 eV)
   136     136       --         2.124 au  C             1.00      3 P:z             7
                        (      57.805 eV)
   137     137       --         1.300 au  C             1.00      1 D:z2            7
                        (      35.364 eV)
   138     138       --         1.300 au  C             1.00      1 D:x2-y2         7
                        (      35.364 eV)
   139     139       --         1.300 au  C             1.00      1 D:xy            7
                        (      35.364 eV)
   140     140       --         1.300 au  C             1.00      1 D:xz            7
                        (      35.364 eV)
   141     141       --         1.300 au  C             1.00      1 D:yz            7
                        (      35.364 eV)
   142     142      2.000     -10.410 au  C             1.00      1 S               8
                        (    -283.269 eV)
   143     143      2.000      -0.583 au  C             1.00      2 S               8
                        (     -15.871 eV)
   144     144       --         0.414 au  C             1.00      3 S               8
                        (      11.266 eV)
   145     145       --         5.548 au  C             1.00      4 S               8
                        (     150.972 eV)
   146     146       --        50.361 au  C             1.00      5 S               8
                        (    1370.394 eV)
   147     147      0.667      -0.185 au  C             1.00      1 P:x             8
                        (      -5.048 eV)
   148     148       --         0.203 au  C             1.00      2 P:x             8
                        (       5.519 eV)
   149     149       --         2.124 au  C             1.00      3 P:x             8
                        (      57.805 eV)
   150     150      0.667      -0.185 au  C             1.00      1 P:y             8
                        (      -5.048 eV)
   151     151       --         0.203 au  C             1.00      2 P:y             8
                        (       5.519 eV)
   152     152       --         2.124 au  C             1.00      3 P:y             8
                        (      57.805 eV)
   153     153      0.667      -0.185 au  C             1.00      1 P:z             8
                        (      -5.048 eV)
   154     154       --         0.203 au  C             1.00      2 P:z             8
                        (       5.519 eV)
   155     155       --         2.124 au  C             1.00      3 P:z             8
                        (      57.805 eV)
   156     156       --         1.300 au  C             1.00      1 D:z2            8
                        (      35.364 eV)
   157     157       --         1.300 au  C             1.00      1 D:x2-y2         8
                        (      35.364 eV)
   158     158       --         1.300 au  C             1.00      1 D:xy            8
                        (      35.364 eV)
   159     159       --         1.300 au  C             1.00      1 D:xz            8
                        (      35.364 eV)
   160     160       --         1.300 au  C             1.00      1 D:yz            8
                        (      35.364 eV)
   161     161      2.000     -10.410 au  C             1.00      1 S               9
                        (    -283.269 eV)
   162     162      2.000      -0.583 au  C             1.00      2 S               9
                        (     -15.871 eV)
   163     163       --         0.414 au  C             1.00      3 S               9
                        (      11.266 eV)
   164     164       --         5.548 au  C             1.00      4 S               9
                        (     150.972 eV)
   165     165       --        50.361 au  C             1.00      5 S               9
                        (    1370.394 eV)
   166     166      0.667      -0.185 au  C             1.00      1 P:x             9
                        (      -5.048 eV)
   167     167       --         0.203 au  C             1.00      2 P:x             9
                        (       5.519 eV)
   168     168       --         2.124 au  C             1.00      3 P:x             9
                        (      57.805 eV)
   169     169      0.667      -0.185 au  C             1.00      1 P:y             9
                        (      -5.048 eV)
   170     170       --         0.203 au  C             1.00      2 P:y             9
                        (       5.519 eV)
   171     171       --         2.124 au  C             1.00      3 P:y             9
                        (      57.805 eV)
   172     172      0.667      -0.185 au  C             1.00      1 P:z             9
                        (      -5.048 eV)
   173     173       --         0.203 au  C             1.00      2 P:z             9
                        (       5.519 eV)
   174     174       --         2.124 au  C             1.00      3 P:z             9
                        (      57.805 eV)
   175     175       --         1.300 au  C             1.00      1 D:z2            9
                        (      35.364 eV)
   176     176       --         1.300 au  C             1.00      1 D:x2-y2         9
                        (      35.364 eV)
   177     177       --         1.300 au  C             1.00      1 D:xy            9
                        (      35.364 eV)
   178     178       --         1.300 au  C             1.00      1 D:xz            9
                        (      35.364 eV)
   179     179       --         1.300 au  C             1.00      1 D:yz            9
                        (      35.364 eV)
   180     180      2.000     -10.410 au  C             1.00      1 S              10
                        (    -283.269 eV)
   181     181      2.000      -0.583 au  C             1.00      2 S              10
                        (     -15.871 eV)
   182     182       --         0.414 au  C             1.00      3 S              10
                        (      11.266 eV)
   183     183       --         5.548 au  C             1.00      4 S              10
                        (     150.972 eV)
   184     184       --        50.361 au  C             1.00      5 S              10
                        (    1370.394 eV)
   185     185      0.667      -0.185 au  C             1.00      1 P:x            10
                        (      -5.048 eV)
   186     186       --         0.203 au  C             1.00      2 P:x            10
                        (       5.519 eV)
   187     187       --         2.124 au  C             1.00      3 P:x            10
                        (      57.805 eV)
   188     188      0.667      -0.185 au  C             1.00      1 P:y            10
                        (      -5.048 eV)
   189     189       --         0.203 au  C             1.00      2 P:y            10
                        (       5.519 eV)
   190     190       --         2.124 au  C             1.00      3 P:y            10
                        (      57.805 eV)
   191     191      0.667      -0.185 au  C             1.00      1 P:z            10
                        (      -5.048 eV)
   192     192       --         0.203 au  C             1.00      2 P:z            10
                        (       5.519 eV)
   193     193       --         2.124 au  C             1.00      3 P:z            10
                        (      57.805 eV)
   194     194       --         1.300 au  C             1.00      1 D:z2           10
                        (      35.364 eV)
   195     195       --         1.300 au  C             1.00      1 D:x2-y2        10
                        (      35.364 eV)
   196     196       --         1.300 au  C             1.00      1 D:xy           10
                        (      35.364 eV)
   197     197       --         1.300 au  C             1.00      1 D:xz           10
                        (      35.364 eV)
   198     198       --         1.300 au  C             1.00      1 D:yz           10
                        (      35.364 eV)
   199     199      2.000     -10.410 au  C             1.00      1 S              11
                        (    -283.269 eV)
   200     200      2.000      -0.583 au  C             1.00      2 S              11
                        (     -15.871 eV)
   201     201       --         0.414 au  C             1.00      3 S              11
                        (      11.266 eV)
   202     202       --         5.548 au  C             1.00      4 S              11
                        (     150.972 eV)
   203     203       --        50.361 au  C             1.00      5 S              11
                        (    1370.394 eV)
   204     204      0.667      -0.185 au  C             1.00      1 P:x            11
                        (      -5.048 eV)
   205     205       --         0.203 au  C             1.00      2 P:x            11
                        (       5.519 eV)
   206     206       --         2.124 au  C             1.00      3 P:x            11
                        (      57.805 eV)
   207     207      0.667      -0.185 au  C             1.00      1 P:y            11
                        (      -5.048 eV)
   208     208       --         0.203 au  C             1.00      2 P:y            11
                        (       5.519 eV)
   209     209       --         2.124 au  C             1.00      3 P:y            11
                        (      57.805 eV)
   210     210      0.667      -0.185 au  C             1.00      1 P:z            11
                        (      -5.048 eV)
   211     211       --         0.203 au  C             1.00      2 P:z            11
                        (       5.519 eV)
   212     212       --         2.124 au  C             1.00      3 P:z            11
                        (      57.805 eV)
   213     213       --         1.300 au  C             1.00      1 D:z2           11
                        (      35.364 eV)
   214     214       --         1.300 au  C             1.00      1 D:x2-y2        11
                        (      35.364 eV)
   215     215       --         1.300 au  C             1.00      1 D:xy           11
                        (      35.364 eV)
   216     216       --         1.300 au  C             1.00      1 D:xz           11
                        (      35.364 eV)
   217     217       --         1.300 au  C             1.00      1 D:yz           11
                        (      35.364 eV)
   218     218      2.000     -10.410 au  C             1.00      1 S              12
                        (    -283.269 eV)
   219     219      2.000      -0.583 au  C             1.00      2 S              12
                        (     -15.871 eV)
   220     220       --         0.414 au  C             1.00      3 S              12
                        (      11.266 eV)
   221     221       --         5.548 au  C             1.00      4 S              12
                        (     150.972 eV)
   222     222       --        50.361 au  C             1.00      5 S              12
                        (    1370.394 eV)
   223     223      0.667      -0.185 au  C             1.00      1 P:x            12
                        (      -5.048 eV)
   224     224       --         0.203 au  C             1.00      2 P:x            12
                        (       5.519 eV)
   225     225       --         2.124 au  C             1.00      3 P:x            12
                        (      57.805 eV)
   226     226      0.667      -0.185 au  C             1.00      1 P:y            12
                        (      -5.048 eV)
   227     227       --         0.203 au  C             1.00      2 P:y            12
                        (       5.519 eV)
   228     228       --         2.124 au  C             1.00      3 P:y            12
                        (      57.805 eV)
   229     229      0.667      -0.185 au  C             1.00      1 P:z            12
                        (      -5.048 eV)
   230     230       --         0.203 au  C             1.00      2 P:z            12
                        (       5.519 eV)
   231     231       --         2.124 au  C             1.00      3 P:z            12
                        (      57.805 eV)
   232     232       --         1.300 au  C             1.00      1 D:z2           12
                        (      35.364 eV)
   233     233       --         1.300 au  C             1.00      1 D:x2-y2        12
                        (      35.364 eV)
   234     234       --         1.300 au  C             1.00      1 D:xy           12
                        (      35.364 eV)
   235     235       --         1.300 au  C             1.00      1 D:xz           12
                        (      35.364 eV)
   236     236       --         1.300 au  C             1.00      1 D:yz           12
                        (      35.364 eV)
   237     237      2.000     -10.410 au  C             1.00      1 S              13
                        (    -283.269 eV)
   238     238      2.000      -0.583 au  C             1.00      2 S              13
                        (     -15.871 eV)
   239     239       --         0.414 au  C             1.00      3 S              13
                        (      11.266 eV)
   240     240       --         5.548 au  C             1.00      4 S              13
                        (     150.972 eV)
   241     241       --        50.361 au  C             1.00      5 S              13
                        (    1370.394 eV)
   242     242      0.667      -0.185 au  C             1.00      1 P:x            13
                        (      -5.048 eV)
   243     243       --         0.203 au  C             1.00      2 P:x            13
                        (       5.519 eV)
   244     244       --         2.124 au  C             1.00      3 P:x            13
                        (      57.805 eV)
   245     245      0.667      -0.185 au  C             1.00      1 P:y            13
                        (      -5.048 eV)
   246     246       --         0.203 au  C             1.00      2 P:y            13
                        (       5.519 eV)
   247     247       --         2.124 au  C             1.00      3 P:y            13
                        (      57.805 eV)
   248     248      0.667      -0.185 au  C             1.00      1 P:z            13
                        (      -5.048 eV)
   249     249       --         0.203 au  C             1.00      2 P:z            13
                        (       5.519 eV)
   250     250       --         2.124 au  C             1.00      3 P:z            13
                        (      57.805 eV)
   251     251       --         1.300 au  C             1.00      1 D:z2           13
                        (      35.364 eV)
[...]
                                    2.59%     3 P:x             2.910  0.00     4 P
                                    2.55%     1 P:z            -5.048  0.67     6 C
                                   -2.35%     2 S               3.073  0.00    36 H
                                    2.25%     1 S              -6.581  1.00    32 H
                                    2.25%     2 P:x             5.519  0.00     8 C
                                    2.22%     1 P:y            -5.048  0.67    15 C
                                    2.14%     1 P:z            -5.048  0.67    11 C
                                    2.13%     1 P:z            -5.048  0.67     8 C
                                   -2.09%     3 S              11.266  0.00     6 C
                                    1.99%     1 P:x            -5.048  0.67    14 C
                                    1.95%     2 P:z            -5.658  1.00     4 P
                                   -1.75%     2 S               3.073  0.00    27 H
                                    1.74%     1 P:x            -5.048  0.67    13 C
                                   -1.65%     2 P:y             5.519  0.00     7 C
                                    1.59%     2 S               3.073  0.00    20 H
                                    1.58%     1 P:y            -5.048  0.67    13 C
                                   -1.55%     2 S               3.073  0.00    33 H
                                   -1.48%     2 P:y             5.519  0.00    15 C
                                    1.47%     2 S             -15.871  2.00     6 C
                                   -1.46%     2 S               3.073  0.00    32 H
                                   -1.44%     2 S               3.073  0.00    18 H
                                    1.38%     2 P:x             5.519  0.00    13 C
                                    1.37%     1 S              -6.581  1.00    27 H
                                    1.32%     2 P:z             5.519  0.00     5 C
                                   -1.28%     2 P:x             5.519  0.00    16 C
                                   -1.27%     2 S               3.073  0.00    24 H
                                    1.26%     2 P:z             5.519  0.00    10 C
                                    1.24%     1 P:z            -5.048  0.67    16 C
                                   -1.24%     2 P:x             5.519  0.00    14 C
                                    1.19%     1 S              -6.581  1.00    40 H
                                   -1.19%     2 S               3.073  0.00    37 H
                                    1.18%     2 P:y             5.519  0.00     8 C
                                    1.17%     1 P:y            -5.048  0.67     9 C
                                    1.17%     1 S              -6.581  1.00    30 H
                                   -1.16%     2 S               3.073  0.00    23 H
                                    1.13%     3 P:y             2.910  0.00     4 P
                                    1.13%     1 S              -6.581  1.00    33 H
                                   -1.06%     2 S               3.073  0.00    21 H
                                    1.05%     2 P:z             5.519  0.00     8 C
                                   -1.04%     3 S              43.500  0.00    21 H
                                    1.03%     1 P:y            -5.048  0.67     8 C
       5.740  0.00   107 A         14.60%     1 S              -6.581  1.00    37 H
                                   11.68%     1 S              -6.581  1.00    34 H
                                   -8.04%     2 P:z             5.519  0.00    12 C
                                    7.54%     1 S              -6.581  1.00    18 H
                                    7.25%     1 P:x            -5.048  0.67    11 C
                                    6.72%     1 P:z            -5.048  0.67     5 C
                                   -6.36%     2 P:x             5.519  0.00    13 C
                                   -6.15%     2 S               3.073  0.00    34 H
                                    5.66%     1 S              -6.581  1.00    30 H
                                    5.33%     1 S              -6.581  1.00    35 H
                                    4.79%     1 P:z            -5.048  0.67    14 C
                                    4.37%     1 P:z            -5.048  0.67    12 C
                                    3.84%     1 P:z            -5.048  0.67     7 C
                                    3.79%     1 P:y            -5.048  0.67    15 C
                                    3.75%     1 P:x            -5.048  0.67    13 C
                                    3.63%     1 P:x            -5.048  0.67    14 C
                                   -3.44%     2 S               3.073  0.00    35 H
                                    3.25%     1 P:x            -5.048  0.67    10 C
                                    3.20%     2 P:z             5.519  0.00     9 C
                                    3.01%     1 S              -6.581  1.00    27 H
                                    2.77%     1 P:z            -5.048  0.67     9 C
                                    2.64%     2 P:x             5.519  0.00    10 C
                                   -2.48%     2 S               3.073  0.00    37 H
                                   -2.45%     2 P:z             5.519  0.00     8 C
                                    2.45%     3 P:y             2.910  0.00     4 P
                                    2.17%     1 S              -6.581  1.00    28 H
                                   -2.14%     2 S               3.073  0.00    27 H
                                    2.10%     2 P:x             5.519  0.00    16 C
                                    2.07%     2 P:z             5.519  0.00    16 C
                                    1.98%     1 P:y            -5.048  0.67     5 C
                                   -1.98%     2 P:z             5.519  0.00     6 C
                                   -1.91%     2 S               3.073  0.00    17 H
                                    1.83%     1 S              -6.581  1.00    25 H
                                    1.83%     1 P:x            -5.048  0.67    12 C
                                    1.77%     1 P:z            -5.048  0.67     6 C
                                   -1.63%     2 S               3.073  0.00    28 H
                                   -1.63%     3 S              11.266  0.00     7 C
                                    1.60%     2 P:y             5.519  0.00    13 C
                                    1.53%     1 P:z            -5.048  0.67    15 C
                                    1.38%     1 S              -6.581  1.00    17 H
                                   -1.37%     2 S               3.073  0.00    30 H
                                    1.25%     1 S              -6.581  1.00    41 H
                                    1.15%     2 P:y             5.519  0.00    16 C
                                   -1.15%     3 S              11.266  0.00    11 C
                                    1.15%     2 S             -15.871  2.00     7 C
                                    1.08%     1 S              -6.581  1.00    20 H
                                   -1.07%     2 S               3.073  0.00    18 H
       5.815  0.00   108 A         11.69%     3 P:y             2.910  0.00     4 P
                                   11.55%     1 P:y            -5.048  0.67     6 C
                                  -11.06%     2 P:y             5.519  0.00     6 C
                                   -7.44%     2 P:z             5.519  0.00    12 C
                                    6.95%     1 P:x            -5.048  0.67     5 C
                                    6.43%     1 P:x            -5.048  0.67    10 C
                                    6.39%     1 P:z            -5.048  0.67    14 C
                                    5.54%     1 P:z            -5.048  0.67     5 C
                                    5.13%     1 P:z            -5.048  0.67    12 C
                                    5.06%     1 S              -6.581  1.00    25 H
                                    4.76%     1 S              -6.581  1.00    41 H
                                    4.23%     1 P:y            -5.048  0.67    13 C
                                    4.14%     2 S               3.073  0.00    21 H
                                    4.12%     1 P:z            -5.048  0.67     9 C
                                   -3.95%     2 S               3.073  0.00    36 H
                                   -3.87%     2 S               3.073  0.00    26 H
                                   -3.75%     2 S               3.073  0.00    35 H
                                    3.50%     1 S              -6.581  1.00    26 H
                                    3.44%     1 S              -6.581  1.00    35 H
                                    3.38%     1 S              -6.581  1.00    36 H
                                    3.05%     1 S              -6.581  1.00    18 H
                                    2.74%     2 P:y             5.519  0.00    13 C
                                    2.62%     2 P:z             5.519  0.00    14 C
                                    2.42%     1 P:y            -5.048  0.67    15 C
                                   -2.36%     2 S               3.073  0.00    25 H
                                    2.27%     1 S              -6.581  1.00    29 H
                                    2.23%     2 S               3.073  0.00    24 H
                                    2.09%     1 P:z            -5.048  0.67     8 C
                                    2.07%     1 P:z            -5.048  0.67     7 C
                                    2.01%     1 S              -6.581  1.00    28 H
                                    2.01%     2 P:z             5.519  0.00    10 C
                                   -1.97%     2 P:x             5.519  0.00     5 C
                                   -1.97%     2 S               3.073  0.00    41 H
                                    1.91%     2 S               3.073  0.00    22 H
                                   -1.91%     2 P:z             5.519  0.00     5 C
                                   -1.84%     2 S               3.073  0.00    19 H
                                    1.83%     1 P:y            -5.048  0.67    11 C
                                   -1.74%     3 S              11.266  0.00     7 C
                                    1.72%     2 P:y             5.519  0.00     7 C
                                    1.61%     1 S              -6.581  1.00    27 H
                                    1.57%     2 P:x             5.519  0.00    16 C
                                    1.56%     1 S              -6.581  1.00    37 H
                                   -1.56%     2 S               3.073  0.00    29 H
                                    1.47%     3 P:z             2.910  0.00     4 P
                                    1.35%     1 P:x            -5.048  0.67    16 C
                                    1.31%     1 P:y            -5.048  0.67     5 C
                                   -1.29%     2 P:y             5.519  0.00     9 C
                                    1.27%     1 S              -6.581  1.00    19 H
                                    1.26%     1 S              -6.581  1.00    34 H
                                    1.12%     2 P:z             5.519  0.00     8 C
                                    1.09%     1 S              -6.581  1.00    30 H
                                   -1.06%     2 S               3.073  0.00    27 H

 Energy gradients wrt nuclear displacements
 ==========================================

     Atom      Cartesian (a.u./angstrom)
                 X         Y         Z
 ----------------------------------------
     1 O    -0.000034 -0.000014  0.000180
     2 P     0.000057  0.000066 -0.000246
     3 O     0.000031 -0.000054  0.000074
     4 O    -0.000066  0.000045  0.000246
     5 C    -0.000204 -0.000346 -0.000082
     6 C     0.000016  0.000254 -0.000134
     7 C     0.000171  0.000182 -0.000261
     8 C     0.000086 -0.000011 -0.000048
     9 C     0.000087 -0.000130  0.000124
    10 C     0.000083  0.000041 -0.000125
    11 H    -0.000052 -0.000005  0.000040
    12 H    -0.000003  0.000028 -0.000021
    13 H    -0.000012 -0.000020  0.000027
    14 H     0.000077 -0.000025  0.000044
    15 H    -0.000171  0.000012  0.000067
    16 H    -0.000031 -0.000028 -0.000100
    17 H    -0.000150  0.000066 -0.000026
    18 H     0.000019 -0.000105  0.000047
    19 H     0.000033  0.000038  0.000033
    20 H    -0.000170 -0.000007  0.000103
    21 H     0.000069  0.000041  0.000072
    22 H    -0.000019  0.000031 -0.000102
    23 C     0.000475 -0.000034  0.000071
    24 C    -0.000282 -0.000141 -0.000101
    25 H     0.000043  0.000017  0.000102
    26 H    -0.000062  0.000025 -0.000063
    27 C    -0.000058  0.000039 -0.000016
    28 C    -0.000051 -0.000027  0.000095
    29 H     0.000112 -0.000059  0.000004
    30 C    -0.000036  0.000070  0.000069
    31 H    -0.000110 -0.000013  0.000008
    32 C     0.000080  0.000011 -0.000045
    33 H     0.000010  0.000013 -0.000041
    34 H     0.000064  0.000040 -0.000101
    35 H    -0.000055 -0.000010  0.000051
    36 H    -0.000025  0.000045  0.000026
    37 H     0.000041  0.000002  0.000008
    38 H    -0.000013 -0.000022  0.000013
    39 H    -0.000002 -0.000038 -0.000036
    40 H     0.000039  0.000009  0.000031
    41 H     0.000013  0.000015  0.000015
 ----------------------------------------



 =======================================================================
 Electrostatic potential at the Nuclei due to electrons and other nuclei
 =======================================================================
  
         Atom                  Potential
         ----                  ---------
     1)   O                  22.37901083
     2)   P                  54.40088983
     3)   O                  22.37822767
     4)   O                  22.38126958
     5)   C                  14.70472043
     6)   C                  14.70410461
     7)   C                  14.79155986
     8)   C                  14.78424691
     9)   C                  14.78852875
    10)   C                  14.78461384
    11)   H                   1.11408444
    12)   H                   1.12050535
    13)   H                   1.11798071
    14)   H                   1.11404821
    15)   H                   1.10623778
    16)   H                   1.11310050
    17)   H                   1.11191829
    18)   H                   1.11550382
    19)   H                   1.11610645
    20)   H                   1.10666221
    21)   H                   1.11360323
    22)   H                   1.11484969
    23)   C                  14.72135136
    24)   C                  14.76297894
    25)   H                   1.12192666
    26)   H                   1.12148723
    27)   C                  14.79901147
    28)   C                  14.80104897
    29)   H                   1.11708620
    30)   C                  14.79332981
    31)   H                   1.11985266
    32)   C                  14.79290926
    33)   H                   1.12841485
    34)   H                   1.13290229
    35)   H                   1.12863186
    36)   H                   1.12797506
    37)   H                   1.13083705
    38)   H                   1.12707165
    39)   H                   1.12267931
    40)   H                   1.12183611
    41)   H                   1.12347083
 Mulliken charges used for AMS results%charges...


    =====================
     CALCULATION RESULTS
    =====================

Energy (hartree)           -10.15826593

Gradients (hartree/bohr)
  Index   Atom            d/dx            d/dy            d/dz
      1      O   -0.0000179925   -0.0000076048    0.0000952363
      2      P    0.0000303981    0.0000351159   -0.0001302771
      3      O    0.0000164505   -0.0000287637    0.0000392426
      4      O   -0.0000347645    0.0000238561    0.0001299948
      5      C   -0.0001080920   -0.0001833523   -0.0000433454
      6      C    0.0000085439    0.0001346062   -0.0000711210
      7      C    0.0000904064    0.0000961454   -0.0001381335
      8      C    0.0000457450   -0.0000058646   -0.0000251828
      9      C    0.0000462358   -0.0000685296    0.0000653979
     10      C    0.0000439045    0.0000216710   -0.0000663136
     11      H   -0.0000277104   -0.0000024110    0.0000213849
     12      H   -0.0000016436    0.0000146776   -0.0000111781
     13      H   -0.0000063188   -0.0000104611    0.0000144590
     14      H    0.0000408044   -0.0000132562    0.0000233982
     15      H   -0.0000906172    0.0000064452    0.0000352765
     16      H   -0.0000166062   -0.0000145687   -0.0000530475
     17      H   -0.0000794589    0.0000350780   -0.0000137074
     18      H    0.0000100125   -0.0000556380    0.0000249245
     19      H    0.0000174822    0.0000198791    0.0000174789
     20      H   -0.0000900176   -0.0000038362    0.0000546672
     21      H    0.0000364007    0.0000216094    0.0000382104
     22      H   -0.0000098922    0.0000163601   -0.0000540944
     23      C    0.0002513610   -0.0000178021    0.0000373846
     24      C   -0.0001491996   -0.0000745196   -0.0000532712
     25      H    0.0000225056    0.0000087784    0.0000538936
     26      H   -0.0000328549    0.0000131209   -0.0000335885
     27      C   -0.0000304647    0.0000204683   -0.0000083996
     28      C   -0.0000267576   -0.0000141772    0.0000504960
     29      H    0.0000591253   -0.0000314008    0.0000019205
     30      C   -0.0000190578    0.0000370732    0.0000363221
     31      H   -0.0000583510   -0.0000070852    0.0000040546
     32      C    0.0000425174    0.0000057334   -0.0000238814
     33      H    0.0000051807    0.0000070388   -0.0000219391
     34      H    0.0000336847    0.0000209639   -0.0000535057
     35      H   -0.0000290633   -0.0000050794    0.0000271850
     36      H   -0.0000131021    0.0000235823    0.0000136496
     37      H    0.0000215984    0.0000013090    0.0000043266
     38      H   -0.0000070641   -0.0000118163    0.0000068027
     39      H   -0.0000008193   -0.0000200939   -0.0000190334
     40      H    0.0000205259    0.0000050131    0.0000166280
     41      H    0.0000069651    0.0000077356    0.0000076852


--------------
Atomic charges
--------------
  Index   Atom    Charge
      1      O   -0.6871
      2      P    1.0784
      3      O   -0.6888
      4      O   -0.6829
      5      C    0.2832
      6      C    0.3158
      7      C    0.4798
      8      C    0.4612
      9      C    0.4804
     10      C    0.4632
     11      H   -0.1579
     12      H   -0.1196
     13      H   -0.1708
     14      H   -0.1434
     15      H   -0.1503
     16      H   -0.1659
     17      H   -0.1562
     18      H   -0.1630
     19      H   -0.1661
     20      H   -0.1513
     21      H   -0.1643
     22      H   -0.1452
     23      C    0.5235
     24      C   -0.0222
     25      H   -0.1655
     26      H   -0.1370
     27      C    0.4894
     28      C    0.4810
     29      H   -0.1565
     30      C    0.4364
     31      H   -0.1487
     32      C    0.4906
     33      H   -0.1884
     34      H   -0.1044
     35      H   -0.1730
     36      H   -0.1796
     37      H   -0.1187
     38      H   -0.1774
     39      H   -0.1647
     40      H   -0.1674
     41      H   -0.1666


Dipole moment vector    (Debye):    -0.90629949   -0.22210418    1.11067173
              magnitude (Debye):     1.45062081


AMS application finished. Exiting.
NORMAL TERMINATION
     Total cpu time:    2646.75
  Total system time:      37.99
 Total elapsed time:    2781.32
