 argument  1 = /lustre/ukt/milias/work/projects/open-collection/theoretical_chemistry/projects/adsorbate_on_surface/on_quartz/quartz/nwchem/pwpsp/small_quartz/quartz-pspw.scf_revpbe-d3bj.nw



============================== echo of input deck ==============================
title "small Quartz"
echo

start diamond

memory 64 gb

geometry units angstrom print xyz
system crystal
  lat_a 5.027782
  lat_b 5.027782
  lat_c 22.0
  alpha 90.00
  beta 90.00
  gamma 120.00
end
        Si 0.0 0.0 0.0
        Si -1.4282169081 2.078209903699999 -1.8396393149
        Si 2.513891025 -0.1977671725999999 -3.6792786851
        O -0.4827776880000001 1.3783178885 -0.7137782217000002
        O -2.380486369999999 0.9709532172000004 -2.5534175366
        O -1.0788438751 -0.4688283746999993 -4.3930569068
        O 1.4350471499 0.2710612021000003 -4.8051397783
        O 2.031113337 -1.5760850611 -2.9655004634
        O 0.1334046550000001 -1.1687203898 -1.1258610932
        Si 0.0 0.0 -5.518918
        Si -1.4282169081 2.078209903699999 -7.358557314900001
        Si 2.513891025 -0.197767172599999 -9.198196685100001
        O -0.4827776879999996 1.3783178885 -6.2326962217
        O -2.380486369999999 0.9709532171999999 -8.072335536600001
        O -1.0788438751 -0.4688283746999993 -9.911974906800001
        O 1.4350471499 0.2710612021000003 -10.3240577783
        O 2.031113337 -1.576085061099999 -8.484418463400001
        O 0.1334046550000005 -1.168720389800001 -6.6447790932
        H 1.22302471554611 -0.4723488771800517 -10.89325716459225
        H -0.7963402998665667 -1.368327711827813 -9.731163755354768
end

nwpw
  ewald_rcut 3.0
  ewald_ncut 8  #The default value of 1 needs to be increased for small cells
  xc revPBE-Grimme4
end


task pspw energy
================================================================================


                                         
                                         


             Northwest Computational Chemistry Package (NWChem) 7.2.0
             --------------------------------------------------------


                    Environmental Molecular Sciences Laboratory
                       Pacific Northwest National Laboratory
                                Richland, WA 99352

                              Copyright (c) 1994-2022
                       Pacific Northwest National Laboratory
                            Battelle Memorial Institute

             NWChem is an open-source computational chemistry package
                        distributed under the terms of the
                      Educational Community License (ECL) 2.0
             A copy of the license is included with this distribution
                              in the LICENSE.TXT file

                                  ACKNOWLEDGMENT
                                  --------------

            This software and its documentation were developed at the
            EMSL at Pacific Northwest National Laboratory, a multiprogram
            national laboratory, operated for the U.S. Department of Energy
            by Battelle under Contract Number DE-AC05-76RL01830. Support
            for this work was provided by the Department of Energy Office
            of Biological and Environmental Research, Office of Basic
            Energy Sciences, and the Office of Advanced Scientific Computing.


           Job information
           ---------------

    hostname        = lxbk1177
    program         = /lustre/ukt/milias/work/software/nwchem/nwchem-7.2.0_gnu_openmpi_openblas/bin/LINUX64/nwchem
    date            = Sat Aug 12 21:07:42 2023

    compiled        = Sun_Jul_02_11:55:06_2023
    source          = /lustre/ukt/milias/work/software/nwchem/nwchem-7.2.0_gnu_openmpi_openblas
    nwchem branch   = 7.2.0
    nwchem revision = v7.2.0-beta1-192-gd0d141fdfb
    ga revision     = 5.8.0
    use scalapack   = F
    input           = /lustre/ukt/milias/work/projects/open-collection/theoretical_chemistry/projects/adsorbate_on_surface/on_quartz/quartz/nwchem/pwpsp/small_quartz/quartz-pspw.scf_revpbe-d3bj.nw
    prefix          = diamond.
    data base       = ./diamond.db
    status          = startup
    nproc           =       30
    time left       =     -1s



           Memory information
           ------------------

    heap     = 2147483642 doubles =  16384.0 Mbytes
    stack    = 2147483647 doubles =  16384.0 Mbytes
    global   = 4294967296 doubles =  32768.0 Mbytes (distinct from heap & stack)
    total    = 8589934585 doubles =  65536.0 Mbytes
    verify   = yes
    hardfail = no 


           Directory information
           ---------------------

  0 permanent = .
  0 scratch   = .




                                NWChem Input Module
                                -------------------


                                   small Quartz
                                   ------------

  !!!!!!!!!  geom_3d NEEDS TESTING !!!!!!!!!! 
 Turning off AUTOSYM since
 SYMMETRY directive was detected!



                             Geometry "geometry" -> ""
                             -------------------------

 Output coordinates in angstroms (scale by  1.889725989 to convert to a.u.)

  No.       Tag          Charge          X              Y              Z
 ---- ---------------- ---------- -------------- -------------- --------------
    1 Si                  14.0000     0.00000000     0.00000000     0.00000000
    2 Si                  14.0000     2.48965047    -1.04417802     3.52793507
    3 Si                  14.0000     2.23757759     2.74158575     7.05586893
    4 O                    8.0000     2.25208263     0.60185935     6.29687912
    5 O                    8.0000     2.69747815     3.32435137     9.82481419
    6 O                    8.0000     4.01088597     0.35492904    13.35274805
    7 O                    8.0000     1.89427662     0.26917552     4.28692488
    8 O                    8.0000     0.13547329     2.05313636     0.75898981
    9 O                    8.0000     0.58086881     3.84412790    19.23105595
   10 Si                  14.0000     0.00000000     0.00000000    10.58380400
   11 Si                  14.0000     2.48965047    -1.04417802    14.11173907
   12 Si                  14.0000     2.23757759     2.74158575    17.63967293
   13 O                    8.0000     2.25208263     0.60185935    16.88068312
   14 O                    8.0000     2.69747815     3.32435137    20.40861819
   15 O                    8.0000     4.01088597     0.35492904     1.93655205
   16 O                    8.0000     1.89427662     0.26917552    14.87072888
   17 O                    8.0000     0.13547329     2.05313636    11.34279381
   18 O                    8.0000     0.58086881     3.84412790     7.81485995
   19 H                    1.0000     0.97109130     2.09225499     2.34834238
   20 H                    1.0000     0.88677241     2.66393227     5.91439738

      Lattice Parameters 
      ------------------ 

      lattice vectors in angstroms (scale by  1.889725989 to convert to a.u.)

      a1=<   4.354  -2.514   0.000 >
      a2=<   0.000   5.028   0.000 >
      a3=<   0.000   0.000  22.000 >
      a=       5.028 b=      5.028 c=      22.000
      alpha=  90.000 beta=  90.000 gamma= 120.000
      omega=   481.6

      reciprocal lattice vectors in a.u.

      b1=<   0.764   0.000  -0.000 >
      b2=<   0.382   0.661  -0.000 >
      b3=<   0.000   0.000   0.151 >

      Atomic Mass 
      ----------- 

      Si                27.976930
      O                 15.994910
      H                  1.007825



            XYZ format geometry
            -------------------
    20
 geometry
 Si                    0.00000000     0.00000000     0.00000000
 Si                    2.48965047    -1.04417802     3.52793507
 Si                    2.23757759     2.74158575     7.05586893
 O                     2.25208263     0.60185935     6.29687912
 O                     2.69747815     3.32435137     9.82481419
 O                     4.01088597     0.35492904    13.35274805
 O                     1.89427662     0.26917552     4.28692488
 O                     0.13547329     2.05313636     0.75898981
 O                     0.58086881     3.84412790    19.23105595
 Si                    0.00000000     0.00000000    10.58380400
 Si                    2.48965047    -1.04417802    14.11173907
 Si                    2.23757759     2.74158575    17.63967293
 O                     2.25208263     0.60185935    16.88068312
 O                     2.69747815     3.32435137    20.40861819
 O                     4.01088597     0.35492904     1.93655205
 O                     1.89427662     0.26917552    14.87072888
 O                     0.13547329     2.05313636    11.34279381
 O                     0.58086881     3.84412790     7.81485995
 H                     0.97109130     2.09225499     2.34834238
 H                     0.88677241     2.66393227     5.91439738

 ==============================================================================
                                internuclear distances
 ------------------------------------------------------------------------------
       center one      |      center two      | atomic units |  angstroms
 ------------------------------------------------------------------------------
    7 O                |   2 Si               |     3.07940  |     1.62955
   16 O                |  11 Si               |     3.07940  |     1.62955
 ------------------------------------------------------------------------------
                         number of included internuclear distances:          2
 ==============================================================================



  library name resolved from: compiled reference
  NWCHEM_NWPW_LIBRARY set to: </lustre/ukt/milias/work/software/nwchem/nwchem-7.2.0_gnu_openmpi_openblas/src/nwpw/libraryps/>
  library name resolved from: compiled reference
  NWCHEM_NWPW_LIBRARY set to: </lustre/ukt/milias/work/software/nwchem/nwchem-7.2.0_gnu_openmpi_openblas/src/nwpw/libraryps/>
  library name resolved from: compiled reference
  NWCHEM_NWPW_LIBRARY set to: </lustre/ukt/milias/work/software/nwchem/nwchem-7.2.0_gnu_openmpi_openblas/src/nwpw/libraryps/>
          ****************************************************
          *                                                  *
          *               NWPW PSPW Calculation              *
          *                                                  *
          * [ (Grassmann/Stiefel manifold implementation)  ] *
          *                                                  *
          *      [ NorthWest Chemistry implementation ]      *
          *                                                  *
          *            version #5.10   06/12/02              *
          *                                                  *
          *    This code was developed by Eric J. Bylaska,   *
          *    and was based upon algorithms and code        *
          *    developed by the group of Prof. John H. Weare *
          *                                                  *
          ****************************************************
     >>>  JOB STARTED       AT Sat Aug 12 21:07:43 2023  <<<
          ================ input data ========================
  library name resolved from: compiled reference
  NWCHEM_NWPW_LIBRARY set to: </lustre/ukt/milias/work/software/nwchem/nwchem-7.2.0_gnu_openmpi_openblas/src/nwpw/libraryps/>
 Generating 1d pseudopotential for Si  

 Generated formatted_filename: ./Si.vpp
  library name resolved from: compiled reference
  NWCHEM_NWPW_LIBRARY set to: </lustre/ukt/milias/work/software/nwchem/nwchem-7.2.0_gnu_openmpi_openblas/src/nwpw/libraryps/>
 Generating 1d pseudopotential for O   

 Generated formatted_filename: ./O.vpp
  library name resolved from: compiled reference
  NWCHEM_NWPW_LIBRARY set to: </lustre/ukt/milias/work/software/nwchem/nwchem-7.2.0_gnu_openmpi_openblas/src/nwpw/libraryps/>
 Generating 1d pseudopotential for H   

 Generated formatted_filename: ./H.vpp
 random planewave guess, initial psi:diamond.movecs                                    
 -   spin, nalpha, nbeta:                    1                   49                    0

 input psi filename:./diamond.movecs

 Warning - K.S. orbitals are not orthonormal. Applying Gram-Schmidt orthonormalization.
         - exact norm=0.490000E+02 norm=0.318695E+02 corrected norm=0.490000E+02 (error=0.171305E+02)


 number of processors used:        30
 processor grid           :  15 x   2
 parallel mapping         :2d-hilbert
 parallel mapping         :  balanced
 number of threads        :         1
 parallel io              :       off

 options:
      boundary conditions  = periodic    (version3)
      electron spin        = restricted
      exchange-correlation = revPBE (White and Bird) parameterization
      dispersion correction= Grimme4

 elements involved in the cluster:
      1: Si  valence charge:  4.0000  lmax=  2
             comment    : Hamann pseudopotential
             pseudpotential type            :   0
             highest angular component      :   2
             local potential used           :   2
             number of non-local projections:   4
             cutoff =   1.070   1.286   1.286

      2: O   valence charge:  6.0000  lmax=  2
             comment    : Parameterized (Chem.Phys.Lett., vol 322, page 447) Hamman psp
             pseudpotential type            :   0
             highest angular component      :   2
             local potential used           :   2
             number of non-local projections:   4
             cutoff =   0.700   0.700   0.700

      3: H   valence charge:  1.0000  lmax=  1
             comment    : Parameterized (Chem.Phys.Lett., vol 322, page 447) Hamman psp
             pseudpotential type            :   0
             highest angular component      :   1
             local potential used           :   1
             number of non-local projections:   1
             cutoff =   0.800   0.800


 total charge:   0.000

 atomic composition:
     Si  :    6     O   :   12     H   :    2

 number of electrons: spin up=    49 (  25 per task)  down=    49 (  25 per task) (Fourier space)
 number of orbitals : spin up=    49 (  25 per task)  down=    49 (  25 per task) (Fourier space)

 supercell:
      cell_name:  cell_default                                      
      lattice:    a1=<   8.228  -4.751   0.000 >
                  a2=<   0.000   9.501   0.000 >
                  a3=<   0.000   0.000  41.574 >
      reciprocal: b1=<   0.764   0.000  -0.000 >
                  b2=<   0.382   0.661  -0.000 >
                  b3=<  -0.000   0.000   0.151 >
      lattice:    a=       9.501 b=      9.501 c=      41.574
                  alpha=  90.000 beta=  90.000 gamma= 120.000
                  omega=      3250.1

      density cutoff= 25.000  fft= 20x 20x 96(     9417 waves      627 per task)
      wavefnc cutoff= 12.500  fft= 20x 20x 96(     3427 waves      228 per task)
      Ewald summation: cut radius=    3.00  and  8
                       Madelung Wigner-Seitz=   -1.04226055 (alpha=   -1.68011562 rs= 9.18906583)

 technical parameters:
      time step=      5.80     fictitious mass=  400000.0
      tolerance=0.100E-06 (energy)   0.100E-06 (density)
      maximum iterations =      1000 (   10 inner    100 outer )





== Energy Calculation ==


          ====== Grassmann conjugate gradient iteration ======
     >>>  ITERATION STARTED AT Sat Aug 12 21:07:45 2023  <<<
    iter.           Energy         DeltaE       DeltaRho 
    ------------------------------------------------------
     -  15 steepest descent iterations performed
      10   -0.1943896814E+03   -0.20406E+01    0.10458E-01
     -  10 steepest descent iterations performed
      20   -0.2063006333E+03   -0.26803E+00    0.11067E-03
     -  10 steepest descent iterations performed
      30   -0.2082559988E+03   -0.26634E-01    0.10666E-04
     -  10 steepest descent iterations performed
      40   -0.2088601262E+03   -0.60886E-01    0.52530E-02
     -  10 steepest descent iterations performed
      50   -0.2089973509E+03   -0.74564E-02    0.27418E-03
      60   -0.2090677007E+03   -0.95578E-02    0.61563E-03
     -  10 steepest descent iterations performed
      70   -0.2091084108E+03   -0.11712E-02    0.20616E-04
      80   -0.2091437634E+03   -0.14958E-02    0.82048E-04
     -  10 steepest descent iterations performed
      90   -0.2091625115E+03   -0.22965E-02    0.16683E-03
     -  10 steepest descent iterations performed
     100   -0.2091692762E+03   -0.48957E-03    0.22250E-04
     110   -0.2091724512E+03   -0.27284E-03    0.13762E-04
     120   -0.2091744086E+03   -0.14867E-03    0.34415E-05
     130   -0.2091757176E+03   -0.11344E-03    0.40380E-05
     140   -0.2091766537E+03   -0.76779E-04    0.13145E-05
     150   -0.2091773599E+03   -0.64005E-04    0.18463E-05
     160   -0.2091779185E+03   -0.48731E-04    0.67990E-06
     170   -0.2091783687E+03   -0.41034E-04    0.10115E-05
     180   -0.2091787381E+03   -0.32897E-04    0.41434E-06
     190   -0.2091790390E+03   -0.26761E-04    0.59938E-06
     200   -0.2091792846E+03   -0.21947E-04    0.27593E-06
     210   -0.2091794827E+03   -0.17209E-04    0.36880E-06
     220   -0.2091796429E+03   -0.14411E-04    0.19074E-06
     230   -0.2091797718E+03   -0.11096E-04    0.23409E-06
     240   -0.2091798764E+03   -0.95541E-05    0.13433E-06
     250   -0.2091799616E+03   -0.73608E-05    0.15426E-06
     260   -0.2091800319E+03   -0.65495E-05    0.96752E-07
     270   -0.2091800903E+03   -0.51055E-05    0.10615E-06
     280   -0.2091801396E+03   -0.46941E-05    0.71696E-07
     290   -0.2091801816E+03   -0.37156E-05    0.76310E-07
     300   -0.2091802179E+03   -0.35167E-05    0.54787E-07
     310   -0.2091802494E+03   -0.28232E-05    0.57091E-07
     320   -0.2091802772E+03   -0.27360E-05    0.43099E-07
     330   -0.2091803018E+03   -0.22207E-05    0.44187E-07
     340   -0.2091803238E+03   -0.21919E-05    0.34755E-07
     350   -0.2091803436E+03   -0.17923E-05    0.35122E-07
     360   -0.2091803614E+03   -0.17939E-05    0.28568E-07
     -  10 steepest descent iterations performed
     370   -0.2091803808E+03   -0.35215E-05    0.12109E-06
     -  10 steepest descent iterations performed
     380   -0.2091803980E+03   -0.13868E-05    0.21469E-07
     390   -0.2091804110E+03   -0.11777E-05    0.22752E-07
     400   -0.2091804228E+03   -0.11669E-05    0.18098E-07
     410   -0.2091804338E+03   -0.99096E-06    0.18932E-07
     420   -0.2091804438E+03   -0.98777E-06    0.15342E-07
     430   -0.2091804530E+03   -0.83810E-06    0.15847E-07
     440   -0.2091804615E+03   -0.83945E-06    0.13040E-07
     -  10 steepest descent iterations performed
     450   -0.2091804708E+03   -0.16798E-05    0.56448E-07
     -  10 steepest descent iterations performed
     460   -0.2091804792E+03   -0.67403E-06    0.10204E-07
     470   -0.2091804857E+03   -0.58444E-06    0.10932E-07
     480   -0.2091804916E+03   -0.57575E-06    0.86949E-08
     490   -0.2091804971E+03   -0.49822E-06    0.92269E-08
     500   -0.2091805022E+03   -0.49227E-06    0.74153E-08
     510   -0.2091805069E+03   -0.42513E-06    0.77978E-08
     520   -0.2091805112E+03   -0.42115E-06    0.63242E-08
     530   -0.2091805152E+03   -0.36300E-06    0.65956E-08
     540   -0.2091805189E+03   -0.36044E-06    0.53936E-08
     550   -0.2091805224E+03   -0.31009E-06    0.55826E-08
     560   -0.2091805255E+03   -0.30855E-06    0.45999E-08
     570   -0.2091805285E+03   -0.26498E-06    0.47280E-08
     580   -0.2091805312E+03   -0.26416E-06    0.39232E-08
     590   -0.2091805337E+03   -0.22647E-06    0.40065E-08
     600   -0.2091805360E+03   -0.22616E-06    0.33463E-08
     610   -0.2091805381E+03   -0.19359E-06    0.33969E-08
     620   -0.2091805401E+03   -0.19363E-06    0.28546E-08
     -  10 steepest descent iterations performed
     630   -0.2091805423E+03   -0.39383E-06    0.12778E-07
     -  10 steepest descent iterations performed
     640   -0.2091805443E+03   -0.15758E-06    0.22742E-08
     650   -0.2091805458E+03   -0.13693E-06    0.23805E-08
     660   -0.2091805472E+03   -0.13494E-06    0.19410E-08
     670   -0.2091805485E+03   -0.11710E-06    0.20215E-08
     680   -0.2091805497E+03   -0.11553E-06    0.16575E-08
     690   -0.2091805508E+03   -0.10013E-06    0.17176E-08
     700   -0.2091805509E+03   -0.98678E-07    0.59300E-09
  *** tolerance ok. iteration terminated
     >>>  ITERATION ENDED   AT Sat Aug 12 21:08:23 2023  <<<


==  Summary Of Results  ==

 number of electrons: spin up=   49.00000  down=   49.00000 (real space)

 total     energy    :  -0.2091805509E+03 (   -0.10459E+02/ion)
 total orbital energy:  -0.2687174042E+02 (   -0.54840E+00/electron)
 hartree   energy    :   0.8250414682E+02 (    0.16838E+01/electron)
 exc-corr  energy    :  -0.4587933271E+02 (   -0.93631E+00/electron)
 ion-ion   energy    :  -0.1130500596E+03 (   -0.56525E+01/ion)

 kinetic (planewave) :   0.1149289062E+03 (    0.23455E+01/electron)
 V_local (planewave) :  -0.2565934630E+03 (   -0.52366E+01/electron)
 V_nl    (planewave) :   0.9045259877E+01 (    0.18460E+00/electron)
 V_Coul  (planewave) :   0.1650082936E+03 (    0.33675E+01/electron)
 V_xc.   (planewave) :  -0.5926073717E+02 (   -0.12094E+01/electron)
 Virial Coefficient  :  -0.1233811852E+01

 Dispersion energy   :  -0.1360085210E+00

 orbital energies:
    -0.1804532E-01 (  -0.491eV)
    -0.2205546E-01 (  -0.600eV)
    -0.2313877E-01 (  -0.630eV)
    -0.3044409E-01 (  -0.828eV)
    -0.3783737E-01 (  -1.030eV)
    -0.3888857E-01 (  -1.058eV)
    -0.3972375E-01 (  -1.081eV)
    -0.4581871E-01 (  -1.247eV)
    -0.5053586E-01 (  -1.375eV)
    -0.5352482E-01 (  -1.456eV)
    -0.5741630E-01 (  -1.562eV)
    -0.6415256E-01 (  -1.746eV)
    -0.6778579E-01 (  -1.845eV)
    -0.7116800E-01 (  -1.937eV)
    -0.7661968E-01 (  -2.085eV)
    -0.7851834E-01 (  -2.137eV)
    -0.8273190E-01 (  -2.251eV)
    -0.9153556E-01 (  -2.491eV)
    -0.1008315E+00 (  -2.744eV)
    -0.1059232E+00 (  -2.882eV)
    -0.1072100E+00 (  -2.917eV)
    -0.1095634E+00 (  -2.981eV)
    -0.1166549E+00 (  -3.174eV)
    -0.1244424E+00 (  -3.386eV)
    -0.1377615E+00 (  -3.749eV)
    -0.1426701E+00 (  -3.882eV)
    -0.1530167E+00 (  -4.164eV)
    -0.1642647E+00 (  -4.470eV)
    -0.2047894E+00 (  -5.573eV)
    -0.2133451E+00 (  -5.805eV)
    -0.2193773E+00 (  -5.970eV)
    -0.2268972E+00 (  -6.174eV)
    -0.2345381E+00 (  -6.382eV)
    -0.2427561E+00 (  -6.606eV)
    -0.2478396E+00 (  -6.744eV)
    -0.2751044E+00 (  -7.486eV)
    -0.3042148E+00 (  -8.278eV)
    -0.7022647E+00 ( -19.110eV)
    -0.7165038E+00 ( -19.497eV)
    -0.7188027E+00 ( -19.560eV)
    -0.7197140E+00 ( -19.585eV)
    -0.7231588E+00 ( -19.678eV)
    -0.7281657E+00 ( -19.815eV)
    -0.7311060E+00 ( -19.895eV)
    -0.7321575E+00 ( -19.923eV)
    -0.7516376E+00 ( -20.453eV)
    -0.7943784E+00 ( -21.616eV)
    -0.8036871E+00 ( -21.870eV)
    -0.9331528E+00 ( -25.393eV)

 Total PSPW energy     :  -0.2091805509E+03


=== Spin Contamination ===

 <Sexact^2> =    0.0000000000000000     
 <S^2>      =    0.0000000000000000     



== Center of Charge ==

spin up     (   -0.0660,    0.3991,    0.5146 )
spin down   (   -0.0660,    0.3991,    0.5146 )
     total  (   -0.0660,    0.3991,    0.5146 )
ionic       (   -0.9234,    0.8321,    0.2694 )


== Molecular Dipole wrt Center of Mass ==

mu   =  (  -84.0293,   42.4329,  -24.0268 ) au
|mu| =    97.1532 au,     246.9247 Debye

 output psi filename:./diamond.movecs


== Timing ==

cputime in seconds
  prologue    :   0.196262E+01
  main loop   :   0.380270E+02
  epilogue    :   0.213770E+00
  total       :   0.402034E+02
  cputime/step:   0.135376E-01       (    2809 evalulations,     691 linesearches)


Time spent doing                        total          step       percent
  total time                 :   0.402130E+02  0.143158E-01       100.0 %
  i/o time                   :   0.131272E+01  0.467328E-03         3.3 %
  FFTs                       :   0.637547E+01  0.226966E-02        15.9 %
  dot products               :   0.201584E+01  0.717635E-03         5.0 %
  geodesic                   :   0.297786E+01  0.106011E-02         7.4 %
  ffm_dgemm                  :   0.100635E+01  0.358259E-03         2.5 %
  fmf_dgemm                  :   0.162977E+01  0.580194E-03         4.1 %
  mmm_dgemm                  :   0.321820E+00  0.114567E-03         0.8 %
  m_diagonalize              :   0.343086E+00  0.122138E-03         0.9 %
  exchange correlation       :   0.681508E+01  0.242616E-02        16.9 %
  local pseudopotentials     :   0.225820E-02  0.803915E-06         0.0 %
  non-local pseudopotentials :   0.184064E+01  0.655267E-03         4.6 %
  hartree potentials         :   0.562488E-01  0.200245E-04         0.1 %
  ion-ion interaction        :   0.970792E-01  0.345601E-04         0.2 %
  structure factors          :   0.686703E-01  0.244465E-04         0.2 %
  phase factors              :   0.258520E-04  0.920328E-08         0.0 %
  masking and packing        :   0.563862E+01  0.200734E-02        14.0 %
  queue fft                  :   0.215189E+02  0.766068E-02        53.5 %
  queue fft (serial)         :   0.292375E+01  0.104085E-02         7.3 %
  queue fft (message passing):   0.184409E+02  0.656495E-02        45.9 %
  non-local psp FFM          :   0.146369E+01  0.521071E-03         3.6 %
  non-local psp FMF          :   0.266292E+00  0.947995E-04         0.7 %
  non-local psp FFM A        :   0.297426E-01  0.105883E-04         0.1 %
  non-local psp FFM B        :   0.514663E+00  0.183219E-03         1.3 %

     >>>  JOB COMPLETED     AT Sat Aug 12 21:08:23 2023  <<<
          ****************************************************
          *                                                  *
          *               NWPW PSPW Calculation              *
          *                                                  *
          * [ (Grassmann/Stiefel manifold implementation)  ] *
          *                                                  *
          *      [ NorthWest Chemistry implementation ]      *
          *                                                  *
          *            version #5.10   06/12/02              *
          *                                                  *
          *    This code was developed by Eric J. Bylaska,   *
          *    and was based upon algorithms and code        *
          *    developed by the group of Prof. John H. Weare *
          *                                                  *
          ****************************************************
     >>>  JOB STARTED       AT Sat Aug 12 21:08:23 2023  <<<
          ================ input data ========================
 pseudopotential is not correctly formatted:Si.vpp                                            

 Generated formatted_filename: ./Si.vpp
 pseudopotential is not correctly formatted:O.vpp                                             

 Generated formatted_filename: ./O.vpp
 pseudopotential is not correctly formatted:H.vpp                                             

 Generated formatted_filename: ./H.vpp
 Error reading psi - bad grid
 nfft :                   20                   20                   96
 ngrid:                   28                   28                  140
 Error reading psi - bad grid
 nfft :                   20                   20                   96
 ngrid:                   28                   28                  140
 Error reading psi - bad grid

 Grid is being converted:
 ------------------------

 To turn off automatic grid conversion:

 set nwpw:psi_nogrid .false.

 old_filename: diamond.movecs                                    
 new_filename: diamond.movecs                                    
 converting  :  20x 20x 96 -->  28x 28x140
converting .... psi:    1 spin: 1
converting .... psi:    2 spin: 1
converting .... psi:    3 spin: 1
converting .... psi:    4 spin: 1
converting .... psi:    5 spin: 1
converting .... psi:    6 spin: 1
converting .... psi:    7 spin: 1
converting .... psi:    8 spin: 1
converting .... psi:    9 spin: 1
converting .... psi:   10 spin: 1
converting .... psi:   11 spin: 1
converting .... psi:   12 spin: 1
converting .... psi:   13 spin: 1
converting .... psi:   14 spin: 1
converting .... psi:   15 spin: 1
converting .... psi:   16 spin: 1
converting .... psi:   17 spin: 1
converting .... psi:   18 spin: 1
converting .... psi:   19 spin: 1
converting .... psi:   20 spin: 1
converting .... psi:   21 spin: 1
converting .... psi:   22 spin: 1
converting .... psi:   23 spin: 1
converting .... psi:   24 spin: 1
converting .... psi:   25 spin: 1
converting .... psi:   26 spin: 1
converting .... psi:   27 spin: 1
converting .... psi:   28 spin: 1
converting .... psi:   29 spin: 1
converting .... psi:   30 spin: 1
converting .... psi:   31 spin: 1
converting .... psi:   32 spin: 1
converting .... psi:   33 spin: 1
converting .... psi:   34 spin: 1
converting .... psi:   35 spin: 1
converting .... psi:   36 spin: 1
converting .... psi:   37 spin: 1
converting .... psi:   38 spin: 1
converting .... psi:   39 spin: 1
converting .... psi:   40 spin: 1
converting .... psi:   41 spin: 1
converting .... psi:   42 spin: 1
converting .... psi:   43 spin: 1
converting .... psi:   44 spin: 1
converting .... psi:   45 spin: 1
converting .... psi:   46 spin: 1
converting .... psi:   47 spin: 1
converting .... psi:   48 spin: 1
converting .... psi:   49 spin: 1

 input psi filename:./diamond.movecs

 number of processors used:        30
 processor grid           :  15 x   2
 parallel mapping         :2d-hilbert
 parallel mapping         :  balanced
 number of threads        :         1
 parallel io              :       off

 options:
      boundary conditions  = periodic    (version3)
      electron spin        = restricted
      exchange-correlation = revPBE (White and Bird) parameterization
      dispersion correction= Grimme4

 elements involved in the cluster:
      1: Si  valence charge:  4.0000  lmax=  2
             comment    : Hamann pseudopotential
             pseudpotential type            :   0
             highest angular component      :   2
             local potential used           :   2
             number of non-local projections:   4
             cutoff =   1.070   1.286   1.286

      2: O   valence charge:  6.0000  lmax=  2
             comment    : Parameterized (Chem.Phys.Lett., vol 322, page 447) Hamman psp
             pseudpotential type            :   0
             highest angular component      :   2
             local potential used           :   2
             number of non-local projections:   4
             cutoff =   0.700   0.700   0.700

      3: H   valence charge:  1.0000  lmax=  1
             comment    : Parameterized (Chem.Phys.Lett., vol 322, page 447) Hamman psp
             pseudpotential type            :   0
             highest angular component      :   1
             local potential used           :   1
             number of non-local projections:   1
             cutoff =   0.800   0.800


 total charge:   0.000

 atomic composition:
     Si  :    6     O   :   12     H   :    2

 number of electrons: spin up=    49 (  25 per task)  down=    49 (  25 per task) (Fourier space)
 number of orbitals : spin up=    49 (  25 per task)  down=    49 (  25 per task) (Fourier space)

 supercell:
      cell_name:  cell_default                                      
      lattice:    a1=<   8.228  -4.751   0.000 >
                  a2=<   0.000   9.501   0.000 >
                  a3=<   0.000   0.000  41.574 >
      reciprocal: b1=<   0.764   0.000  -0.000 >
                  b2=<   0.382   0.661  -0.000 >
                  b3=<  -0.000   0.000   0.151 >
      lattice:    a=       9.501 b=      9.501 c=      41.574
                  alpha=  90.000 beta=  90.000 gamma= 120.000
                  omega=      3250.1

      density cutoff= 50.000  fft= 28x 28x140(    26523 waves     1768 per task)
      wavefnc cutoff= 25.000  fft= 28x 28x140(     9767 waves      651 per task)
      Ewald summation: cut radius=    3.00  and  8
                       Madelung Wigner-Seitz=   -1.04226055 (alpha=   -1.68011562 rs= 9.18906583)

 technical parameters:
      time step=      5.80     fictitious mass=  400000.0
      tolerance=0.100E-06 (energy)   0.100E-06 (density)
      maximum iterations =      1000 (   10 inner    100 outer )





== Energy Calculation ==


          ====== Grassmann conjugate gradient iteration ======
     >>>  ITERATION STARTED AT Sat Aug 12 21:08:31 2023  <<<
    iter.           Energy         DeltaE       DeltaRho 
    ------------------------------------------------------
      10   -0.2150533501E+03   -0.30766E-01    0.49045E-02
     -  10 steepest descent iterations performed
      20   -0.2150663773E+03   -0.20531E-03    0.35084E-05
      30   -0.2150670971E+03   -0.66575E-04    0.20337E-05
      40   -0.2150673601E+03   -0.18320E-04    0.62956E-06
      50   -0.2150675049E+03   -0.12326E-04    0.32457E-06
      60   -0.2150675952E+03   -0.59656E-05    0.13625E-06
      70   -0.2150676562E+03   -0.52882E-05    0.11195E-06
      80   -0.2150676994E+03   -0.29588E-05    0.52136E-07
      90   -0.2150677312E+03   -0.28688E-05    0.50120E-07
     100   -0.2150677552E+03   -0.17111E-05    0.25008E-07
     110   -0.2150677739E+03   -0.17366E-05    0.25963E-07
     -  10 steepest descent iterations performed
     120   -0.2150678020E+03   -0.12660E-04    0.14549E-05
     -  10 steepest descent iterations performed
     130   -0.2150678186E+03   -0.44665E-06    0.35112E-08
     140   -0.2150678251E+03   -0.80245E-06    0.14534E-07
     -  10 steepest descent iterations performed
     150   -0.2150678357E+03   -0.49979E-05    0.53105E-06
     -  10 steepest descent iterations performed
     160   -0.2150678424E+03   -0.21214E-06    0.24742E-08
     170   -0.2150678452E+03   -0.46377E-06    0.10106E-07
     -  10 steepest descent iterations performed
     180   -0.2150678488E+03   -0.10841E-05    0.59795E-07
     -  10 steepest descent iterations performed
     190   -0.2150678514E+03   -0.24138E-06    0.51144E-08
     200   -0.2150678529E+03   -0.15135E-06    0.29971E-08
     210   -0.2150678540E+03   -0.99079E-07    0.12826E-08
  *** tolerance ok. iteration terminated
     >>>  ITERATION ENDED   AT Sat Aug 12 21:08:55 2023  <<<


==  Summary Of Results  ==

 number of electrons: spin up=   49.00000  down=   49.00000 (real space)

 total     energy    :  -0.2150678540E+03 (   -0.10753E+02/ion)
 total orbital energy:  -0.2488406492E+02 (   -0.50784E+00/electron)
 hartree   energy    :   0.9089214748E+02 (    0.18549E+01/electron)
 exc-corr  energy    :  -0.4752540301E+02 (   -0.96991E+00/electron)
 ion-ion   energy    :  -0.1130500596E+03 (   -0.56525E+01/ion)

 kinetic (planewave) :   0.1341398580E+03 (    0.27375E+01/electron)
 V_local (planewave) :  -0.2774302644E+03 (   -0.56618E+01/electron)
 V_nl    (planewave) :  -0.1958124073E+01 (   -0.39962E-01/electron)
 V_Coul  (planewave) :   0.1817842950E+03 (    0.37099E+01/electron)
 V_xc.   (planewave) :  -0.6141982946E+02 (   -0.12535E+01/electron)
 Virial Coefficient  :  -0.1185508359E+01

 Dispersion energy   :  -0.1360085210E+00

 orbital energies:
    -0.3560414E-01 (  -0.969eV)
    -0.3908943E-01 (  -1.064eV)
    -0.4084089E-01 (  -1.111eV)
    -0.4600415E-01 (  -1.252eV)
    -0.5043273E-01 (  -1.372eV)
    -0.5221943E-01 (  -1.421eV)
    -0.5349724E-01 (  -1.456eV)
    -0.5735938E-01 (  -1.561eV)
    -0.6455522E-01 (  -1.757eV)
    -0.6594292E-01 (  -1.794eV)
    -0.6902616E-01 (  -1.878eV)
    -0.7547727E-01 (  -2.054eV)
    -0.7923727E-01 (  -2.156eV)
    -0.8364753E-01 (  -2.276eV)
    -0.8714353E-01 (  -2.371eV)
    -0.9021391E-01 (  -2.455eV)
    -0.9104349E-01 (  -2.477eV)
    -0.1001433E+00 (  -2.725eV)
    -0.1081445E+00 (  -2.943eV)
    -0.1131130E+00 (  -3.078eV)
    -0.1143585E+00 (  -3.112eV)
    -0.1172448E+00 (  -3.190eV)
    -0.1216558E+00 (  -3.310eV)
    -0.1330259E+00 (  -3.620eV)
    -0.1402447E+00 (  -3.816eV)
    -0.1512417E+00 (  -4.116eV)
    -0.1521556E+00 (  -4.140eV)
    -0.1666314E+00 (  -4.534eV)
    -0.2082981E+00 (  -5.668eV)
    -0.2120092E+00 (  -5.769eV)
    -0.2214179E+00 (  -6.025eV)
    -0.2257491E+00 (  -6.143eV)
    -0.2397588E+00 (  -6.524eV)
    -0.2434508E+00 (  -6.625eV)
    -0.2501529E+00 (  -6.807eV)
    -0.2749302E+00 (  -7.481eV)
    -0.3061079E+00 (  -8.330eV)
    -0.5904163E+00 ( -16.066eV)
    -0.6041830E+00 ( -16.441eV)
    -0.6084775E+00 ( -16.558eV)
    -0.6103111E+00 ( -16.608eV)
    -0.6129120E+00 ( -16.678eV)
    -0.6182691E+00 ( -16.824eV)
    -0.6220469E+00 ( -16.927eV)
    -0.6253467E+00 ( -17.017eV)
    -0.6425975E+00 ( -17.486eV)
    -0.6913492E+00 ( -18.813eV)
    -0.7048727E+00 ( -19.181eV)
    -0.8300814E+00 ( -22.588eV)

 Total PSPW energy     :  -0.2150678540E+03


=== Spin Contamination ===

 <Sexact^2> =    0.0000000000000000     
 <S^2>      =    0.0000000000000000     



== Center of Charge ==

spin up     (   -0.0719,    0.4529,    0.4050 )
spin down   (   -0.0719,    0.4529,    0.4050 )
     total  (   -0.0719,    0.4529,    0.4050 )
ionic       (   -0.9234,    0.8321,    0.2694 )


== Molecular Dipole wrt Center of Mass ==

mu   =  (  -83.4515,   37.1633,  -13.2849 ) au
|mu| =    92.3133 au,     234.6236 Debye

 output psi filename:./diamond.movecs


== Timing ==

cputime in seconds
  prologue    :   0.834103E+01
  main loop   :   0.238735E+02
  epilogue    :   0.476879E+00
  total       :   0.326914E+02
  cputime/step:   0.278895E-01       (     856 evalulations,     209 linesearches)


Time spent doing                        total          step       percent
  total time                 :   0.326973E+02  0.381978E-01       100.0 %
  i/o time                   :   0.994891E+00  0.116226E-02         3.0 %
  FFTs                       :   0.434565E+01  0.507669E-02        13.3 %
  dot products               :   0.115481E+01  0.134908E-02         3.5 %
  geodesic                   :   0.198454E+01  0.231839E-02         6.1 %
  ffm_dgemm                  :   0.823099E+00  0.961564E-03         2.5 %
  fmf_dgemm                  :   0.144734E+01  0.169082E-02         4.4 %
  mmm_dgemm                  :   0.100845E+00  0.117810E-03         0.3 %
  m_diagonalize              :   0.106812E+00  0.124781E-03         0.3 %
  exchange correlation       :   0.458879E+01  0.536074E-02        14.0 %
  local pseudopotentials     :   0.138795E-03  0.162144E-06         0.0 %
  non-local pseudopotentials :   0.128932E+01  0.150621E-02         3.9 %
  hartree potentials         :   0.220779E-01  0.257919E-04         0.1 %
  ion-ion interaction        :   0.306196E-01  0.357705E-04         0.1 %
  structure factors          :   0.577698E-01  0.674881E-04         0.2 %
  phase factors              :   0.298010E-04  0.348143E-07         0.0 %
  masking and packing        :   0.458481E+01  0.535608E-02        14.0 %
  queue fft                  :   0.130440E+02  0.152383E-01        39.9 %
  queue fft (serial)         :   0.414282E+01  0.483974E-02        12.7 %
  queue fft (message passing):   0.880548E+01  0.102868E-01        26.9 %
  non-local psp FFM          :   0.979708E+00  0.114452E-02         3.0 %
  non-local psp FMF          :   0.232304E+00  0.271384E-03         0.7 %
  non-local psp FFM A        :   0.272840E-01  0.318739E-04         0.1 %
  non-local psp FFM B        :   0.422704E+00  0.493813E-03         1.3 %

     >>>  JOB COMPLETED     AT Sat Aug 12 21:08:56 2023  <<<
          ****************************************************
          *                                                  *
          *               NWPW PSPW Calculation              *
          *                                                  *
          * [ (Grassmann/Stiefel manifold implementation)  ] *
          *                                                  *
          *      [ NorthWest Chemistry implementation ]      *
          *                                                  *
          *            version #5.10   06/12/02              *
          *                                                  *
          *    This code was developed by Eric J. Bylaska,   *
          *    and was based upon algorithms and code        *
          *    developed by the group of Prof. John H. Weare *
          *                                                  *
          ****************************************************
     >>>  JOB STARTED       AT Sat Aug 12 21:08:56 2023  <<<
          ================ input data ========================
 pseudopotential is not correctly formatted:Si.vpp                                            

 Generated formatted_filename: ./Si.vpp
 pseudopotential is not correctly formatted:O.vpp                                             

 Generated formatted_filename: ./O.vpp
 pseudopotential is not correctly formatted:H.vpp                                             

 Generated formatted_filename: ./H.vpp
 Error reading psi - bad grid
 nfft :                   28                   28                  140
 ngrid:                   36                   36                  168
 Error reading psi - bad grid
 nfft :                   28                   28                  140
 ngrid:                   36                   36                  168
 Error reading psi - bad grid

 Grid is being converted:
 ------------------------

 To turn off automatic grid conversion:

 set nwpw:psi_nogrid .false.

 old_filename: diamond.movecs                                    
 new_filename: diamond.movecs                                    
 converting  :  28x 28x140 -->  36x 36x168
converting .... psi:    1 spin: 1
converting .... psi:    2 spin: 1
converting .... psi:    3 spin: 1
converting .... psi:    4 spin: 1
converting .... psi:    5 spin: 1
converting .... psi:    6 spin: 1
converting .... psi:    7 spin: 1
converting .... psi:    8 spin: 1
converting .... psi:    9 spin: 1
converting .... psi:   10 spin: 1
converting .... psi:   11 spin: 1
converting .... psi:   12 spin: 1
converting .... psi:   13 spin: 1
converting .... psi:   14 spin: 1
converting .... psi:   15 spin: 1
converting .... psi:   16 spin: 1
converting .... psi:   17 spin: 1
converting .... psi:   18 spin: 1
converting .... psi:   19 spin: 1
converting .... psi:   20 spin: 1
converting .... psi:   21 spin: 1
converting .... psi:   22 spin: 1
converting .... psi:   23 spin: 1
converting .... psi:   24 spin: 1
converting .... psi:   25 spin: 1
converting .... psi:   26 spin: 1
converting .... psi:   27 spin: 1
converting .... psi:   28 spin: 1
converting .... psi:   29 spin: 1
converting .... psi:   30 spin: 1
converting .... psi:   31 spin: 1
converting .... psi:   32 spin: 1
converting .... psi:   33 spin: 1
converting .... psi:   34 spin: 1
converting .... psi:   35 spin: 1
converting .... psi:   36 spin: 1
converting .... psi:   37 spin: 1
converting .... psi:   38 spin: 1
converting .... psi:   39 spin: 1
converting .... psi:   40 spin: 1
converting .... psi:   41 spin: 1
converting .... psi:   42 spin: 1
converting .... psi:   43 spin: 1
converting .... psi:   44 spin: 1
converting .... psi:   45 spin: 1
converting .... psi:   46 spin: 1
converting .... psi:   47 spin: 1
converting .... psi:   48 spin: 1
converting .... psi:   49 spin: 1

 input psi filename:./diamond.movecs

 number of processors used:        30
 processor grid           :  30 x   1
 parallel mapping         :2d-hilbert
 parallel mapping         :  balanced
 number of threads        :         1
 parallel io              :       off

 options:
      boundary conditions  = periodic    (version3)
      electron spin        = restricted
      exchange-correlation = revPBE (White and Bird) parameterization
      dispersion correction= Grimme4

 elements involved in the cluster:
      1: Si  valence charge:  4.0000  lmax=  2
             comment    : Hamann pseudopotential
             pseudpotential type            :   0
             highest angular component      :   2
             local potential used           :   2
             number of non-local projections:   4
             cutoff =   1.070   1.286   1.286

      2: O   valence charge:  6.0000  lmax=  2
             comment    : Parameterized (Chem.Phys.Lett., vol 322, page 447) Hamman psp
             pseudpotential type            :   0
             highest angular component      :   2
             local potential used           :   2
             number of non-local projections:   4
             cutoff =   0.700   0.700   0.700

      3: H   valence charge:  1.0000  lmax=  1
             comment    : Parameterized (Chem.Phys.Lett., vol 322, page 447) Hamman psp
             pseudpotential type            :   0
             highest angular component      :   1
             local potential used           :   1
             number of non-local projections:   1
             cutoff =   0.800   0.800


 total charge:   0.000

 atomic composition:
     Si  :    6     O   :   12     H   :    2

 number of electrons: spin up=    49 (  49 per task)  down=    49 (  49 per task) (Fourier space)
 number of orbitals : spin up=    49 (  49 per task)  down=    49 (  49 per task) (Fourier space)

 supercell:
      cell_name:  cell_default                                      
      lattice:    a1=<   8.228  -4.751   0.000 >
                  a2=<   0.000   9.501   0.000 >
                  a3=<   0.000   0.000  41.574 >
      reciprocal: b1=<   0.764   0.000  -0.000 >
                  b2=<   0.382   0.661  -0.000 >
                  b3=<  -0.000   0.000   0.151 >
      lattice:    a=       9.501 b=      9.501 c=      41.574
                  alpha=  90.000 beta=  90.000 gamma= 120.000
                  omega=      3250.1

      density cutoff= 75.000  fft= 36x 36x168(    49951 waves     1665 per task)
      wavefnc cutoff= 37.500  fft= 36x 36x168(    17749 waves      591 per task)
      Ewald summation: cut radius=    3.00  and  8
                       Madelung Wigner-Seitz=   -1.04226055 (alpha=   -1.68011562 rs= 9.18906583)

 technical parameters:
      time step=      5.80     fictitious mass=  400000.0
      tolerance=0.100E-06 (energy)   0.100E-06 (density)
      maximum iterations =      1000 (   10 inner    100 outer )





== Energy Calculation ==


          ====== Grassmann conjugate gradient iteration ======
     >>>  ITERATION STARTED AT Sat Aug 12 21:09:05 2023  <<<
    iter.           Energy         DeltaE       DeltaRho 
    ------------------------------------------------------
      10   -0.2151332778E+03   -0.76013E-04    0.90237E-06
      20   -0.2151334716E+03   -0.96414E-05    0.11275E-06
      30   -0.2151334937E+03   -0.16700E-05    0.15652E-07
      40   -0.2151335023E+03   -0.95972E-06    0.20201E-07
      50   -0.2151335073E+03   -0.47385E-06    0.60219E-08
      60   -0.2151335107E+03   -0.41774E-06    0.86908E-08
      70   -0.2151335133E+03   -0.25166E-06    0.29887E-08
      80   -0.2151335153E+03   -0.24783E-06    0.47176E-08
      90   -0.2151335170E+03   -0.16076E-06    0.17673E-08
     100   -0.2151335183E+03   -0.16694E-06    0.29524E-08
     -  10 steepest descent iterations performed
     110   -0.2151335189E+03   -0.94527E-07    0.70449E-09
  *** tolerance ok. iteration terminated
     >>>  ITERATION ENDED   AT Sat Aug 12 21:09:21 2023  <<<


==  Summary Of Results  ==

 number of electrons: spin up=   49.00000  down=   49.00000 (real space)

 total     energy    :  -0.2151335189E+03 (   -0.10757E+02/ion)
 total orbital energy:  -0.2478237480E+02 (   -0.50576E+00/electron)
 hartree   energy    :   0.9105320799E+02 (    0.18582E+01/electron)
 exc-corr  energy    :  -0.4749097747E+02 (   -0.96920E+00/electron)
 ion-ion   energy    :  -0.1130500596E+03 (   -0.56525E+01/ion)

 kinetic (planewave) :   0.1343318383E+03 (    0.27415E+01/electron)
 V_local (planewave) :  -0.2776871302E+03 (   -0.56671E+01/electron)
 V_nl    (planewave) :  -0.2154389531E+01 (   -0.43967E-01/electron)
 V_Coul  (planewave) :   0.1821064160E+03 (    0.37165E+01/electron)
 V_xc.   (planewave) :  -0.6137910940E+02 (   -0.12526E+01/electron)
 Virial Coefficient  :  -0.1184486233E+01

 Dispersion energy   :  -0.1360085210E+00

 orbital energies:
    -0.3459739E-01 (  -0.941eV)
    -0.3809118E-01 (  -1.037eV)
    -0.3991591E-01 (  -1.086eV)
    -0.4508775E-01 (  -1.227eV)
    -0.4927856E-01 (  -1.341eV)
    -0.5140963E-01 (  -1.399eV)
    -0.5263172E-01 (  -1.432eV)
    -0.5635262E-01 (  -1.533eV)
    -0.6337222E-01 (  -1.724eV)
    -0.6472758E-01 (  -1.761eV)
    -0.6806971E-01 (  -1.852eV)
    -0.7434339E-01 (  -2.023eV)
    -0.7832565E-01 (  -2.131eV)
    -0.8260784E-01 (  -2.248eV)
    -0.8616345E-01 (  -2.345eV)
    -0.8912912E-01 (  -2.425eV)
    -0.9006026E-01 (  -2.451eV)
    -0.9917407E-01 (  -2.699eV)
    -0.1070504E+00 (  -2.913eV)
    -0.1120624E+00 (  -3.049eV)
    -0.1133706E+00 (  -3.085eV)
    -0.1162547E+00 (  -3.163eV)
    -0.1207371E+00 (  -3.285eV)
    -0.1323012E+00 (  -3.600eV)
    -0.1395019E+00 (  -3.796eV)
    -0.1500896E+00 (  -4.084eV)
    -0.1513698E+00 (  -4.119eV)
    -0.1658656E+00 (  -4.513eV)
    -0.2074346E+00 (  -5.645eV)
    -0.2110991E+00 (  -5.744eV)
    -0.2204151E+00 (  -5.998eV)
    -0.2249788E+00 (  -6.122eV)
    -0.2386875E+00 (  -6.495eV)
    -0.2423955E+00 (  -6.596eV)
    -0.2495080E+00 (  -6.790eV)
    -0.2742753E+00 (  -7.463eV)
    -0.3053773E+00 (  -8.310eV)
    -0.5890874E+00 ( -16.030eV)
    -0.6027696E+00 ( -16.402eV)
    -0.6073015E+00 ( -16.526eV)
    -0.6088892E+00 ( -16.569eV)
    -0.6116743E+00 ( -16.645eV)
    -0.6168747E+00 ( -16.786eV)
    -0.6206831E+00 ( -16.890eV)
    -0.6239707E+00 ( -16.979eV)
    -0.6412315E+00 ( -17.449eV)
    -0.6897822E+00 ( -18.770eV)
    -0.7038345E+00 ( -19.152eV)
    -0.8289760E+00 ( -22.558eV)

 Total PSPW energy     :  -0.2151335189E+03


=== Spin Contamination ===

 <Sexact^2> =    0.0000000000000000     
 <S^2>      =    0.0000000000000000     



== Center of Charge ==

spin up     (   -0.0740,    0.4695,    0.3557 )
spin down   (   -0.0740,    0.4695,    0.3557 )
     total  (   -0.0740,    0.4695,    0.3557 )
ionic       (   -0.9234,    0.8321,    0.2694 )


== Molecular Dipole wrt Center of Mass ==

mu   =  (  -83.2423,   35.5344,   -8.4542 ) au
|mu| =    90.9035 au,     231.0403 Debye

 output psi filename:./diamond.movecs


== Timing ==

cputime in seconds
  prologue    :   0.919923E+01
  main loop   :   0.158913E+02
  epilogue    :   0.796614E+00
  total       :   0.258872E+02
  cputime/step:   0.419296E-01       (     379 evalulations,     103 linesearches)


Time spent doing                        total          step       percent
  total time                 :   0.258926E+02  0.683182E-01       100.0 %
  i/o time                   :   0.154109E+01  0.406620E-02         6.0 %
  FFTs                       :   0.190602E+01  0.502908E-02         7.4 %
  dot products               :   0.107890E+01  0.284669E-02         4.2 %
  geodesic                   :   0.633865E+00  0.167247E-02         2.4 %
  ffm_dgemm                  :   0.125448E+00  0.330996E-03         0.5 %
  fmf_dgemm                  :   0.308332E+00  0.813542E-03         1.2 %
  mmm_dgemm                  :   0.428307E-01  0.113010E-03         0.2 %
  m_diagonalize              :   0.520812E-01  0.137417E-03         0.2 %
  exchange correlation       :   0.183302E+01  0.483646E-02         7.1 %
  local pseudopotentials     :   0.150946E-03  0.398274E-06         0.0 %
  non-local pseudopotentials :   0.989340E+00  0.261040E-02         3.8 %
  hartree potentials         :   0.113479E-01  0.299417E-04         0.0 %
  ion-ion interaction        :   0.172550E-01  0.455278E-04         0.1 %
  structure factors          :   0.264504E-01  0.697899E-04         0.1 %
  phase factors              :   0.444420E-04  0.117261E-06         0.0 %
  masking and packing        :   0.141535E+01  0.373442E-02         5.5 %
  queue fft                  :   0.106987E+02  0.282289E-01        41.3 %
  queue fft (serial)         :   0.237354E+01  0.626265E-02         9.2 %
  queue fft (message passing):   0.823725E+01  0.217342E-01        31.8 %
  non-local psp FFM          :   0.787097E+00  0.207677E-02         3.0 %
  non-local psp FMF          :   0.168863E+00  0.445550E-03         0.7 %
  non-local psp FFM A        :   0.139698E-01  0.368596E-04         0.1 %
  non-local psp FFM B        :   0.378960E+00  0.999895E-03         1.5 %

     >>>  JOB COMPLETED     AT Sat Aug 12 21:09:22 2023  <<<
          ****************************************************
          *                                                  *
          *               NWPW PSPW Calculation              *
          *                                                  *
          * [ (Grassmann/Stiefel manifold implementation)  ] *
          *                                                  *
          *      [ NorthWest Chemistry implementation ]      *
          *                                                  *
          *            version #5.10   06/12/02              *
          *                                                  *
          *    This code was developed by Eric J. Bylaska,   *
          *    and was based upon algorithms and code        *
          *    developed by the group of Prof. John H. Weare *
          *                                                  *
          ****************************************************
     >>>  JOB STARTED       AT Sat Aug 12 21:09:22 2023  <<<
          ================ input data ========================
 pseudopotential is not correctly formatted:Si.vpp                                            

 Generated formatted_filename: ./Si.vpp
 pseudopotential is not correctly formatted:O.vpp                                             

 Generated formatted_filename: ./O.vpp
 pseudopotential is not correctly formatted:H.vpp                                             

 Generated formatted_filename: ./H.vpp
 Error reading psi - bad grid
 nfft :                   36                   36                  168
 ngrid:                   40                   40                  192
 Error reading psi - bad grid
 nfft :                   36                   36                  168
 ngrid:                   40                   40                  192
 Error reading psi - bad grid

 Grid is being converted:
 ------------------------

 To turn off automatic grid conversion:

 set nwpw:psi_nogrid .false.

 old_filename: diamond.movecs                                    
 new_filename: diamond.movecs                                    
 converting  :  36x 36x168 -->  40x 40x192
converting .... psi:    1 spin: 1
converting .... psi:    2 spin: 1
converting .... psi:    3 spin: 1
converting .... psi:    4 spin: 1
converting .... psi:    5 spin: 1
converting .... psi:    6 spin: 1
converting .... psi:    7 spin: 1
converting .... psi:    8 spin: 1
converting .... psi:    9 spin: 1
converting .... psi:   10 spin: 1
converting .... psi:   11 spin: 1
converting .... psi:   12 spin: 1
converting .... psi:   13 spin: 1
converting .... psi:   14 spin: 1
converting .... psi:   15 spin: 1
converting .... psi:   16 spin: 1
converting .... psi:   17 spin: 1
converting .... psi:   18 spin: 1
converting .... psi:   19 spin: 1
converting .... psi:   20 spin: 1
converting .... psi:   21 spin: 1
converting .... psi:   22 spin: 1
converting .... psi:   23 spin: 1
converting .... psi:   24 spin: 1
converting .... psi:   25 spin: 1
converting .... psi:   26 spin: 1
converting .... psi:   27 spin: 1
converting .... psi:   28 spin: 1
converting .... psi:   29 spin: 1
converting .... psi:   30 spin: 1
converting .... psi:   31 spin: 1
converting .... psi:   32 spin: 1
converting .... psi:   33 spin: 1
converting .... psi:   34 spin: 1
converting .... psi:   35 spin: 1
converting .... psi:   36 spin: 1
converting .... psi:   37 spin: 1
converting .... psi:   38 spin: 1
converting .... psi:   39 spin: 1
converting .... psi:   40 spin: 1
converting .... psi:   41 spin: 1
converting .... psi:   42 spin: 1
converting .... psi:   43 spin: 1
converting .... psi:   44 spin: 1
converting .... psi:   45 spin: 1
converting .... psi:   46 spin: 1
converting .... psi:   47 spin: 1
converting .... psi:   48 spin: 1
converting .... psi:   49 spin: 1

 input psi filename:./diamond.movecs

 number of processors used:        30
 processor grid           :  30 x   1
 parallel mapping         :2d-hilbert
 parallel mapping         :  balanced
 number of threads        :         1
 parallel io              :       off

 options:
      boundary conditions  = periodic    (version3)
      electron spin        = restricted
      exchange-correlation = revPBE (White and Bird) parameterization
      dispersion correction= Grimme4

 elements involved in the cluster:
      1: Si  valence charge:  4.0000  lmax=  2
             comment    : Hamann pseudopotential
             pseudpotential type            :   0
             highest angular component      :   2
             local potential used           :   2
             number of non-local projections:   4
             cutoff =   1.070   1.286   1.286

      2: O   valence charge:  6.0000  lmax=  2
             comment    : Parameterized (Chem.Phys.Lett., vol 322, page 447) Hamman psp
             pseudpotential type            :   0
             highest angular component      :   2
             local potential used           :   2
             number of non-local projections:   4
             cutoff =   0.700   0.700   0.700

      3: H   valence charge:  1.0000  lmax=  1
             comment    : Parameterized (Chem.Phys.Lett., vol 322, page 447) Hamman psp
             pseudpotential type            :   0
             highest angular component      :   1
             local potential used           :   1
             number of non-local projections:   1
             cutoff =   0.800   0.800


 total charge:   0.000

 atomic composition:
     Si  :    6     O   :   12     H   :    2

 number of electrons: spin up=    49 (  49 per task)  down=    49 (  49 per task) (Fourier space)
 number of orbitals : spin up=    49 (  49 per task)  down=    49 (  49 per task) (Fourier space)

 supercell:
      cell_name:  cell_default                                      
      lattice:    a1=<   8.228  -4.751   0.000 >
                  a2=<   0.000   9.501   0.000 >
                  a3=<   0.000   0.000  41.574 >
      reciprocal: b1=<   0.764   0.000  -0.000 >
                  b2=<   0.382   0.661  -0.000 >
                  b3=<  -0.000   0.000   0.151 >
      lattice:    a=       9.501 b=      9.501 c=      41.574
                  alpha=  90.000 beta=  90.000 gamma= 120.000
                  omega=      3250.1

      density cutoff=100.000  fft= 40x 40x192(    75906 waves     2530 per task)
      wavefnc cutoff= 50.000  fft= 40x 40x192(    27361 waves      912 per task)
      Ewald summation: cut radius=    3.00  and  8
                       Madelung Wigner-Seitz=   -1.04226055 (alpha=   -1.68011562 rs= 9.18906583)

 technical parameters:
      time step=      5.80     fictitious mass=  400000.0
      tolerance=0.100E-06 (energy)   0.100E-06 (density)
      maximum iterations =      1000 (   10 inner    100 outer )





== Energy Calculation ==


          ====== Grassmann conjugate gradient iteration ======
     >>>  ITERATION STARTED AT Sat Aug 12 21:09:31 2023  <<<
    iter.           Energy         DeltaE       DeltaRho 
    ------------------------------------------------------
      10   -0.2152501012E+03   -0.33063E-05    0.50812E-07
      20   -0.2152501091E+03   -0.29048E-06    0.18856E-07
      30   -0.2152501108E+03   -0.21914E-06    0.43972E-08
      40   -0.2152501117E+03   -0.80182E-07    0.19094E-08
  *** tolerance ok. iteration terminated
     >>>  ITERATION ENDED   AT Sat Aug 12 21:09:38 2023  <<<


==  Summary Of Results  ==

 number of electrons: spin up=   49.00000  down=   49.00000 (real space)

 total     energy    :  -0.2152501117E+03 (   -0.10763E+02/ion)
 total orbital energy:  -0.2475739227E+02 (   -0.50525E+00/electron)
 hartree   energy    :   0.9120446966E+02 (    0.18613E+01/electron)
 exc-corr  energy    :  -0.4753804791E+02 (   -0.97016E+00/electron)
 ion-ion   energy    :  -0.1130500596E+03 (   -0.56525E+01/ion)

 kinetic (planewave) :   0.1347277857E+03 (    0.27495E+01/electron)
 V_local (planewave) :  -0.2780735649E+03 (   -0.56750E+01/electron)
 V_nl    (planewave) :  -0.2384686205E+01 (   -0.48667E-01/electron)
 V_Coul  (planewave) :   0.1824089393E+03 (    0.37226E+01/electron)
 V_xc.   (planewave) :  -0.6143586619E+02 (   -0.12538E+01/electron)
 Virial Coefficient  :  -0.1183758622E+01

 Dispersion energy   :  -0.1360085210E+00

 orbital energies:
    -0.3502459E-01 (  -0.953eV)
    -0.3851798E-01 (  -1.048eV)
    -0.4034928E-01 (  -1.098eV)
    -0.4546479E-01 (  -1.237eV)
    -0.4960473E-01 (  -1.350eV)
    -0.5177733E-01 (  -1.409eV)
    -0.5302020E-01 (  -1.443eV)
    -0.5670151E-01 (  -1.543eV)
    -0.6371319E-01 (  -1.734eV)
    -0.6507180E-01 (  -1.771eV)
    -0.6840309E-01 (  -1.861eV)
    -0.7466382E-01 (  -2.032eV)
    -0.7865260E-01 (  -2.140eV)
    -0.8313499E-01 (  -2.262eV)
    -0.8643609E-01 (  -2.352eV)
    -0.8954458E-01 (  -2.437eV)
    -0.9031735E-01 (  -2.458eV)
    -0.9947610E-01 (  -2.707eV)
    -0.1073356E+00 (  -2.921eV)
    -0.1123039E+00 (  -3.056eV)
    -0.1136262E+00 (  -3.092eV)
    -0.1165287E+00 (  -3.171eV)
    -0.1209524E+00 (  -3.291eV)
    -0.1326046E+00 (  -3.608eV)
    -0.1396973E+00 (  -3.801eV)
    -0.1504386E+00 (  -4.094eV)
    -0.1516126E+00 (  -4.126eV)
    -0.1661596E+00 (  -4.521eV)
    -0.2076769E+00 (  -5.651eV)
    -0.2111128E+00 (  -5.745eV)
    -0.2204611E+00 (  -5.999eV)
    -0.2250932E+00 (  -6.125eV)
    -0.2388372E+00 (  -6.499eV)
    -0.2425496E+00 (  -6.600eV)
    -0.2496883E+00 (  -6.794eV)
    -0.2743872E+00 (  -7.467eV)
    -0.3055525E+00 (  -8.315eV)
    -0.5870303E+00 ( -15.974eV)
    -0.6006964E+00 ( -16.346eV)
    -0.6053384E+00 ( -16.472eV)
    -0.6069116E+00 ( -16.515eV)
    -0.6097350E+00 ( -16.592eV)
    -0.6149411E+00 ( -16.734eV)
    -0.6187574E+00 ( -16.837eV)
    -0.6220812E+00 ( -16.928eV)
    -0.6392840E+00 ( -17.396eV)
    -0.6880458E+00 ( -18.723eV)
    -0.7021365E+00 ( -19.106eV)
    -0.8272461E+00 ( -22.511eV)

 Total PSPW energy     :  -0.2152501117E+03


=== Spin Contamination ===

 <Sexact^2> =    0.0000000000000000     
 <S^2>      =    0.0000000000000000     



== Center of Charge ==

spin up     (   -0.0747,    0.4763,    0.3381 )
spin down   (   -0.0747,    0.4763,    0.3381 )
     total  (   -0.0747,    0.4763,    0.3381 )
ionic       (   -0.9234,    0.8321,    0.2694 )


== Molecular Dipole wrt Center of Mass ==

mu   =  (  -83.1748,   34.8650,   -6.7329 ) au
|mu| =    90.4375 au,     229.8560 Debye

 output psi filename:./diamond.movecs


== Timing ==

cputime in seconds
  prologue    :   0.947905E+01
  main loop   :   0.739641E+01
  epilogue    :   0.104143E+01
  total       :   0.179169E+02
  cputime/step:   0.539884E-01       (     137 evalulations,      38 linesearches)


Time spent doing                        total          step       percent
  total time                 :   0.179223E+02  0.130820E+00       100.0 %
  i/o time                   :   0.200608E+01  0.146429E-01        11.2 %
  FFTs                       :   0.850547E+00  0.620837E-02         4.7 %
  dot products               :   0.522085E+00  0.381084E-02         2.9 %
  geodesic                   :   0.324498E+00  0.236860E-02         1.8 %
  ffm_dgemm                  :   0.584272E-01  0.426476E-03         0.3 %
  fmf_dgemm                  :   0.169439E+00  0.123678E-02         0.9 %
  mmm_dgemm                  :   0.152073E-01  0.111002E-03         0.1 %
  m_diagonalize              :   0.201386E-01  0.146997E-03         0.1 %
  exchange correlation       :   0.848586E+00  0.619406E-02         4.7 %
  local pseudopotentials     :   0.227189E-03  0.165831E-05         0.0 %
  non-local pseudopotentials :   0.509708E+00  0.372050E-02         2.8 %
  hartree potentials         :   0.472226E-02  0.344691E-04         0.0 %
  ion-ion interaction        :   0.676822E-02  0.494030E-04         0.0 %
  structure factors          :   0.147583E-01  0.107725E-03         0.1 %
  phase factors              :   0.389210E-04  0.284095E-06         0.0 %
  masking and packing        :   0.588269E+00  0.429393E-02         3.3 %
  queue fft                  :   0.485654E+01  0.354492E-01        27.1 %
  queue fft (serial)         :   0.113225E+01  0.826462E-02         6.3 %
  queue fft (message passing):   0.368170E+01  0.268737E-01        20.5 %
  non-local psp FFM          :   0.371636E+00  0.271267E-02         2.1 %
  non-local psp FMF          :   0.118292E+00  0.863443E-03         0.7 %
  non-local psp FFM A        :   0.829931E-02  0.605789E-04         0.0 %
  non-local psp FFM B        :   0.194790E+00  0.142182E-02         1.1 %

     >>>  JOB COMPLETED     AT Sat Aug 12 21:09:40 2023  <<<

 Task  times  cpu:      112.9s     wall:      117.7s


                                NWChem Input Module
                                -------------------


 Summary of allocated global arrays
-----------------------------------
  No active global arrays


MA_summarize_allocated_blocks: starting scan ...
MA_summarize_allocated_blocks: scan completed: 0 heap blocks, 0 stack blocks
MA usage statistics:

	allocation statistics:
					      heap	     stack
					      ----	     -----
	current number of blocks	         0	         0
	maximum number of blocks	       294	        13
	current total bytes		         0	         0
	maximum total bytes		  30801640	    887512
	maximum total K-bytes		     30802	       888
	maximum total M-bytes		        31	         1


                                     CITATION
                                     --------
                Please cite the following reference when publishing
                           results obtained with NWChem:

          E. Apra, E. J. Bylaska, W. A. de Jong, N. Govind, K. Kowalski,
       T. P. Straatsma, M. Valiev, H. J. J. van Dam, Y. Alexeev, J. Anchell,
       V. Anisimov, F. W. Aquino, R. Atta-Fynn, J. Autschbach, N. P. Bauman,
     J. C. Becca, D. E. Bernholdt, K. Bhaskaran-Nair, S. Bogatko, P. Borowski,
         J. Boschen, J. Brabec, A. Bruner, E. Cauet, Y. Chen, G. N. Chuev,
      C. J. Cramer, J. Daily, M. J. O. Deegan, T. H. Dunning Jr., M. Dupuis,
   K. G. Dyall, G. I. Fann, S. A. Fischer, A. Fonari, H. Fruchtl, L. Gagliardi,
      J. Garza, N. Gawande, S. Ghosh, K. Glaesemann, A. W. Gotz, J. Hammond,
       V. Helms, E. D. Hermes, K. Hirao, S. Hirata, M. Jacquelin, L. Jensen,
   B. G. Johnson, H. Jonsson, R. A. Kendall, M. Klemm, R. Kobayashi, V. Konkov,
      S. Krishnamoorthy, M. Krishnan, Z. Lin, R. D. Lins, R. J. Littlefield,
      A. J. Logsdail, K. Lopata, W. Ma, A. V. Marenich, J. Martin del Campo,
   D. Mejia-Rodriguez, J. E. Moore, J. M. Mullin, T. Nakajima, D. R. Nascimento,
    J. A. Nichols, P. J. Nichols, J. Nieplocha, A. Otero-de-la-Roza, B. Palmer,
    A. Panyala, T. Pirojsirikul, B. Peng, R. Peverati, J. Pittner, L. Pollack,
   R. M. Richard, P. Sadayappan, G. C. Schatz, W. A. Shelton, D. W. Silverstein,
   D. M. A. Smith, T. A. Soares, D. Song, M. Swart, H. L. Taylor, G. S. Thomas,
            V. Tipparaju, D. G. Truhlar, K. Tsemekhman, T. Van Voorhis,
      A. Vazquez-Mayagoitia, P. Verma, O. Villa, A. Vishnu, K. D. Vogiatzis,
        D. Wang, J. H. Weare, M. J. Williamson, T. L. Windus, K. Wolinski,
        A. T. Wong, Q. Wu, C. Yang, Q. Yu, M. Zacharias, Z. Zhang, Y. Zhao,
                                and R. J. Harrison
                        "NWChem: Past, present, and future
                         J. Chem. Phys. 152, 184102 (2020)
                               doi:10.1063/5.0004997

                                      AUTHORS
                                      -------
  E. Apra, E. J. Bylaska, N. Govind, K. Kowalski, M. Valiev, D. Mejia-Rodriguez,
       A. Kunitsa, N. P. Bauman, A. Panyala, W. A. de Jong, T. P. Straatsma,
   H. J. J. van Dam, D. Wang, T. L. Windus, J. Hammond, J. Autschbach, A. Woods,
    K. Bhaskaran-Nair, J. Brabec, K. Lopata, S. A. Fischer, S. Krishnamoorthy,
     M. Jacquelin, W. Ma, M. Klemm, O. Villa, Y. Chen, V. Anisimov, F. Aquino,
     S. Hirata, M. T. Hackler, E. Hermes, L. Jensen, J. E. Moore, J. C. Becca,
      V. Konjkov, T. Risthaus, M. Malagoli, A. Marenich, A. Otero-de-la-Roza,
        J. Mullin, P. Nichols, R. Peverati, J. Pittner, Y. Zhao, P.-D. Fan,
        A. Fonari, M. J. Williamson, R. J. Harrison, J. R. Rehr, M. Dupuis,
     D. Silverstein, D. M. A. Smith, J. Nieplocha, V. Tipparaju, M. Krishnan,
     B. E. Van Kuiken, A. Vazquez-Mayagoitia, M. Swart, Q. Wu, T. Van Voorhis,
     A. A. Auer, M. Nooijen, L. D. Crosby, E. Brown, G. Cisneros, G. I. Fann,
   H. Fruchtl, J. Garza, K. Hirao, R. A. Kendall, J. A. Nichols, K. Tsemekhman,
    K. Wolinski, J. Anchell, D. E. Bernholdt, P. Borowski, T. Clark, D. Clerc,
   H. Dachsel, M. J. O. Deegan, K. Dyall, D. Elwood, E. Glendening, M. Gutowski,
   A. C. Hess, J. Jaffe, B. G. Johnson, J. Ju, R. Kobayashi, R. Kutteh, Z. Lin,
   R. Littlefield, X. Long, B. Meng, T. Nakajima, S. Niu, L. Pollack, M. Rosing,
   K. Glaesemann, G. Sandrone, M. Stave, H. Taylor, G. Thomas, J. H. van Lenthe,
                               A. T. Wong, Z. Zhang.

 Total times  cpu:      113.0s     wall:      118.0s
