
     Program PWSCF v.7.4.1 starts on 10May2025 at 21:14:44 
        Git branch: develop
        Last git commit: 0b9715eb955f228110c1a3fce725593e5ef53033
        Last git commit date: Sat May 10 10:10:03 2025 +0000
        Last git commit subject: Merge branch 'newd_clean' into 'develop'

     This program is part of the open-source Quantum ESPRESSO suite
     for quantum simulation of materials; please cite
         "P. Giannozzi et al., J. Phys.:Condens. Matter 21 395502 (2009);
         "P. Giannozzi et al., J. Phys.:Condens. Matter 29 465901 (2017);
         "P. Giannozzi et al., J. Chem. Phys. 152 154105 (2020);
          URL http://www.quantum-espresso.org", 
     in publications or presentations arising from this work. More details at
     http://www.quantum-espresso.org/quote

     Parallel version (MPI), running on     4 processors

     MPI processes distributed on     1 nodes
     6872 MiB available memory on the printing compute node when the environment starts

     Waiting for input...
     Reading input from standard input

     Current dimensions of program PWSCF are:
     Max number of different atomic species (ntypx) = 10
     Max number of k-points (npk) =  40000
     Max angular momentum in pseudopotentials (lmaxx) =  4
     Message from routine setup:
     using ibrav=0 with symmetry is DISCOURAGED, use correct ibrav instead

     R & G space division:  proc/nbgrp/npool/nimage =       4
     Subspace diagonalization in iterative solution of the eigenvalue problem:
     a serial algorithm will be used


     Parallelization info
     --------------------
     sticks:   dense  smooth     PW     G-vecs:    dense   smooth      PW
     Min        5115    2557    640               550353   194609   24378
     Max        5116    2558    641               550358   194612   24383
     Sum       20461   10229   2561              2201421   778439   97521

     Using Slab Decomposition



     bravais-lattice index     =            0
     lattice parameter (alat)  =      28.3459  a.u.
     unit-cell volume          =   22775.6289 (a.u.)^3
     number of atoms/cell      =            2
     number of atomic types    =            1
     number of electrons       =        28.00
     number of Kohn-Sham states=           36
     kinetic-energy cutoff     =      40.0000  Ry
     charge density cutoff     =     320.0000  Ry
     scf convergence threshold =      4.0E-10
     mixing beta               =       0.4000
     number of iterations used =            8  plain     mixing
     Exchange-correlation= PBE
                           (   1   4   3   4   0   0   0)
     Non magnetic calculation with spin-orbit


     celldm(1)=  28.345892  celldm(2)=   0.000000  celldm(3)=   0.000000
     celldm(4)=   0.000000  celldm(5)=   0.000000  celldm(6)=   0.000000

     crystal axes: (cart. coord. in units of alat)
               a(1) = (   1.000000   0.000000   0.000000 )  
               a(2) = (   0.000000   1.000000   0.000000 )  
               a(3) = (   0.000000   0.000000   1.000000 )  

     reciprocal axes: (cart. coord. in units 2 pi/alat)
               b(1) = (  1.000000  0.000000  0.000000 )  
               b(2) = (  0.000000  1.000000  0.000000 )  
               b(3) = (  0.000000  0.000000  1.000000 )  


     PseudoPot. # 1 for Pb read from file:
     .././Pb_r.upf
     MD5 check sum: 73abbbd201951038fc1bdacebad68d2f
     Pseudo is Norm-conserving + core correction, Zval = 14.0
     Generated using ONCVPSP code by D. R. Hamann
     Using radial grid of 1782 points, 10 beta functions with: 
                l(1) =   0
                l(2) =   0
                l(3) =   1
                l(4) =   1
                l(5) =   1
                l(6) =   1
                l(7) =   2
                l(8) =   2
                l(9) =   2
               l(10) =   2

     atomic species   valence    mass     pseudopotential
     Pb               14.00   207.20000     Pb( 1.00)

      4 Sym. Ops. (no inversion) found


                                    s                        frac. trans.

      isym =  1     identity                                     

 cryst.   s( 1) = (     1          0          0      )
                  (     0          1          0      )
                  (     0          0          1      )

 cart.    s( 1) = (  1.0000000  0.0000000  0.0000000 )
                  (  0.0000000  1.0000000  0.0000000 )
                  (  0.0000000  0.0000000  1.0000000 )


      isym =  2     180 deg rotation - cart. axis [1,0,0]        

 cryst.   s( 2) = (     1          0          0      )
                  (     0         -1          0      )
                  (     0          0         -1      )

 cart.    s( 2) = (  1.0000000  0.0000000  0.0000000 )
                  (  0.0000000 -1.0000000  0.0000000 )
                  (  0.0000000  0.0000000 -1.0000000 )


      isym =  3     inv. 180 deg rotation - cart. axis [0,0,1]   

 cryst.   s( 3) = (     1          0          0      )
                  (     0          1          0      )
                  (     0          0         -1      )

 cart.    s( 3) = (  1.0000000  0.0000000  0.0000000 )
                  (  0.0000000  1.0000000  0.0000000 )
                  (  0.0000000  0.0000000 -1.0000000 )


      isym =  4     inv. 180 deg rotation - cart. axis [0,1,0]   

 cryst.   s( 4) = (     1          0          0      )
                  (     0         -1          0      )
                  (     0          0          1      )

 cart.    s( 4) = (  1.0000000  0.0000000  0.0000000 )
                  (  0.0000000 -1.0000000  0.0000000 )
                  (  0.0000000  0.0000000  1.0000000 )


   Cartesian axes

     site n.     atom                  positions (alat units)
         1        Pb     tau(   1) = (   0.0000000   0.0000000   0.0000000  )
         2        Pb     tau(   2) = (   0.0800000   0.0000000   2.5000000  )

     --------------------------------------------
     DFT-D3 Dispersion Correction (3-body terms):
     --------------------------------------------
       Reference C6 values for interpolation: 

         atom   Coordination number   C6
         Pb         0.000          1477.63
         Pb         0.938          1266.00
         Pb         1.936          1088.91
         Pb         2.908          1048.37
         Pb         3.910           910.57

       Values used:

         atom   Coordination number  R0_AB[au]  C6      C8
         Pb         0.000            4.041   1471.21 232915.83
         Pb         0.000            4.041   1471.21 232915.83

         Molecular C6 ( Ry / a.u.^6 ) =      5884.83


   Crystallographic axes

     site n.     atom                  positions (cryst. coord.)
         1        Pb     tau(   1) = (  0.0000000  0.0000000  0.0000000  )
         2        Pb     tau(   2) = (  0.0800000  0.0000000  2.5000000  )

     number of k points=     1  Marzari-Vanderbilt smearing, width (Ry)=  0.0200
                       cart. coord. in units 2pi/alat
        k(    1) = (   0.0000000   0.0000000   0.0000000), wk =   1.0000000

                       cryst. coord.
        k(    1) = (   0.0000000   0.0000000   0.0000000), wk =   1.0000000

     Dense  grid:  2201421 G-vectors     FFT dimensions: ( 162, 162, 162)

     Smooth grid:   778439 G-vectors     FFT dimensions: ( 120, 120, 120)

     Dynamical RAM for                 wfc:      26.72 MB

     Dynamical RAM for     wfc (w. buffer):      26.72 MB

     Dynamical RAM for           str. fact:       8.40 MB

     Dynamical RAM for           local pot:       0.00 MB

     Dynamical RAM for          nlocal pot:      25.24 MB

     Dynamical RAM for                qrad:       3.76 MB

     Dynamical RAM for          rho,v,vnew:     199.28 MB

     Dynamical RAM for               rhoin:      66.43 MB

     Dynamical RAM for            rho*nmix:     537.46 MB

     Dynamical RAM for           G-vectors:      32.98 MB

     Dynamical RAM for          h,s,v(r/c):       0.24 MB

     Dynamical RAM for          <psi|beta>:       0.07 MB

     Dynamical RAM for                 psi:      53.45 MB

     Dynamical RAM for                hpsi:      53.45 MB

     Dynamical RAM for      wfcinit/wfcrot:      40.11 MB

     Estimated static dynamical RAM per process >     445.28 MB

     Estimated max dynamical RAM per process >       1.06 GB

     Estimated total dynamical RAM >       4.26 GB

     Initial potential from superposition of free atoms

     starting charge      27.9949, renormalised to      28.0000

     negative rho (up, down):  7.961E-05 0.000E+00
     Starting wfcs are   36 randomized atomic wfcs

     total cpu time spent up to now is        3.8 secs

     per-process dynamical memory:   519.5 Mb

     Self-consistent Calculation

     iteration #  1     ecut=    40.00 Ry     beta= 0.40
     Davidson diagonalization with overlap

---- Real-time Memory Report at c_bands before calling an iterative solver
           459 MiB given to the printing process from OS
           573 MiB allocation reported by mallinfo(arena+hblkhd)
          5211 MiB available memory on the node where the printing process lives
------------------
     ethr =  1.00E-02,  avg # of iterations =  1.0

     Threshold (ethr) on eigenvalues was too large:
     Diagonalizing with lowered threshold

     Davidson diagonalization with overlap

---- Real-time Memory Report at c_bands before calling an iterative solver
           566 MiB given to the printing process from OS
           595 MiB allocation reported by mallinfo(arena+hblkhd)
          4938 MiB available memory on the node where the printing process lives
------------------
     ethr =  6.81E-05,  avg # of iterations =  2.0

     negative rho (up, down):  4.147E-07 0.000E+00

     total cpu time spent up to now is       13.1 secs

     WARNING: integrated charge=    28.00146380, expected=    28.00000000

     total energy              =    -280.63973341 Ry
     estimated scf accuracy    <       0.01916534 Ry

     iteration #  2     ecut=    40.00 Ry     beta= 0.40
     Davidson diagonalization with overlap

---- Real-time Memory Report at c_bands before calling an iterative solver
           726 MiB given to the printing process from OS
           800 MiB allocation reported by mallinfo(arena+hblkhd)
          4142 MiB available memory on the node where the printing process lives
------------------
     ethr =  6.84E-05,  avg # of iterations =  2.0

     negative rho (up, down):  5.834E-05 0.000E+00

     total cpu time spent up to now is       18.5 secs

     WARNING: integrated charge=    28.00473514, expected=    28.00000000

     total energy              =    -280.63966004 Ry
     estimated scf accuracy    <       0.00367912 Ry

     iteration #  3     ecut=    40.00 Ry     beta= 0.40
     Davidson diagonalization with overlap

---- Real-time Memory Report at c_bands before calling an iterative solver
           749 MiB given to the printing process from OS
           824 MiB allocation reported by mallinfo(arena+hblkhd)
          4043 MiB available memory on the node where the printing process lives
------------------
     ethr =  1.31E-05,  avg # of iterations =  4.0

     negative rho (up, down):  3.918E-05 0.000E+00

     total cpu time spent up to now is       24.4 secs

     WARNING: integrated charge=    28.00759481, expected=    28.00000000

     total energy              =    -280.64087384 Ry
     estimated scf accuracy    <       0.00013366 Ry

     iteration #  4     ecut=    40.00 Ry     beta= 0.40
     Davidson diagonalization with overlap

---- Real-time Memory Report at c_bands before calling an iterative solver
           773 MiB given to the printing process from OS
           848 MiB allocation reported by mallinfo(arena+hblkhd)
          3946 MiB available memory on the node where the printing process lives
------------------
     ethr =  4.77E-07,  avg # of iterations =  2.0

     negative rho (up, down):  1.829E-05 0.000E+00

     total cpu time spent up to now is       30.7 secs

     WARNING: integrated charge=    28.00816751, expected=    28.00000000

     total energy              =    -280.64083780 Ry
     estimated scf accuracy    <       0.00000994 Ry

     iteration #  5     ecut=    40.00 Ry     beta= 0.40
     Davidson diagonalization with overlap

---- Real-time Memory Report at c_bands before calling an iterative solver
           797 MiB given to the printing process from OS
           871 MiB allocation reported by mallinfo(arena+hblkhd)
          3847 MiB available memory on the node where the printing process lives
------------------
     ethr =  3.55E-08,  avg # of iterations =  2.0

     negative rho (up, down):  1.246E-05 0.000E+00

     total cpu time spent up to now is       36.1 secs

     WARNING: integrated charge=    28.00900181, expected=    28.00000000

     total energy              =    -280.64087472 Ry
     estimated scf accuracy    <       0.00000076 Ry

     iteration #  6     ecut=    40.00 Ry     beta= 0.40
     Davidson diagonalization with overlap

---- Real-time Memory Report at c_bands before calling an iterative solver
           821 MiB given to the printing process from OS
           895 MiB allocation reported by mallinfo(arena+hblkhd)
          3752 MiB available memory on the node where the printing process lives
------------------
     ethr =  2.70E-09,  avg # of iterations =  3.0

     negative rho (up, down):  4.351E-06 0.000E+00

     total cpu time spent up to now is       42.3 secs

     WARNING: integrated charge=    28.00906278, expected=    28.00000000

     total energy              =    -280.64088424 Ry
     estimated scf accuracy    <       0.00000025 Ry

     iteration #  7     ecut=    40.00 Ry     beta= 0.40
     Davidson diagonalization with overlap

---- Real-time Memory Report at c_bands before calling an iterative solver
           845 MiB given to the printing process from OS
           919 MiB allocation reported by mallinfo(arena+hblkhd)
          3655 MiB available memory on the node where the printing process lives
------------------
     ethr =  8.92E-10,  avg # of iterations =  2.0

     negative rho (up, down):  1.184E-06 0.000E+00

     total cpu time spent up to now is       48.5 secs

     WARNING: integrated charge=    28.00905572, expected=    28.00000000

     total energy              =    -280.64087921 Ry
     estimated scf accuracy    <          1.7E-09 Ry

     iteration #  8     ecut=    40.00 Ry     beta= 0.40
     Davidson diagonalization with overlap

---- Real-time Memory Report at c_bands before calling an iterative solver
           869 MiB given to the printing process from OS
           943 MiB allocation reported by mallinfo(arena+hblkhd)
          3560 MiB available memory on the node where the printing process lives
------------------
     ethr =  6.25E-12,  avg # of iterations =  4.0

     total cpu time spent up to now is       53.9 secs

     End of self-consistent calculation

          k = 0.0000 0.0000 0.0000 ( 97521 PWs)   bands (ev):

   -21.3411 -21.3411 -21.3410 -21.3410 -21.3408 -21.3408 -21.3402 -21.3402
   -18.7706 -18.7706 -18.7705 -18.7705 -18.7703 -18.7703 -18.7699 -18.7699
   -18.7699 -18.7699 -18.7694 -18.7694 -10.9448 -10.9448 -10.9434 -10.9434
    -3.7141  -3.7141  -3.6921  -3.6921  -2.3997  -2.3997  -2.3495  -2.3495
    -2.3192  -2.3192  -2.2667  -2.2667

     occupation numbers 
     1.0000   1.0000   1.0000   1.0000   1.0000   1.0000   1.0000   1.0000
     1.0000   1.0000   1.0000   1.0000   1.0000   1.0000   1.0000   1.0000
     1.0000   1.0000   1.0000   1.0000   1.0000   1.0000   1.0000   1.0000
     1.0010   1.0010   1.0014   1.0014   0.0013   0.0013   0.0005   0.0005
     0.0003   0.0003   0.0001   0.0001

     the Fermi energy is    -2.8733 ev

     WARNING: integrated charge=    28.00905694, expected=    28.00000000

!    total energy              =    -280.64087913 Ry
     estimated scf accuracy    <          2.0E-10 Ry
     smearing contrib. (-TS)   =       0.00014237 Ry
     internal energy E=F+TS    =    -280.64102149 Ry

     The total energy is F=E-TS. E is the sum of the following terms:
     one-electron contribution =    -332.38706700 Ry
     hartree contribution      =     171.93397273 Ry
     xc contribution           =     -79.15685189 Ry
     ewald contribution        =     -41.03051707 Ry
     DFT-D3 Dispersion         =      -0.00055826 Ry

     convergence has been achieved in   8 iterations

     Forces acting on atoms (cartesian axes, Ry/au):

     atom    1 type  1   force =     0.00008485    0.00000000    0.00000000
     atom    2 type  1   force =    -0.00008485    0.00000000    0.00000000
     The non-local contrib.  to forces
     atom    1 type  1   force =     0.00003269    0.00000000    0.00000000
     atom    2 type  1   force =    -0.00002838    0.00000000    0.00000000
     The ionic contribution  to forces
     atom    1 type  1   force =    -0.39938259   -0.00000000   -0.00000000
     atom    2 type  1   force =     0.39938259    0.00000000    0.00000000
     The local contribution  to forces
     atom    1 type  1   force =     0.39940091    0.00000000   -0.00000000
     atom    2 type  1   force =    -0.39940699    0.00000000    0.00000000
     The core correction contribution to forces
     atom    1 type  1   force =    -0.00000829    0.00000000    0.00000000
     atom    2 type  1   force =     0.00000785    0.00000000   -0.00000000
     The Hubbard contrib.    to forces
     atom    1 type  1   force =     0.00000000    0.00000000    0.00000000
     atom    2 type  1   force =     0.00000000    0.00000000    0.00000000
     The SCF correction term to forces
     atom    1 type  1   force =     0.00000812    0.00000000   -0.00000000
     atom    2 type  1   force =    -0.00000166    0.00000000   -0.00000000

     DFT-D3 dispersion contribution to forces:
     atom    1 type  1   force =     0.00003613   -0.00000000    0.00000000
     atom    2 type  1   force =    -0.00003613    0.00000000   -0.00000000

     Total force =     0.000120     Total SCF correction =     0.000008

     DFT-D3 dispersion Force =     0.000051


     Computing stress (Cartesian axis) and pressure

          total   stress  (Ry/bohr**3)                   (kbar)     P=       -2.60
  -0.00001755   0.00000000   0.00000000           -2.58        0.00        0.00
   0.00000000  -0.00001754   0.00000000            0.00       -2.58        0.00
   0.00000000   0.00000000  -0.00001784            0.00        0.00       -2.62

     kinetic stress (kbar)    591.16      0.00      0.00
                                0.00    591.16      0.00
                                0.00      0.00    591.16

     local   stress (kbar)   -329.16      0.00     -0.00
                                0.00   -310.08      0.00
                               -0.00      0.00   -822.81

     nonloc. stress (kbar)   -285.45      0.00      0.00
                                0.00   -285.45      0.00
                                0.00      0.00   -285.44

     hartree stress (kbar)    292.98     -0.00     -0.00
                               -0.00    283.63     -0.00
                               -0.00     -0.00    533.88

     exc-cor stress (kbar)    215.88     -0.00     -0.00
                               -0.00    215.88      0.00
                               -0.00      0.00    215.88

     corecor stress (kbar)   -318.65      0.00      0.00
                                0.00   -318.65     -0.00
                                0.00     -0.00   -318.65

     ewald   stress (kbar)   -169.33      0.00      0.00
                                0.00   -179.07      0.00
                                0.00      0.00     83.39

     hubbard stress (kbar)      0.00      0.00      0.00
                                0.00      0.00      0.00
                                0.00      0.00      0.00

     DFT-D   stress (kbar)     -0.00      0.00     -0.00
                                0.00     -0.00     -0.00
                               -0.00     -0.00     -0.02

     XDM     stress (kbar)      0.00      0.00      0.00
                                0.00      0.00      0.00
                                0.00      0.00      0.00

     dft-nl  stress (kbar)      0.00      0.00      0.00
                                0.00      0.00      0.00
                                0.00      0.00      0.00

     TS-vdW  stress (kbar)      0.00      0.00      0.00
                                0.00      0.00      0.00
                                0.00      0.00      0.00

     MDB     stress (kbar)      0.00      0.00      0.00
                                0.00      0.00      0.00
                                0.00      0.00      0.00

     3D-RISM stress (kbar)      0.00      0.00      0.00
                                0.00      0.00      0.00
                                0.00      0.00      0.00


     Writing all to output data dir ./out/aiida.save/ :
     XML data file, charge density, pseudopotentials, collected wavefunctions

     init_run     :      3.29s CPU      3.67s WALL (       1 calls)
     electrons    :     48.26s CPU     50.25s WALL (       1 calls)
     forces       :      0.84s CPU      0.94s WALL (       1 calls)
     force_dftd3  :      0.00s CPU      0.00s WALL (       1 calls)
     stress       :      2.67s CPU      2.95s WALL (       1 calls)
     stres_dftd3  :      0.00s CPU      0.00s WALL (       1 calls)

     Called by init_run:
     wfcinit      :      1.29s CPU      1.37s WALL (       1 calls)
     wfcinit:atom :      0.02s CPU      0.02s WALL (       1 calls)
     wfcinit:wfcr :      1.19s CPU      1.27s WALL (       1 calls)
     potinit      :      1.03s CPU      1.25s WALL (       1 calls)
     hinit0       :      0.14s CPU      0.18s WALL (       1 calls)

     Called by electrons:
     c_bands      :     28.28s CPU     29.29s WALL (       9 calls)
     sum_band     :      8.71s CPU      9.02s WALL (       9 calls)
     v_of_rho     :      5.25s CPU      5.54s WALL (       9 calls)
     v_h          :      0.51s CPU      0.54s WALL (       9 calls)
     v_xc         :      5.73s CPU      6.12s WALL (      11 calls)
     mix_rho      :      4.16s CPU      4.46s WALL (       9 calls)
     energy_dftd3 :      0.00s CPU      0.00s WALL (       1 calls)

     Called by c_bands:
     init_us_2    :      0.30s CPU      0.30s WALL (      20 calls)
     cegterg      :     26.54s CPU     27.55s WALL (       9 calls)

     Called by sum_band:
     sum_band:wei :      0.00s CPU      0.00s WALL (       9 calls)
     sum_band:loo :      6.17s CPU      6.31s WALL (       9 calls)
     sum_band:buf :      0.00s CPU      0.00s WALL (       9 calls)
     sum_band:ini :      0.14s CPU      0.14s WALL (       9 calls)

     Called by *egterg:
     cdiaghg      :      0.03s CPU      0.07s WALL (      30 calls)
     cegterg:over :      0.84s CPU      0.85s WALL (      22 calls)
     cegterg:upda :      0.61s CPU      0.65s WALL (      22 calls)
     cegterg:last :      0.77s CPU      0.77s WALL (      17 calls)
     h_psi        :     24.80s CPU     25.77s WALL (      32 calls)
     g_psi        :      0.08s CPU      0.08s WALL (      22 calls)

     Called by h_psi:
     h_psi:calbec :      0.59s CPU      0.62s WALL (      32 calls)
     vloc_psi     :     23.45s CPU     24.31s WALL (      32 calls)
                                        0.00s GPU  (      32 calls)
     add_vuspsi   :      0.62s CPU      0.62s WALL (      32 calls)

     General routines
     calbec       :      1.03s CPU      1.07s WALL (      49 calls)
     fft          :      8.74s CPU      9.33s WALL (     233 calls)
     ffts         :      0.91s CPU      0.98s WALL (      72 calls)
     fftw         :     21.60s CPU     22.35s WALL (    4020 calls)
     interpolate  :      2.11s CPU      2.22s WALL (      36 calls)

     Parallel routines

     PWSCF        :     55.17s CPU     58.20s WALL


   This run was terminated on:  21:15:42  10May2025            

=------------------------------------------------------------------------------=
   JOB DONE.
=------------------------------------------------------------------------------=
