
     Program PWSCF v.7.4.1 starts on 11May2025 at 11:10:31 
        Git branch: develop
        Last git commit: 95bc91b9c3ff25f565697dd77c0850e0757537c6
        Last git commit date: Sun May 11 00:26:41 2025 +0000
        Last git commit subject: Merge branch 'print-cmake-flags' into 'develop'

     This program is part of the open-source Quantum ESPRESSO suite
     for quantum simulation of materials; please cite
         "P. Giannozzi et al., J. Phys.:Condens. Matter 21 395502 (2009);
         "P. Giannozzi et al., J. Phys.:Condens. Matter 29 465901 (2017);
         "P. Giannozzi et al., J. Chem. Phys. 152 154105 (2020);
          URL http://www.quantum-espresso.org", 
     in publications or presentations arising from this work. More details at
     http://www.quantum-espresso.org/quote

     Serial version
     7124 MiB available memory on the printing compute node when the environment starts

     Waiting for input...
     Reading input from standard input

     Current dimensions of program PWSCF are:
     Max number of different atomic species (ntypx) = 10
     Max number of k-points (npk) =  40000
     Max angular momentum in pseudopotentials (lmaxx) =  4
     Message from routine setup:
     using ibrav=0 with symmetry is DISCOURAGED, use correct ibrav instead


     G-vector sticks info
     --------------------
     sticks:   dense  smooth     PW     G-vecs:    dense   smooth      PW
     Sum       20461   10229   2561              2201421   778439   97521

     Using Slab Decomposition



     bravais-lattice index     =            0
     lattice parameter (alat)  =      28.3459  a.u.
     unit-cell volume          =   22775.6289 (a.u.)^3
     number of atoms/cell      =            2
     number of atomic types    =            1
     number of electrons       =        28.00
     number of Kohn-Sham states=           36
     kinetic-energy cutoff     =      40.0000  Ry
     charge density cutoff     =     320.0000  Ry
     scf convergence threshold =      4.0E-10
     mixing beta               =       0.4000
     number of iterations used =            8  plain     mixing
     Exchange-correlation= PBE
                           (   1   4   3   4   0   0   0)
     Non magnetic calculation with spin-orbit


     celldm(1)=  28.345892  celldm(2)=   0.000000  celldm(3)=   0.000000
     celldm(4)=   0.000000  celldm(5)=   0.000000  celldm(6)=   0.000000

     crystal axes: (cart. coord. in units of alat)
               a(1) = (   1.000000   0.000000   0.000000 )  
               a(2) = (   0.000000   1.000000   0.000000 )  
               a(3) = (   0.000000   0.000000   1.000000 )  

     reciprocal axes: (cart. coord. in units 2 pi/alat)
               b(1) = (  1.000000  0.000000  0.000000 )  
               b(2) = (  0.000000  1.000000  0.000000 )  
               b(3) = (  0.000000  0.000000  1.000000 )  


     PseudoPot. # 1 for Pb read from file:
     .././Pb_r.upf
     MD5 check sum: 73abbbd201951038fc1bdacebad68d2f
     Pseudo is Norm-conserving + core correction, Zval = 14.0
     Generated using ONCVPSP code by D. R. Hamann
     Using radial grid of 1782 points, 10 beta functions with: 
                l(1) =   0
                l(2) =   0
                l(3) =   1
                l(4) =   1
                l(5) =   1
                l(6) =   1
                l(7) =   2
                l(8) =   2
                l(9) =   2
               l(10) =   2

     atomic species   valence    mass     pseudopotential
     Pb               14.00   207.20000     Pb( 1.00)

      4 Sym. Ops. (no inversion) found


                                    s                        frac. trans.

      isym =  1     identity                                     

 cryst.   s( 1) = (     1          0          0      )
                  (     0          1          0      )
                  (     0          0          1      )

 cart.    s( 1) = (  1.0000000  0.0000000  0.0000000 )
                  (  0.0000000  1.0000000  0.0000000 )
                  (  0.0000000  0.0000000  1.0000000 )


      isym =  2     180 deg rotation - cart. axis [1,0,0]        

 cryst.   s( 2) = (     1          0          0      )
                  (     0         -1          0      )
                  (     0          0         -1      )

 cart.    s( 2) = (  1.0000000  0.0000000  0.0000000 )
                  (  0.0000000 -1.0000000  0.0000000 )
                  (  0.0000000  0.0000000 -1.0000000 )


      isym =  3     inv. 180 deg rotation - cart. axis [0,0,1]   

 cryst.   s( 3) = (     1          0          0      )
                  (     0          1          0      )
                  (     0          0         -1      )

 cart.    s( 3) = (  1.0000000  0.0000000  0.0000000 )
                  (  0.0000000  1.0000000  0.0000000 )
                  (  0.0000000  0.0000000 -1.0000000 )


      isym =  4     inv. 180 deg rotation - cart. axis [0,1,0]   

 cryst.   s( 4) = (     1          0          0      )
                  (     0         -1          0      )
                  (     0          0          1      )

 cart.    s( 4) = (  1.0000000  0.0000000  0.0000000 )
                  (  0.0000000 -1.0000000  0.0000000 )
                  (  0.0000000  0.0000000  1.0000000 )


   Cartesian axes

     site n.     atom                  positions (alat units)
         1        Pb     tau(   1) = (   0.0000000   0.0000000   0.0000000  )
         2        Pb     tau(   2) = (   0.0800000   0.0000000   2.5000000  )

     --------------------------------------------
     DFT-D3 Dispersion Correction (3-body terms):
     --------------------------------------------
       Reference C6 values for interpolation: 

         atom   Coordination number   C6
         Pb         0.000          1477.63
         Pb         0.938          1266.00
         Pb         1.936          1088.91
         Pb         2.908          1048.37
         Pb         3.910           910.57

       Values used:

         atom   Coordination number  R0_AB[au]  C6      C8
         Pb         0.000            4.041   1471.21 232915.83
         Pb         0.000            4.041   1471.21 232915.83

         Molecular C6 ( Ry / a.u.^6 ) =      5884.83


   Crystallographic axes

     site n.     atom                  positions (cryst. coord.)
         1        Pb     tau(   1) = (  0.0000000  0.0000000  0.0000000  )
         2        Pb     tau(   2) = (  0.0800000  0.0000000  2.5000000  )

     number of k points=     1  Marzari-Vanderbilt smearing, width (Ry)=  0.0200
                       cart. coord. in units 2pi/alat
        k(    1) = (   0.0000000   0.0000000   0.0000000), wk =   1.0000000

                       cryst. coord.
        k(    1) = (   0.0000000   0.0000000   0.0000000), wk =   1.0000000

     Dense  grid:  2201421 G-vectors     FFT dimensions: ( 162, 162, 162)

     Smooth grid:   778439 G-vectors     FFT dimensions: ( 120, 120, 120)

     Dynamical RAM for                 wfc:     106.90 MB

     Dynamical RAM for     wfc (w. buffer):     106.90 MB

     Dynamical RAM for           str. fact:      33.59 MB

     Dynamical RAM for           local pot:       0.00 MB

     Dynamical RAM for          nlocal pot:     100.96 MB

     Dynamical RAM for                qrad:       3.76 MB

     Dynamical RAM for          rho,v,vnew:     792.33 MB

     Dynamical RAM for               rhoin:     264.11 MB

     Dynamical RAM for            rho*nmix:   -1946.17 MB

     Dynamical RAM for           G-vectors:     131.91 MB

     Dynamical RAM for          h,s,v(r/c):       0.24 MB

     Dynamical RAM for          <psi|beta>:       0.07 MB

     Dynamical RAM for                 psi:     213.79 MB

     Dynamical RAM for                hpsi:     213.79 MB

     Dynamical RAM for      wfcinit/wfcrot:     160.37 MB

     Estimated static dynamical RAM per process >       1.72 GB

     Estimated max dynamical RAM per process >     241.95 MB

     Initial potential from superposition of free atoms

     starting charge      27.9949, renormalised to      28.0000

     negative rho (up, down):  7.961E-05 0.000E+00
     Starting wfcs are   36 randomized atomic wfcs

     total cpu time spent up to now is        6.2 secs

     per-process dynamical memory:  1826.4 Mb

     Self-consistent Calculation

     iteration #  1     ecut=    40.00 Ry     beta= 0.40
     Davidson diagonalization with overlap

---- Real-time Memory Report at c_bands before calling an iterative solver
          1532 MiB given to the printing process from OS
          2095 MiB allocation reported by mallinfo(arena+hblkhd)
          5598 MiB available memory on the node where the printing process lives
------------------
     ethr =  1.00E-02,  avg # of iterations =  1.0

     Threshold (ethr) on eigenvalues was too large:
     Diagonalizing with lowered threshold

     Davidson diagonalization with overlap

---- Real-time Memory Report at c_bands before calling an iterative solver
          2027 MiB given to the printing process from OS
          2103 MiB allocation reported by mallinfo(arena+hblkhd)
          5457 MiB available memory on the node where the printing process lives
------------------
     ethr =  6.83E-05,  avg # of iterations =  2.0

     negative rho (up, down):  3.944E-07 0.000E+00

     total cpu time spent up to now is       26.7 secs

     WARNING: integrated charge=    28.00146249, expected=    28.00000000

     total energy              =    -280.63971156 Ry
     estimated scf accuracy    <       0.01920989 Ry

     iteration #  2     ecut=    40.00 Ry     beta= 0.40
     Davidson diagonalization with overlap

---- Real-time Memory Report at c_bands before calling an iterative solver
          2621 MiB given to the printing process from OS
          2201 MiB allocation reported by mallinfo(arena+hblkhd)
          5345 MiB available memory on the node where the printing process lives
------------------
     ethr =  6.86E-05,  avg # of iterations =  2.0

     negative rho (up, down):  5.788E-05 0.000E+00

     total cpu time spent up to now is       38.3 secs

     WARNING: integrated charge=    28.00472770, expected=    28.00000000

     total energy              =    -280.63967241 Ry
     estimated scf accuracy    <       0.00366197 Ry

     iteration #  3     ecut=    40.00 Ry     beta= 0.40
     Davidson diagonalization with overlap

---- Real-time Memory Report at c_bands before calling an iterative solver
          2716 MiB given to the printing process from OS
          2296 MiB allocation reported by mallinfo(arena+hblkhd)
          5251 MiB available memory on the node where the printing process lives
------------------
     ethr =  1.31E-05,  avg # of iterations =  4.0

     negative rho (up, down):  3.991E-05 0.000E+00

     total cpu time spent up to now is       51.8 secs

     WARNING: integrated charge=    28.00763062, expected=    28.00000000

     total energy              =    -280.64087179 Ry
     estimated scf accuracy    <       0.00013673 Ry

     iteration #  4     ecut=    40.00 Ry     beta= 0.40
     Davidson diagonalization with overlap

---- Real-time Memory Report at c_bands before calling an iterative solver
          2811 MiB given to the printing process from OS
          2391 MiB allocation reported by mallinfo(arena+hblkhd)
          5156 MiB available memory on the node where the printing process lives
------------------
     ethr =  4.88E-07,  avg # of iterations =  2.0

     negative rho (up, down):  1.801E-05 0.000E+00

     total cpu time spent up to now is       65.9 secs

     WARNING: integrated charge=    28.00815459, expected=    28.00000000

     total energy              =    -280.64083718 Ry
     estimated scf accuracy    <       0.00001024 Ry

     iteration #  5     ecut=    40.00 Ry     beta= 0.40
     Davidson diagonalization with overlap

---- Real-time Memory Report at c_bands before calling an iterative solver
          2907 MiB given to the printing process from OS
          2486 MiB allocation reported by mallinfo(arena+hblkhd)
          5058 MiB available memory on the node where the printing process lives
------------------
     ethr =  3.66E-08,  avg # of iterations =  2.0

     negative rho (up, down):  1.230E-05 0.000E+00

     total cpu time spent up to now is       77.7 secs

     WARNING: integrated charge=    28.00899146, expected=    28.00000000

     total energy              =    -280.64087374 Ry
     estimated scf accuracy    <       0.00000084 Ry

     iteration #  6     ecut=    40.00 Ry     beta= 0.40
     Davidson diagonalization with overlap

---- Real-time Memory Report at c_bands before calling an iterative solver
          3002 MiB given to the printing process from OS
          2581 MiB allocation reported by mallinfo(arena+hblkhd)
          4963 MiB available memory on the node where the printing process lives
------------------
     ethr =  3.01E-09,  avg # of iterations =  3.0

     negative rho (up, down):  4.360E-06 0.000E+00

     total cpu time spent up to now is       91.7 secs

     WARNING: integrated charge=    28.00906201, expected=    28.00000000

     total energy              =    -280.64088394 Ry
     estimated scf accuracy    <       0.00000023 Ry

     iteration #  7     ecut=    40.00 Ry     beta= 0.40
     Davidson diagonalization with overlap

---- Real-time Memory Report at c_bands before calling an iterative solver
          3097 MiB given to the printing process from OS
          2677 MiB allocation reported by mallinfo(arena+hblkhd)
          4867 MiB available memory on the node where the printing process lives
------------------
     ethr =  8.22E-10,  avg # of iterations =  2.0

     negative rho (up, down):  1.189E-06 0.000E+00

     total cpu time spent up to now is      105.3 secs

     WARNING: integrated charge=    28.00905914, expected=    28.00000000

     total energy              =    -280.64087947 Ry
     estimated scf accuracy    <          3.8E-09 Ry

     iteration #  8     ecut=    40.00 Ry     beta= 0.40
     Davidson diagonalization with overlap

---- Real-time Memory Report at c_bands before calling an iterative solver
          3192 MiB given to the printing process from OS
          2772 MiB allocation reported by mallinfo(arena+hblkhd)
          4766 MiB available memory on the node where the printing process lives
------------------
     ethr =  1.35E-11,  avg # of iterations =  4.0

     negative rho (up, down):  2.491E-07 0.000E+00

     total cpu time spent up to now is      120.3 secs

     WARNING: integrated charge=    28.00905552, expected=    28.00000000

     total energy              =    -280.64087881 Ry
     estimated scf accuracy    <          9.5E-10 Ry

     iteration #  9     ecut=    40.00 Ry     beta= 0.40
     Davidson diagonalization with overlap

---- Real-time Memory Report at c_bands before calling an iterative solver
          3287 MiB given to the printing process from OS
          2867 MiB allocation reported by mallinfo(arena+hblkhd)
          4673 MiB available memory on the node where the printing process lives
------------------
     ethr =  3.39E-12,  avg # of iterations =  2.0

     total cpu time spent up to now is      132.1 secs

     End of self-consistent calculation

          k = 0.0000 0.0000 0.0000 ( 97521 PWs)   bands (ev):

   -21.3410 -21.3410 -21.3410 -21.3410 -21.3408 -21.3408 -21.3401 -21.3401
   -18.7705 -18.7705 -18.7705 -18.7705 -18.7702 -18.7702 -18.7699 -18.7699
   -18.7698 -18.7698 -18.7693 -18.7693 -10.9447 -10.9447 -10.9433 -10.9433
    -3.7141  -3.7141  -3.6921  -3.6921  -2.3997  -2.3997  -2.3495  -2.3495
    -2.3191  -2.3191  -2.2667  -2.2667

     occupation numbers 
     1.0000   1.0000   1.0000   1.0000   1.0000   1.0000   1.0000   1.0000
     1.0000   1.0000   1.0000   1.0000   1.0000   1.0000   1.0000   1.0000
     1.0000   1.0000   1.0000   1.0000   1.0000   1.0000   1.0000   1.0000
     1.0010   1.0010   1.0014   1.0014   0.0013   0.0013   0.0005   0.0005
     0.0003   0.0003   0.0001   0.0001

     the Fermi energy is    -2.8732 ev

     WARNING: integrated charge=    28.00905798, expected=    28.00000000

!    total energy              =    -280.64087935 Ry
     estimated scf accuracy    <          7.2E-12 Ry
     smearing contrib. (-TS)   =       0.00014238 Ry
     internal energy E=F+TS    =    -280.64102173 Ry

     The total energy is F=E-TS. E is the sum of the following terms:
     one-electron contribution =    -332.38703429 Ry
     hartree contribution      =     171.93393983 Ry
     xc contribution           =     -79.15685194 Ry
     ewald contribution        =     -41.03051707 Ry
     DFT-D3 Dispersion         =      -0.00055826 Ry

     convergence has been achieved in   9 iterations

     Forces acting on atoms (cartesian axes, Ry/au):

     atom    1 type  1   force =     0.00008482    0.00000000    0.00000000
     atom    2 type  1   force =    -0.00008482    0.00000000    0.00000000
     The non-local contrib.  to forces
     atom    1 type  1   force =     0.00002968    0.00000000    0.00000000
     atom    2 type  1   force =    -0.00002997    0.00000000    0.00000000
     The ionic contribution  to forces
     atom    1 type  1   force =    -0.39938259   -0.00000000   -0.00000000
     atom    2 type  1   force =     0.39938259    0.00000000    0.00000000
     The local contribution  to forces
     atom    1 type  1   force =     0.39940969    0.00000000    0.00000000
     atom    2 type  1   force =    -0.39940958    0.00000000    0.00000000
     The core correction contribution to forces
     atom    1 type  1   force =    -0.00000769    0.00000000    0.00000000
     atom    2 type  1   force =     0.00000774    0.00000000   -0.00000000
     The Hubbard contrib.    to forces
     atom    1 type  1   force =     0.00000000    0.00000000    0.00000000
     atom    2 type  1   force =     0.00000000    0.00000000    0.00000000
     The SCF correction term to forces
     atom    1 type  1   force =    -0.00000037   -0.00000000    0.00000000
     atom    2 type  1   force =     0.00000056   -0.00000000    0.00000000

     DFT-D3 dispersion contribution to forces:
     atom    1 type  1   force =     0.00003613   -0.00000000    0.00000000
     atom    2 type  1   force =    -0.00003613    0.00000000   -0.00000000

     Total force =     0.000120     Total SCF correction =     0.000001

     DFT-D3 dispersion Force =     0.000051


     Computing stress (Cartesian axis) and pressure

          total   stress  (Ry/bohr**3)                   (kbar)     P=       -2.60
  -0.00001755   0.00000000   0.00000000           -2.58        0.00        0.00
   0.00000000  -0.00001754   0.00000000            0.00       -2.58        0.00
   0.00000000   0.00000000  -0.00001784            0.00        0.00       -2.62

     kinetic stress (kbar)    591.16      0.00      0.00
                                0.00    591.16      0.00
                                0.00      0.00    591.16

     local   stress (kbar)   -329.16     -0.00     -0.00
                               -0.00   -310.08     -0.00
                               -0.00     -0.00   -822.81

     nonloc. stress (kbar)   -285.45      0.00      0.00
                                0.00   -285.45      0.00
                                0.00      0.00   -285.44

     hartree stress (kbar)    292.98      0.00     -0.00
                                0.00    283.63      0.00
                               -0.00      0.00    533.88

     exc-cor stress (kbar)    215.88      0.00     -0.00
                                0.00    215.88      0.00
                               -0.00      0.00    215.88

     corecor stress (kbar)   -318.65      0.00      0.00
                                0.00   -318.65      0.00
                                0.00      0.00   -318.65

     ewald   stress (kbar)   -169.33      0.00      0.00
                                0.00   -179.07      0.00
                                0.00      0.00     83.39

     hubbard stress (kbar)      0.00      0.00      0.00
                                0.00      0.00      0.00
                                0.00      0.00      0.00

     DFT-D   stress (kbar)     -0.00      0.00     -0.00
                                0.00     -0.00     -0.00
                               -0.00     -0.00     -0.02

     XDM     stress (kbar)      0.00      0.00      0.00
                                0.00      0.00      0.00
                                0.00      0.00      0.00

     dft-nl  stress (kbar)      0.00      0.00      0.00
                                0.00      0.00      0.00
                                0.00      0.00      0.00

     TS-vdW  stress (kbar)      0.00      0.00      0.00
                                0.00      0.00      0.00
                                0.00      0.00      0.00

     MDB     stress (kbar)      0.00      0.00      0.00
                                0.00      0.00      0.00
                                0.00      0.00      0.00

     3D-RISM stress (kbar)      0.00      0.00      0.00
                                0.00      0.00      0.00
                                0.00      0.00      0.00


     Writing all to output data dir ./out/aiida.save/ :
     XML data file, charge density, pseudopotentials, collected wavefunctions

     init_run     :      5.18s CPU      6.12s WALL (       1 calls)
     electrons    :    120.22s CPU    126.03s WALL (       1 calls)
     forces       :      1.48s CPU      1.62s WALL (       1 calls)
     force_dftd3  :      0.00s CPU      0.00s WALL (       1 calls)
     stress       :      5.80s CPU      6.51s WALL (       1 calls)
     stres_dftd3  :      0.00s CPU      0.00s WALL (       1 calls)

     Called by init_run:
     wfcinit      :      3.19s CPU      3.34s WALL (       1 calls)
     wfcinit:atom :      0.03s CPU      0.04s WALL (       1 calls)
     wfcinit:wfcr :      2.92s CPU      3.02s WALL (       1 calls)
     potinit      :      1.24s CPU      1.75s WALL (       1 calls)
     hinit0       :      0.19s CPU      0.29s WALL (       1 calls)

     Called by electrons:
     c_bands      :     84.33s CPU     85.68s WALL (      10 calls)
     sum_band     :     19.49s CPU     19.76s WALL (      10 calls)
     v_of_rho     :      8.04s CPU      9.63s WALL (      10 calls)
     v_h          :      0.58s CPU      0.77s WALL (      10 calls)
     v_xc         :      8.91s CPU     10.50s WALL (      12 calls)
     mix_rho      :      6.19s CPU      8.81s WALL (      10 calls)
     energy_dftd3 :      0.00s CPU      0.00s WALL (       1 calls)

     Called by c_bands:
     init_us_2    :      0.73s CPU      0.85s WALL (      22 calls)
     cegterg      :     78.21s CPU     79.50s WALL (      10 calls)

     Called by sum_band:
     sum_band:wei :      0.00s CPU      0.00s WALL (      10 calls)
     sum_band:loo :     16.17s CPU     16.30s WALL (      10 calls)
     sum_band:buf :      0.00s CPU      0.00s WALL (      10 calls)
     sum_band:ini :      0.33s CPU      0.39s WALL (      10 calls)

     Called by *egterg:
     cdiaghg      :      0.03s CPU      0.06s WALL (      33 calls)
     cegterg:over :      2.62s CPU      2.63s WALL (      24 calls)
     cegterg:upda :      1.46s CPU      1.64s WALL (      24 calls)
     cegterg:last :      2.42s CPU      2.42s WALL (      20 calls)
     h_psi        :     72.68s CPU     73.72s WALL (      35 calls)
     g_psi        :      0.50s CPU      0.50s WALL (      24 calls)

     Called by h_psi:
     h_psi:calbec :      1.89s CPU      1.92s WALL (      35 calls)
     vloc_psi     :     68.54s CPU     69.01s WALL (      35 calls)
                                        0.00s GPU  (      35 calls)
     add_vuspsi   :      1.91s CPU      1.91s WALL (      35 calls)

     General routines
     calbec       :      3.07s CPU      3.10s WALL (      52 calls)
     fft          :      7.90s CPU      8.02s WALL (     257 calls)
     ffts         :      0.79s CPU      0.81s WALL (      80 calls)
     fftw         :     67.10s CPU     67.31s WALL (    4544 calls)
     interpolate  :      2.37s CPU      2.64s WALL (      40 calls)


     PWSCF        :   2m12.78s CPU   2m20.57s WALL


   This run was terminated on:  11:12:51  11May2025            

=------------------------------------------------------------------------------=
   JOB DONE.
=------------------------------------------------------------------------------=
