 argument  1 = /home/milias/Work/open-collection/theoretical_chemistry/projects/nmr_diplomovky/derivaty_markerov/derivative_7/nwchem/der7.nmr_b3lyp_ccpvdz_cosmo-chcl3.nw
 


============================== echo of input deck ==============================
echo

start molecule

memory total 40 gb

print low

title "der7"
charge 0

geometry units angstroms print xyz autosym
#  load format xyz VX.converged_geometry_blyp_tz2p-solvent-chcl3.xyz
#  load format xyz VX.geom.xyz
#  load format xyz der1.pbe0_tz2p_good_cosmo-chcl3_optimized_geom.xyz
  load format xyz der7.geopt_freq_nmr_pbe0_tz2p_good_cosmo-chcl3_converged_geometry.xyz
end

basis
  * library cc-pvdz
end

dft
  direct
  grid fine
  xc b3lyp
  mult 1
# Reduce output during geometry optimization
  #noprint "final vectors analysis"
end

property
  giao
  shielding
  spinspin
end

cosmo
  solvent chcl3
end

task dft energy
task dft property
================================================================================


                                         
                                         
 
 
             Northwest Computational Chemistry Package (NWChem) 7.0.1
             --------------------------------------------------------
 
 
                    Environmental Molecular Sciences Laboratory
                       Pacific Northwest National Laboratory
                                Richland, WA 99352
 
                              Copyright (c) 1994-2020
                       Pacific Northwest National Laboratory
                            Battelle Memorial Institute
 
             NWChem is an open-source computational chemistry package
                        distributed under the terms of the
                      Educational Community License (ECL) 2.0
             A copy of the license is included with this distribution
                              in the LICENSE.TXT file
 
                                  ACKNOWLEDGMENT
                                  --------------

            This software and its documentation were developed at the
            EMSL at Pacific Northwest National Laboratory, a multiprogram
            national laboratory, operated for the U.S. Department of Energy
            by Battelle under Contract Number DE-AC05-76RL01830. Support
            for this work was provided by the Department of Energy Office
            of Biological and Environmental Research, Office of Basic
            Energy Sciences, and the Office of Advanced Scientific Computing.


           Job information
           ---------------

    hostname        = comp25.grid.umb.sk
    program         = /home/milias/Work/qch/software/nwchem_suite/nwchem_master/bin/LINUX64/nwchem
    date            = Sun Sep  5 00:10:18 2021

    compiled        = Sun_Jan_31_23:21:07_2021
    source          = /home/milias/Work/qch/software/nwchem_suite/nwchem_master
    nwchem branch   = 7.0.0
    nwchem revision = nwchem_on_git-2308-gc943026
    ga revision     = 5.8.0
    use scalapack   = F
    input           = /home/milias/Work/open-collection/theoretical_chemistry/projects/nmr_diplomovky/derivaty_markerov/derivative_7/nwchem/der7.nmr_b3lyp_ccpvdz_cosmo-chcl3.nw
    prefix          = molecule.
    data base       = ./molecule.db
    status          = startup
    nproc           =       12
    time left       =     -1s



           Memory information
           ------------------

    heap     = 1342177276 doubles =  10240.0 Mbytes
    stack    = 1342177281 doubles =  10240.0 Mbytes
    global   = 2684354560 doubles =  20480.0 Mbytes (distinct from heap & stack)
    total    = 5368709117 doubles =  40960.0 Mbytes
    verify   = yes
    hardfail = no 


           Directory information
           ---------------------
 
  0 permanent = .
  0 scratch   = .
 
 
 
 
                                NWChem Input Module
                                -------------------
 
 
                                       der7
                                       ----

 Scaling coordinates for geometry "geometry" by  1.889725989
 (inverse scale =  0.529177249)


          ------
          auto-z
          ------
  no constraints, skipping   0.000000000000000E+000
  no constraints, skipping   0.000000000000000E+000
 
 
                             Geometry "geometry" -> ""
                             -------------------------
 
 Output coordinates in angstroms (scale by  1.889725989 to convert to a.u.)
 
  No.       Tag          Charge          X              Y              Z
 ---- ---------------- ---------- -------------- -------------- --------------
    1 O                    8.0000    -0.50216668     0.85537211    -0.12834916
    2 P                   15.0000    -0.63064458    -0.32262092     0.97996985
    3 O                    8.0000     0.81731041    -1.07428424     0.93530794
    4 O                    8.0000    -1.35852625    -1.46521994     0.06116893
    5 C                    6.0000     0.91464622    -2.08240142    -0.10218592
    6 C                    6.0000    -0.54003015    -2.63146921    -0.18307282
    7 C                    6.0000     1.37877018    -1.41794955    -1.38943746
    8 C                    6.0000     1.93645133    -3.10318597     0.35292889
    9 C                    6.0000    -0.85332417    -3.64722040     0.90495537
   10 C                    6.0000    -0.91535686    -3.18562729    -1.54186113
   11 H                    1.0000     1.57599348    -2.16510174    -2.15916846
   12 H                    1.0000     0.64489947    -0.70635141    -1.76420937
   13 H                    1.0000     2.30697768    -0.88070084    -1.19121678
   14 H                    1.0000     1.71188744    -3.48025475     1.34896416
   15 H                    1.0000     1.96663009    -3.94444128    -0.34221403
   16 H                    1.0000     2.92657159    -2.64638347     0.37160271
   17 H                    1.0000    -0.34207195    -4.59292309     0.72299894
   18 H                    1.0000    -0.56491609    -3.27844384     1.89026687
   19 H                    1.0000    -1.92744661    -3.83492259     0.90968779
   20 H                    1.0000    -0.26399523    -4.02202605    -1.80285109
   21 H                    1.0000    -1.94176217    -3.55327708    -1.51658532
   22 H                    1.0000    -0.83963082    -2.42687038    -2.31834208
   23 C                    6.0000    -0.81161689     2.21103554     0.23479712
   24 C                    6.0000     0.42840678     3.09664450     0.00367522
   25 H                    1.0000    -2.87631653     1.93572748    -0.26216086
   26 H                    1.0000    -1.90303754     2.55280710    -1.59921943
   27 C                    6.0000     0.86121657     3.07873324    -1.46025626
   28 C                    6.0000     1.57155175     2.57622489     0.87390018
   29 H                    1.0000    -2.37016686     3.62554514    -0.26749123
   30 C                    6.0000    -2.06065462     2.61199595    -0.52157872
   31 H                    1.0000    -1.02815055     2.23700245     1.31139438
   32 C                    6.0000     0.10575282     4.52859834     0.42940749
   33 H                    1.0000     2.44789781     3.21933446     0.76737454
   34 H                    1.0000     1.85788219     1.56240111     0.59192528
   35 H                    1.0000     1.28861102     2.56824952     1.93042760
   36 H                    1.0000     0.09981115     3.50794677    -2.11433398
   37 H                    1.0000     1.06666725     2.06045355    -1.79421485
   38 H                    1.0000     1.77310873     3.66729554    -1.58526188
   39 H                    1.0000     1.00991617     5.13972713     0.38740363
   40 H                    1.0000    -0.27136068     4.56266354     1.45519830
   41 H                    1.0000    -0.63614787     4.99264128    -0.22217622
 
      Atomic Mass 
      ----------- 
 
      O                 15.994910
      P                 30.973760
      C                 12.000000
      H                  1.007825
 

 Effective nuclear repulsion energy (a.u.)    1460.5273199254

            Nuclear Dipole moment (a.u.) 
            ----------------------------
        X                 Y               Z
 ---------------- ---------------- ----------------
    -0.0000000000     0.0000000000    -0.0000000000
 


                                Z-matrix (autoz)
                                -------- 

 Units are Angstrom for bonds and degrees for angles
 
      Type          Name      I     J     K     L     M      Value
      ----------- --------  ----- ----- ----- ----- ----- ----------
    1 Stretch                  1     2                       1.62251
    2 Stretch                  1    23                       1.43717
    3 Stretch                  2     3                       1.63204
    4 Stretch                  2     4                       1.63693
    5 Stretch                  3     5                       1.44989
    6 Stretch                  4     6                       1.44559
    7 Stretch                  5     6                       1.55695
    8 Stretch                  5     7                       1.52116
    9 Stretch                  5     8                       1.51434
   10 Stretch                  6     9                       1.52109
   11 Stretch                  6    10                       1.51468
   12 Stretch                  7    11                       1.09070
   13 Stretch                  7    12                       1.08876
   14 Stretch                  7    13                       1.09064
   15 Stretch                  8    14                       1.08844
   16 Stretch                  8    15                       1.09172
   17 Stretch                  8    16                       1.09058
   18 Stretch                  9    17                       1.09034
   19 Stretch                  9    18                       1.09088
   20 Stretch                  9    19                       1.09041
   21 Stretch                 10    20                       1.09176
   22 Stretch                 10    21                       1.09056
   23 Stretch                 10    22                       1.08829
   24 Stretch                 23    24                       1.54123
   25 Stretch                 23    30                       1.51426
   26 Stretch                 23    31                       1.09846
   27 Stretch                 24    27                       1.52668
   28 Stretch                 24    28                       1.52804
   29 Stretch                 24    32                       1.52835
   30 Stretch                 25    30                       1.09084
   31 Stretch                 26    30                       1.09071
   32 Stretch                 27    36                       1.09169
   33 Stretch                 27    37                       1.09116
   34 Stretch                 27    38                       1.09251
   35 Stretch                 28    33                       1.09221
   36 Stretch                 28    34                       1.09057
   37 Stretch                 28    35                       1.09379
   38 Stretch                 29    30                       1.08979
   39 Stretch                 32    39                       1.09213
   40 Stretch                 32    40                       1.09344
   41 Stretch                 32    41                       1.09102
   42 Bend                     1     2     3               104.20776
   43 Bend                     1     2     4                99.12420
   44 Bend                     1    23    24               109.32303
   45 Bend                     1    23    30               107.52757
   46 Bend                     1    23    31               108.20361
   47 Bend                     2     1    23               119.68301
   48 Bend                     2     3     5               113.53931
   49 Bend                     2     4     6               113.96619
   50 Bend                     3     2     4                93.30580
   51 Bend                     3     5     6               102.68883
   52 Bend                     3     5     7               108.80239
   53 Bend                     3     5     8               107.39375
   54 Bend                     4     6     5               103.63414
   55 Bend                     4     6     9               107.53374
   56 Bend                     4     6    10               107.84404
   57 Bend                     5     6     9               113.00254
   58 Bend                     5     6    10               114.02538
   59 Bend                     5     7    11               110.68039
   60 Bend                     5     7    12               111.78481
   61 Bend                     5     7    13               108.72590
   62 Bend                     5     8    14               111.67444
   63 Bend                     5     8    15               110.28685
   64 Bend                     5     8    16               109.59683
   65 Bend                     6     5     7               113.27520
   66 Bend                     6     5     8               114.09966
   67 Bend                     6     9    17               111.29998
   68 Bend                     6     9    18               111.46147
   69 Bend                     6     9    19               108.72014
   70 Bend                     6    10    20               110.29755
   71 Bend                     6    10    21               109.61892
   72 Bend                     6    10    22               111.57605
   73 Bend                     7     5     8               110.05310
   74 Bend                     9     6    10               110.26281
   75 Bend                    11     7    12               109.06745
   76 Bend                    11     7    13               108.16849
   77 Bend                    12     7    13               108.31619
   78 Bend                    14     8    15               108.74987
   79 Bend                    14     8    16               108.46658
   80 Bend                    15     8    16               107.97331
   81 Bend                    17     9    18               108.66144
   82 Bend                    17     9    19               108.25875
   83 Bend                    18     9    19               108.34301
   84 Bend                    20    10    21               107.98637
   85 Bend                    20    10    22               108.78693
   86 Bend                    21    10    22               108.48571
   87 Bend                    23    24    27               111.41675
   88 Bend                    23    24    28               108.71152
   89 Bend                    23    24    32               109.07131
   90 Bend                    23    30    25               109.50112
   91 Bend                    23    30    26               111.09710
   92 Bend                    23    30    29               111.35054
   93 Bend                    24    23    30               115.88675
   94 Bend                    24    23    31               106.97720
   95 Bend                    24    27    36               111.85008
   96 Bend                    24    27    37               110.96557
   97 Bend                    24    27    38               109.87849
   98 Bend                    24    28    33               110.13127
   99 Bend                    24    28    34               111.45571
  100 Bend                    24    28    35               111.04283
  101 Bend                    24    32    39               109.80317
  102 Bend                    24    32    40               111.30431
  103 Bend                    24    32    41               112.06774
  104 Bend                    25    30    26               108.02157
  105 Bend                    25    30    29               107.98494
  106 Bend                    26    30    29               108.77606
  107 Bend                    27    24    28               109.26961
  108 Bend                    27    24    32               109.75210
  109 Bend                    28    24    32               108.56594
  110 Bend                    30    23    31               108.70541
  111 Bend                    33    28    34               108.14976
  112 Bend                    33    28    35               107.82183
  113 Bend                    34    28    35               108.11283
  114 Bend                    36    27    37               108.35199
  115 Bend                    36    27    38               107.56508
  116 Bend                    37    27    38               108.09326
  117 Bend                    39    32    40               107.70850
  118 Bend                    39    32    41               107.57763
  119 Bend                    40    32    41               108.20988
  120 Torsion                  1     2     3     5         -84.36146
  121 Torsion                  1     2     4     6         113.59110
  122 Torsion                  1    23    24    27          60.30244
  123 Torsion                  1    23    24    28         -60.17009
  124 Torsion                  1    23    24    32        -178.38522
  125 Torsion                  1    23    30    25          58.90466
  126 Torsion                  1    23    30    26         -60.33164
  127 Torsion                  1    23    30    29         178.25363
  128 Torsion                  2     1    23    24         120.77401
  129 Torsion                  2     1    23    30        -112.64732
  130 Torsion                  2     1    23    31           4.60412
  131 Torsion                  2     3     5     6         -32.68073
  132 Torsion                  2     3     5     7          87.61961
  133 Torsion                  2     3     5     8        -153.28698
  134 Torsion                  2     4     6     5         -27.66390
  135 Torsion                  2     4     6     9          92.22567
  136 Torsion                  2     4     6    10        -148.87557
  137 Torsion                  3     2     1    23        -127.34146
  138 Torsion                  3     2     4     6           8.62335
  139 Torsion                  3     5     6     4          35.52218
  140 Torsion                  3     5     6     9         -80.56595
  141 Torsion                  3     5     6    10         152.48050
  142 Torsion                  3     5     7    11         173.31189
  143 Torsion                  3     5     7    12         -64.89191
  144 Torsion                  3     5     7    13          54.63460
  145 Torsion                  3     5     8    14          52.63415
  146 Torsion                  3     5     8    15         173.67699
  147 Torsion                  3     5     8    16         -67.58455
  148 Torsion                  4     2     1    23         136.86697
  149 Torsion                  4     2     3     5          15.91952
  150 Torsion                  4     6     5     7         -81.63892
  151 Torsion                  4     6     5     8         151.39623
  152 Torsion                  4     6     9    17         174.28729
  153 Torsion                  4     6     9    18         -64.22619
  154 Torsion                  4     6     9    19          55.13161
  155 Torsion                  4     6    10    20         175.43730
  156 Torsion                  4     6    10    21         -65.78804
  157 Torsion                  4     6    10    22          54.40610
  158 Torsion                  5     6     9    17         -71.96636
  159 Torsion                  5     6     9    18          49.52016
  160 Torsion                  5     6     9    19         168.87796
  161 Torsion                  5     6    10    20          60.94202
  162 Torsion                  5     6    10    21         179.71668
  163 Torsion                  5     6    10    22         -60.08919
  164 Torsion                  6     5     7    11         -73.16917
  165 Torsion                  6     5     7    12          48.62703
  166 Torsion                  6     5     7    13         168.15354
  167 Torsion                  6     5     8    14         -60.46273
  168 Torsion                  6     5     8    15          60.58011
  169 Torsion                  6     5     8    16         179.31857
  170 Torsion                  7     5     6     9         162.27295
  171 Torsion                  7     5     6    10          35.31941
  172 Torsion                  7     5     8    14         170.92149
  173 Torsion                  7     5     8    15         -68.03567
  174 Torsion                  7     5     8    16          50.70278
  175 Torsion                  8     5     6     9          35.30809
  176 Torsion                  8     5     6    10         -91.64545
  177 Torsion                  8     5     7    11          55.89583
  178 Torsion                  8     5     7    12         177.69203
  179 Torsion                  8     5     7    13         -62.78146
  180 Torsion                  9     6    10    20         -67.41970
  181 Torsion                  9     6    10    21          51.35496
  182 Torsion                  9     6    10    22         171.54909
  183 Torsion                 10     6     9    17          56.95206
  184 Torsion                 10     6     9    18         178.43858
  185 Torsion                 10     6     9    19         -62.20362
  186 Torsion                 23    24    27    36          63.81505
  187 Torsion                 23    24    27    37         -57.31091
  188 Torsion                 23    24    27    38        -176.79619
  189 Torsion                 23    24    28    33        -177.05982
  190 Torsion                 23    24    28    34          62.90435
  191 Torsion                 23    24    28    35         -57.70011
  192 Torsion                 23    24    32    39         173.05770
  193 Torsion                 23    24    32    40          53.88598
  194 Torsion                 23    24    32    41         -67.44829
  195 Torsion                 24    23    30    25        -178.48151
  196 Torsion                 24    23    30    26          62.28220
  197 Torsion                 24    23    30    29         -59.13254
  198 Torsion                 25    30    23    31         -58.01937
  199 Torsion                 26    30    23    31        -177.25567
  200 Torsion                 27    24    23    30         -61.35920
  201 Torsion                 27    24    23    31         177.25018
  202 Torsion                 27    24    28    33          61.14951
  203 Torsion                 27    24    28    34         -58.88633
  204 Torsion                 27    24    28    35        -179.49079
  205 Torsion                 27    24    32    39         -64.62224
  206 Torsion                 27    24    32    40         176.20605
  207 Torsion                 27    24    32    41          54.87177
  208 Torsion                 28    24    23    30         178.16827
  209 Torsion                 28    24    23    31          56.77765
  210 Torsion                 28    24    27    36        -176.04099
  211 Torsion                 28    24    27    37          62.83305
  212 Torsion                 28    24    27    38         -56.65223
  213 Torsion                 28    24    32    39          54.75122
  214 Torsion                 28    24    32    40         -64.42050
  215 Torsion                 28    24    32    41         174.24523
  216 Torsion                 29    30    23    31          61.32960
  217 Torsion                 30    23    24    32          59.95314
  218 Torsion                 31    23    24    32         -61.43749
  219 Torsion                 32    24    27    36         -57.09980
  220 Torsion                 32    24    27    37        -178.22577
  221 Torsion                 32    24    27    38          62.28896
  222 Torsion                 32    24    28    33         -58.52583
  223 Torsion                 32    24    28    34        -178.56166
  224 Torsion                 32    24    28    35          60.83388
 
 
            XYZ format geometry
            -------------------
    41
 geometry
 O                    -0.50216668     0.85537211    -0.12834916
 P                    -0.63064458    -0.32262092     0.97996985
 O                     0.81731041    -1.07428424     0.93530794
 O                    -1.35852625    -1.46521994     0.06116893
 C                     0.91464622    -2.08240142    -0.10218592
 C                    -0.54003015    -2.63146921    -0.18307282
 C                     1.37877018    -1.41794955    -1.38943746
 C                     1.93645133    -3.10318597     0.35292889
 C                    -0.85332417    -3.64722040     0.90495537
 C                    -0.91535686    -3.18562729    -1.54186113
 H                     1.57599348    -2.16510174    -2.15916846
 H                     0.64489947    -0.70635141    -1.76420937
 H                     2.30697768    -0.88070084    -1.19121678
 H                     1.71188744    -3.48025475     1.34896416
 H                     1.96663009    -3.94444128    -0.34221403
 H                     2.92657159    -2.64638347     0.37160271
 H                    -0.34207195    -4.59292309     0.72299894
 H                    -0.56491609    -3.27844384     1.89026687
 H                    -1.92744661    -3.83492259     0.90968779
 H                    -0.26399523    -4.02202605    -1.80285109
 H                    -1.94176217    -3.55327708    -1.51658532
 H                    -0.83963082    -2.42687038    -2.31834208
 C                    -0.81161689     2.21103554     0.23479712
 C                     0.42840678     3.09664450     0.00367522
 H                    -2.87631653     1.93572748    -0.26216086
 H                    -1.90303754     2.55280710    -1.59921943
 C                     0.86121657     3.07873324    -1.46025626
 C                     1.57155175     2.57622489     0.87390018
 H                    -2.37016686     3.62554514    -0.26749123
 C                    -2.06065462     2.61199595    -0.52157872
 H                    -1.02815055     2.23700245     1.31139438
 C                     0.10575282     4.52859834     0.42940749
 H                     2.44789781     3.21933446     0.76737454
 H                     1.85788219     1.56240111     0.59192528
 H                     1.28861102     2.56824952     1.93042760
 H                     0.09981115     3.50794677    -2.11433398
 H                     1.06666725     2.06045355    -1.79421485
 H                     1.77310873     3.66729554    -1.58526188
 H                     1.00991617     5.13972713     0.38740363
 H                    -0.27136068     4.56266354     1.45519830
 H                    -0.63614787     4.99264128    -0.22217622
 
 ==============================================================================
                                internuclear distances
 ------------------------------------------------------------------------------
       center one      |      center two      | atomic units |  angstroms
 ------------------------------------------------------------------------------
    2 P                |   1 O                |     3.06610  |     1.62251
    3 O                |   2 P                |     3.08412  |     1.63204
    4 O                |   2 P                |     3.09335  |     1.63693
    5 C                |   3 O                |     2.73989  |     1.44989
    6 C                |   4 O                |     2.73177  |     1.44559
    6 C                |   5 C                |     2.94221  |     1.55695
    7 C                |   5 C                |     2.87457  |     1.52116
    8 C                |   5 C                |     2.86168  |     1.51434
    9 C                |   6 C                |     2.87444  |     1.52109
   10 C                |   6 C                |     2.86234  |     1.51468
   11 H                |   7 C                |     2.06112  |     1.09070
   12 H                |   7 C                |     2.05745  |     1.08876
   13 H                |   7 C                |     2.06101  |     1.09064
   14 H                |   8 C                |     2.05685  |     1.08844
   15 H                |   8 C                |     2.06305  |     1.09172
   16 H                |   8 C                |     2.06089  |     1.09058
   17 H                |   9 C                |     2.06044  |     1.09034
   18 H                |   9 C                |     2.06146  |     1.09088
   19 H                |   9 C                |     2.06058  |     1.09041
   20 H                |  10 C                |     2.06314  |     1.09176
   21 H                |  10 C                |     2.06085  |     1.09056
   22 H                |  10 C                |     2.05656  |     1.08829
   23 C                |   1 O                |     2.71586  |     1.43717
   24 C                |  23 C                |     2.91250  |     1.54123
   27 C                |  24 C                |     2.88500  |     1.52668
   28 C                |  24 C                |     2.88758  |     1.52804
   30 C                |  23 C                |     2.86153  |     1.51426
   30 C                |  25 H                |     2.06140  |     1.09084
   30 C                |  26 H                |     2.06115  |     1.09071
   30 C                |  29 H                |     2.05940  |     1.08979
   31 H                |  23 C                |     2.07580  |     1.09846
   32 C                |  24 C                |     2.88816  |     1.52835
   33 H                |  28 C                |     2.06398  |     1.09221
   34 H                |  28 C                |     2.06087  |     1.09057
   35 H                |  28 C                |     2.06696  |     1.09379
   36 H                |  27 C                |     2.06299  |     1.09169
   37 H                |  27 C                |     2.06199  |     1.09116
   38 H                |  27 C                |     2.06455  |     1.09251
   39 H                |  32 C                |     2.06383  |     1.09213
   40 H                |  32 C                |     2.06631  |     1.09344
   41 H                |  32 C                |     2.06172  |     1.09102
 ------------------------------------------------------------------------------
                         number of included internuclear distances:         41
 ==============================================================================



 ==============================================================================
                                 internuclear angles
 ------------------------------------------------------------------------------
        center 1       |       center 2       |       center 3       |  degrees
 ------------------------------------------------------------------------------
    2 P                |   1 O                |  23 C                |   119.68
    1 O                |   2 P                |   3 O                |   104.21
    1 O                |   2 P                |   4 O                |    99.12
    3 O                |   2 P                |   4 O                |    93.31
    2 P                |   3 O                |   5 C                |   113.54
    2 P                |   4 O                |   6 C                |   113.97
    3 O                |   5 C                |   6 C                |   102.69
    3 O                |   5 C                |   7 C                |   108.80
    3 O                |   5 C                |   8 C                |   107.39
    6 C                |   5 C                |   7 C                |   113.28
    6 C                |   5 C                |   8 C                |   114.10
    7 C                |   5 C                |   8 C                |   110.05
    4 O                |   6 C                |   5 C                |   103.63
    4 O                |   6 C                |   9 C                |   107.53
    4 O                |   6 C                |  10 C                |   107.84
    5 C                |   6 C                |   9 C                |   113.00
    5 C                |   6 C                |  10 C                |   114.03
    9 C                |   6 C                |  10 C                |   110.26
    5 C                |   7 C                |  11 H                |   110.68
    5 C                |   7 C                |  12 H                |   111.78
    5 C                |   7 C                |  13 H                |   108.73
   11 H                |   7 C                |  12 H                |   109.07
   11 H                |   7 C                |  13 H                |   108.17
   12 H                |   7 C                |  13 H                |   108.32
    5 C                |   8 C                |  14 H                |   111.67
    5 C                |   8 C                |  15 H                |   110.29
    5 C                |   8 C                |  16 H                |   109.60
   14 H                |   8 C                |  15 H                |   108.75
   14 H                |   8 C                |  16 H                |   108.47
   15 H                |   8 C                |  16 H                |   107.97
    6 C                |   9 C                |  17 H                |   111.30
    6 C                |   9 C                |  18 H                |   111.46
    6 C                |   9 C                |  19 H                |   108.72
   17 H                |   9 C                |  18 H                |   108.66
   17 H                |   9 C                |  19 H                |   108.26
   18 H                |   9 C                |  19 H                |   108.34
    6 C                |  10 C                |  20 H                |   110.30
    6 C                |  10 C                |  21 H                |   109.62
    6 C                |  10 C                |  22 H                |   111.58
   20 H                |  10 C                |  21 H                |   107.99
   20 H                |  10 C                |  22 H                |   108.79
   21 H                |  10 C                |  22 H                |   108.49
    1 O                |  23 C                |  24 C                |   109.32
    1 O                |  23 C                |  30 C                |   107.53
    1 O                |  23 C                |  31 H                |   108.20
   24 C                |  23 C                |  30 C                |   115.89
   24 C                |  23 C                |  31 H                |   106.98
   30 C                |  23 C                |  31 H                |   108.71
   23 C                |  24 C                |  27 C                |   111.42
   23 C                |  24 C                |  28 C                |   108.71
   23 C                |  24 C                |  32 C                |   109.07
   27 C                |  24 C                |  28 C                |   109.27
   27 C                |  24 C                |  32 C                |   109.75
   28 C                |  24 C                |  32 C                |   108.57
   24 C                |  27 C                |  36 H                |   111.85
   24 C                |  27 C                |  37 H                |   110.97
   24 C                |  27 C                |  38 H                |   109.88
   36 H                |  27 C                |  37 H                |   108.35
   36 H                |  27 C                |  38 H                |   107.57
   37 H                |  27 C                |  38 H                |   108.09
   24 C                |  28 C                |  33 H                |   110.13
   24 C                |  28 C                |  34 H                |   111.46
   24 C                |  28 C                |  35 H                |   111.04
   33 H                |  28 C                |  34 H                |   108.15
   33 H                |  28 C                |  35 H                |   107.82
   34 H                |  28 C                |  35 H                |   108.11
   23 C                |  30 C                |  25 H                |   109.50
   23 C                |  30 C                |  26 H                |   111.10
   23 C                |  30 C                |  29 H                |   111.35
   25 H                |  30 C                |  26 H                |   108.02
   25 H                |  30 C                |  29 H                |   107.98
   26 H                |  30 C                |  29 H                |   108.78
   24 C                |  32 C                |  39 H                |   109.80
   24 C                |  32 C                |  40 H                |   111.30
   24 C                |  32 C                |  41 H                |   112.07
   39 H                |  32 C                |  40 H                |   107.71
   39 H                |  32 C                |  41 H                |   107.58
   40 H                |  32 C                |  41 H                |   108.21
 ------------------------------------------------------------------------------
                            number of included internuclear angles:         78
 ==============================================================================





 Summary of "ao basis" -> "" (cartesian)
 ------------------------------------------------------------------------------
       Tag                 Description            Shells   Functions and Types
 ---------------- ------------------------------  ------  ---------------------
 *                          cc-pvdz                   on all atoms 


 
                                 NWChem DFT Module
                                 -----------------
 
 
                                       der7
 
 
                      Basis "ao basis" -> "ao basis" (cartesian)
                      -----
  O (Oxygen)
  ----------
            Exponent  Coefficients 
       -------------- ---------------------------------------------------------
  1 S  1.17200000E+04  0.000710
  1 S  1.75900000E+03  0.005470
  1 S  4.00800000E+02  0.027837
  1 S  1.13700000E+02  0.104800
  1 S  3.70300000E+01  0.283062
  1 S  1.32700000E+01  0.448719
  1 S  5.02500000E+00  0.270952
  1 S  1.01300000E+00  0.015458
 
  2 S  1.17200000E+04 -0.000160
  2 S  1.75900000E+03 -0.001263
  2 S  4.00800000E+02 -0.006267
  2 S  1.13700000E+02 -0.025716
  2 S  3.70300000E+01 -0.070924
  2 S  1.32700000E+01 -0.165411
  2 S  5.02500000E+00 -0.116955
  2 S  1.01300000E+00  0.557368
 
  3 S  3.02300000E-01  1.000000
 
  4 P  1.77000000E+01  0.043018
  4 P  3.85400000E+00  0.228913
  4 P  1.04600000E+00  0.508728
 
  5 P  2.75300000E-01  1.000000
 
  6 D  1.18500000E+00  1.000000
 
  P (Phosphorous)
  ---------------
            Exponent  Coefficients 
       -------------- ---------------------------------------------------------
  1 S  9.48400000E+04  0.000256
  1 S  1.42200000E+04  0.001982
  1 S  3.23600000E+03  0.010276
  1 S  9.17100000E+02  0.041482
  1 S  2.99500000E+02  0.131984
  1 S  1.08100000E+02  0.308662
  1 S  4.21800000E+01  0.420647
  1 S  1.72800000E+01  0.222878
  1 S  4.85800000E+00  0.016403
  1 S  1.81800000E+00 -0.002543
  1 S  3.37200000E-01  0.000748
 
  2 S  9.48400000E+04 -0.000070
  2 S  1.42200000E+04 -0.000535
  2 S  3.23600000E+03 -0.002837
  2 S  9.17100000E+02 -0.011398
  2 S  2.99500000E+02 -0.039293
  2 S  1.08100000E+02 -0.099636
  2 S  4.21800000E+01 -0.197983
  2 S  1.72800000E+01 -0.114860
  2 S  4.85800000E+00  0.518595
  2 S  1.81800000E+00  0.601847
  2 S  3.37200000E-01  0.036861
 
  3 S  9.48400000E+04  0.000019
  3 S  1.42200000E+04  0.000147
  3 S  3.23600000E+03  0.000778
  3 S  9.17100000E+02  0.003145
  3 S  2.99500000E+02  0.010820
  3 S  1.08100000E+02  0.027996
  3 S  4.21800000E+01  0.056398
  3 S  1.72800000E+01  0.035819
  3 S  4.85800000E+00 -0.193387
  3 S  1.81800000E+00 -0.372097
  3 S  3.37200000E-01  0.624246
 
  4 S  1.23200000E-01  1.000000
 
  5 P  3.70500000E+02  0.003950
  5 P  8.73300000E+01  0.030249
  5 P  2.75900000E+01  0.129554
  5 P  1.00000000E+01  0.327594
  5 P  3.82500000E+00  0.456992
  5 P  1.49400000E+00  0.253086
  5 P  3.92100000E-01  0.016880
 
  6 P  3.70500000E+02 -0.000960
  6 P  8.73300000E+01 -0.007112
  6 P  2.75900000E+01 -0.032712
  6 P  1.00000000E+01 -0.079578
  6 P  3.82500000E+00 -0.135016
  6 P  1.49400000E+00 -0.009106
  6 P  3.92100000E-01  0.537802
 
  7 P  1.18600000E-01  1.000000
 
  8 D  3.73000000E-01  1.000000
 
  C (Carbon)
  ----------
            Exponent  Coefficients 
       -------------- ---------------------------------------------------------
  1 S  6.66500000E+03  0.000692
  1 S  1.00000000E+03  0.005329
  1 S  2.28000000E+02  0.027077
  1 S  6.47100000E+01  0.101718
  1 S  2.10600000E+01  0.274740
  1 S  7.49500000E+00  0.448564
  1 S  2.79700000E+00  0.285074
  1 S  5.21500000E-01  0.015204
 
  2 S  6.66500000E+03 -0.000146
  2 S  1.00000000E+03 -0.001154
  2 S  2.28000000E+02 -0.005725
  2 S  6.47100000E+01 -0.023312
  2 S  2.10600000E+01 -0.063955
  2 S  7.49500000E+00 -0.149981
  2 S  2.79700000E+00 -0.127262
  2 S  5.21500000E-01  0.544529
 
  3 S  1.59600000E-01  1.000000
 
  4 P  9.43900000E+00  0.038109
  4 P  2.00200000E+00  0.209480
  4 P  5.45600000E-01  0.508557
 
  5 P  1.51700000E-01  1.000000
 
  6 D  5.50000000E-01  1.000000
 
  H (Hydrogen)
  ------------
            Exponent  Coefficients 
       -------------- ---------------------------------------------------------
  1 S  1.30100000E+01  0.019685
  1 S  1.96200000E+00  0.137977
  1 S  4.44600000E-01  0.478148
 
  2 S  1.22000000E-01  1.000000
 
  3 P  7.27000000E-01  1.000000
 


 Summary of "ao basis" -> "ao basis" (cartesian)
 ------------------------------------------------------------------------------
       Tag                 Description            Shells   Functions and Types
 ---------------- ------------------------------  ------  ---------------------
 O                          cc-pvdz                  6       15   3s2p1d
 P                          cc-pvdz                  8       19   4s3p1d
 C                          cc-pvdz                  6       15   3s2p1d
 H                          cc-pvdz                  3        5   2s1p


 
 
 solvent parameters
 solvname_short: chcl3   
 solvname_long:  chloroform                         
 dielec:        4.7113
 dielecinf:     2.0906

          ---------------
          -cosmo- solvent
          ---------------
 Cosmo: York-Karplus, doi: 10.1021/jp992097l
 dielectric constant -eps-     =   4.71
 screen = (eps-1)/(eps    )    =   0.78774
 surface charge correction     = lagrangian
 -lineq- algorithm             =   0
 -bem- low  level              =   2
 -bem- from -octahedral-
 gaussian surface charge width =   0.98000
 degree of switching           =   1.00000
 switching function tolerance  =   0.00010
 atomic radii = 
 --------------
    1  8.000  1.720
    2 15.000  2.106
    3  8.000  1.720
    4  8.000  1.720
    5  6.000  2.000
    6  6.000  2.000
    7  6.000  2.000
    8  6.000  2.000
    9  6.000  2.000
   10  6.000  2.000
   11  1.000  1.300
   12  1.000  1.300
   13  1.000  1.300
   14  1.000  1.300
   15  1.000  1.300
   16  1.000  1.300
   17  1.000  1.300
   18  1.000  1.300
   19  1.000  1.300
   20  1.000  1.300
   21  1.000  1.300
   22  1.000  1.300
   23  6.000  2.000
   24  6.000  2.000
   25  1.000  1.300
   26  1.000  1.300
   27  6.000  2.000
   28  6.000  2.000
   29  1.000  1.300
   30  6.000  2.000
   31  1.000  1.300
   32  6.000  2.000
   33  1.000  1.300
   34  1.000  1.300
   35  1.000  1.300
   36  1.000  1.300
   37  1.000  1.300
   38  1.000  1.300
   39  1.000  1.300
   40  1.000  1.300
   41  1.000  1.300

 solvent accessible surface
 --------------------------

 ---------- ATOMIC COORDINATES (A.U.) ------------ VDWR(ANG.) --
     1   -0.94895743    1.61641891   -0.24254474     1.720
     2   -1.19174545   -0.60966513    1.85187450     2.106
     3    1.54449272   -2.03010285    1.76747572     1.720
     4   -2.56724235   -2.76886420    0.11559252     1.720
     5    1.72843073   -3.93516809   -0.19310338     2.000
     6   -1.02050901   -4.97275575   -0.34595746     2.000
     7    2.60549783   -2.67953612   -2.62565609     2.000
     8    3.65936240   -5.86417118    0.66693890     2.000
     9   -1.61254886   -6.89224718    1.71011768     2.000
    10   -1.72977365   -6.01996268   -2.91369505     2.000
    11    2.97819583   -4.09144902   -4.08023676     1.300
    12    1.21868329   -1.33481062   -3.33387230     1.300
    13    4.35955568   -1.66428327   -2.25107331     1.300
    14    3.23499818   -6.57672786    2.54917264     1.300
    15    3.71639198   -7.45391320   -0.64669074     1.300
    16    5.53041840   -5.00093962    0.70222730     1.300
    17   -0.64642225   -8.67936613    1.36626988     1.300
    18   -1.06753661   -6.19536053    3.57208643     1.300
    19   -3.64234596   -7.24695288    1.71906066     1.300
    20   -0.49887865   -7.60052715   -3.40689456     1.300
    21   -3.66939844   -6.71472004   -2.86593069     1.300
    22   -1.58667219   -4.58612003   -4.38103128     1.300
    23   -1.53373352    4.17825131    0.44370222     2.000
    24    0.80957142    5.85180960    0.00694515     2.000
    25   -5.43545010    3.65799453   -0.49541219     1.300
    26   -3.59621950    4.82410592   -3.02208653     1.300
    27    1.62746333    5.81796221   -2.75948420     2.000
    28    2.96980218    4.86835913    1.65143189     2.000
    29   -4.47896592    6.85128688   -0.50548514     1.300
    30   -3.89407259    4.93595664   -0.98564086     2.000
    31   -1.94292281    4.22732167    2.47817604     1.300
    32    0.19984386    8.55780998    0.81146250     2.000
    33    4.62585610    6.08366000    1.45012761     1.300
    34    3.51088825    2.95250998    1.11857659     1.300
    35    2.43512174    4.85328787    3.64797921     1.300
    36    0.18861572    6.62905818   -3.99551188     1.300
    37    2.01570882    3.89369261   -3.39057443     1.300
    38    3.35068964    6.93018370   -2.99571058     1.300
    39    1.90846484    9.71267593    0.73208670     1.300
    40   -0.51279732    8.62218387    2.74992605     1.300
    41   -1.20214517    9.43472398   -0.41985218     1.300
 number of segments per atom =         32
 number of   points per atom =         32
 atom (   nspa,  nppa )
 ----------------------
    1 (      9,     0 )       0
    2 (     11,     0 )       0
    3 (     12,     0 )       0
    4 (     10,     0 )       0
    5 (      0,     0 )       0
    6 (      0,     0 )       0
    7 (     15,     0 )       0
    8 (     17,     0 )       0
    9 (     14,     0 )       0
   10 (     17,     0 )       0
   11 (     14,     0 )       0
   12 (     14,     0 )       0
   13 (     15,     0 )       0
   14 (     12,     0 )       0
   15 (     13,     0 )       0
   16 (     15,     0 )       0
   17 (     13,     0 )       0
   18 (     13,     0 )       0
   19 (     15,     0 )       0
   20 (     15,     0 )       0
   21 (     14,     0 )       0
   22 (     11,     0 )       0
   23 (      5,     0 )       0
   24 (      2,     0 )       0
   25 (     15,     0 )       0
   26 (     15,     0 )       0
   27 (     15,     0 )       0
   28 (     16,     0 )       0
   29 (     12,     0 )       0
   30 (     15,     0 )       0
   31 (     12,     0 )       0
   32 (     13,     0 )       0
   33 (     14,     0 )       0
   34 (     13,     0 )       0
   35 (     14,     0 )       0
   36 (     14,     0 )       0
   37 (     13,     0 )       0
   38 (     15,     0 )       0
   39 (     15,     0 )       0
   40 (     14,     0 )       0
   41 (     15,     0 )       0
 number of -cosmo- surface points =      516
 molecular surface =    294.313 angstrom**2
 molecular volume  =    160.408 angstrom**3
 G(cav/disp)       =      2.332 kcal/mol
 ...... end of -cosmo- initialization ......


  Caching 1-el integrals 
   Time after variat. SCF:     15.4
   Time prior to 1st pass:     15.4
  Resetting Diis


         Total DFT energy =    -1039.468237231477
      One electron energy =    -4325.380661423000
           Coulomb energy =     1948.337276355340
    Exchange-Corr. energy =     -123.807702091542
 Nuclear repulsion energy =     1460.527319925389

             COSMO energy =        0.855530002335

 Numeric. integr. density =      136.000034852206

     Total iterative time =    784.0s


                                   COSMO solvation results
                                   -----------------------

                 gas phase energy =     -1039.461697245390
                 sol phase energy =     -1039.468237231477
 (electrostatic) solvation energy =         0.006539986087 (    4.10 kcal/mol)
 
 
                                NWChem Input Module
                                -------------------
 
 
                              NWChem Property Module
                              ----------------------
 
 
                                 NWChem DFT Module
                                 -----------------
 
 
                                       der7
 
 
 
 
 solvent parameters
 solvname_short: chcl3   
 solvname_long:  chloroform                         
 dielec:        4.7113
 dielecinf:     2.0906

          ---------------
          -cosmo- solvent
          ---------------
 Cosmo: York-Karplus, doi: 10.1021/jp992097l
 dielectric constant -eps-     =   4.71
 screen = (eps-1)/(eps    )    =   0.78774
 surface charge correction     = lagrangian
 -lineq- algorithm             =   0
 -bem- low  level              =   2
 -bem- from -octahedral-
 gaussian surface charge width =   0.98000
 degree of switching           =   1.00000
 switching function tolerance  =   0.00010
 atomic radii = 
 --------------
    1  8.000  1.720
    2 15.000  2.106
    3  8.000  1.720
    4  8.000  1.720
    5  6.000  2.000
    6  6.000  2.000
    7  6.000  2.000
    8  6.000  2.000
    9  6.000  2.000
   10  6.000  2.000
   11  1.000  1.300
   12  1.000  1.300
   13  1.000  1.300
   14  1.000  1.300
   15  1.000  1.300
   16  1.000  1.300
   17  1.000  1.300
   18  1.000  1.300
   19  1.000  1.300
   20  1.000  1.300
   21  1.000  1.300
   22  1.000  1.300
   23  6.000  2.000
   24  6.000  2.000
   25  1.000  1.300
   26  1.000  1.300
   27  6.000  2.000
   28  6.000  2.000
   29  1.000  1.300
   30  6.000  2.000
   31  1.000  1.300
   32  6.000  2.000
   33  1.000  1.300
   34  1.000  1.300
   35  1.000  1.300
   36  1.000  1.300
   37  1.000  1.300
   38  1.000  1.300
   39  1.000  1.300
   40  1.000  1.300
   41  1.000  1.300

 solvent accessible surface
 --------------------------

 ---------- ATOMIC COORDINATES (A.U.) ------------ VDWR(ANG.) --
     1   -0.94895743    1.61641891   -0.24254474     1.720
     2   -1.19174545   -0.60966513    1.85187450     2.106
     3    1.54449272   -2.03010285    1.76747572     1.720
     4   -2.56724235   -2.76886420    0.11559252     1.720
     5    1.72843073   -3.93516809   -0.19310338     2.000
     6   -1.02050901   -4.97275575   -0.34595746     2.000
     7    2.60549783   -2.67953612   -2.62565609     2.000
     8    3.65936240   -5.86417118    0.66693890     2.000
     9   -1.61254886   -6.89224718    1.71011768     2.000
    10   -1.72977365   -6.01996268   -2.91369505     2.000
    11    2.97819583   -4.09144902   -4.08023676     1.300
    12    1.21868329   -1.33481062   -3.33387230     1.300
    13    4.35955568   -1.66428327   -2.25107331     1.300
    14    3.23499818   -6.57672786    2.54917264     1.300
    15    3.71639198   -7.45391320   -0.64669074     1.300
    16    5.53041840   -5.00093962    0.70222730     1.300
    17   -0.64642225   -8.67936613    1.36626988     1.300
    18   -1.06753661   -6.19536053    3.57208643     1.300
    19   -3.64234596   -7.24695288    1.71906066     1.300
    20   -0.49887865   -7.60052715   -3.40689456     1.300
    21   -3.66939844   -6.71472004   -2.86593069     1.300
    22   -1.58667219   -4.58612003   -4.38103128     1.300
    23   -1.53373352    4.17825131    0.44370222     2.000
    24    0.80957142    5.85180960    0.00694515     2.000
    25   -5.43545010    3.65799453   -0.49541219     1.300
    26   -3.59621950    4.82410592   -3.02208653     1.300
    27    1.62746333    5.81796221   -2.75948420     2.000
    28    2.96980218    4.86835913    1.65143189     2.000
    29   -4.47896592    6.85128688   -0.50548514     1.300
    30   -3.89407259    4.93595664   -0.98564086     2.000
    31   -1.94292281    4.22732167    2.47817604     1.300
    32    0.19984386    8.55780998    0.81146250     2.000
    33    4.62585610    6.08366000    1.45012761     1.300
    34    3.51088825    2.95250998    1.11857659     1.300
    35    2.43512174    4.85328787    3.64797921     1.300
    36    0.18861572    6.62905818   -3.99551188     1.300
    37    2.01570882    3.89369261   -3.39057443     1.300
    38    3.35068964    6.93018370   -2.99571058     1.300
    39    1.90846484    9.71267593    0.73208670     1.300
    40   -0.51279732    8.62218387    2.74992605     1.300
    41   -1.20214517    9.43472398   -0.41985218     1.300
 number of segments per atom =         32
 number of   points per atom =         32
 atom (   nspa,  nppa )
 ----------------------
    1 (      9,     0 )       0
    2 (     11,     0 )       0
    3 (     12,     0 )       0
    4 (     10,     0 )       0
    5 (      0,     0 )       0
    6 (      0,     0 )       0
    7 (     15,     0 )       0
    8 (     17,     0 )       0
    9 (     14,     0 )       0
   10 (     17,     0 )       0
   11 (     14,     0 )       0
   12 (     14,     0 )       0
   13 (     15,     0 )       0
   14 (     12,     0 )       0
   15 (     13,     0 )       0
   16 (     15,     0 )       0
   17 (     13,     0 )       0
   18 (     13,     0 )       0
   19 (     15,     0 )       0
   20 (     15,     0 )       0
   21 (     14,     0 )       0
   22 (     11,     0 )       0
   23 (      5,     0 )       0
   24 (      2,     0 )       0
   25 (     15,     0 )       0
   26 (     15,     0 )       0
   27 (     15,     0 )       0
   28 (     16,     0 )       0
   29 (     12,     0 )       0
   30 (     15,     0 )       0
   31 (     12,     0 )       0
   32 (     13,     0 )       0
   33 (     14,     0 )       0
   34 (     13,     0 )       0
   35 (     14,     0 )       0
   36 (     14,     0 )       0
   37 (     13,     0 )       0
   38 (     15,     0 )       0
   39 (     15,     0 )       0
   40 (     14,     0 )       0
   41 (     15,     0 )       0
 number of -cosmo- surface points =      516
 molecular surface =    294.313 angstrom**2
 molecular volume  =    160.408 angstrom**3
 G(cav/disp)       =      2.332 kcal/mol
 ...... end of -cosmo- initialization ......


  Caching 1-el integrals 
   Time after variat. SCF:    800.1
   Time prior to 1st pass:    800.1


         Total DFT energy =    -1039.468237247200
      One electron energy =    -4325.381896874601
           Coulomb energy =     1948.338376822180
    Exchange-Corr. energy =     -123.807774900656
 Nuclear repulsion energy =     1460.527319925389

             COSMO energy =        0.855737780488

 Numeric. integr. density =      136.000034829687

     Total iterative time =    744.4s


                                   COSMO solvation results
                                   -----------------------

                 gas phase energy =     -1039.461697238843
                 sol phase energy =     -1039.468237247200
 (electrostatic) solvation energy =         0.006540008356 (    4.10 kcal/mol)

      -----------------------------------
      Indirect Spin-Spin Coupling Tensors
      -----------------------------------


      Indirect spin-spin coupling not calculated for RHF
      wave functions: needs UHF wave function

          -----------------------------------------
          Chemical Shielding Tensors (GIAO, in ppm)
          -----------------------------------------

    0 giaofock schwarz done =      58.33%
    0 giaofock schwarz done =      57.82%
 
 solvent parameters
 solvname_short: chcl3   
 solvname_long:  chloroform                         
 dielec:        4.7113
 dielecinf:     2.0906

          ---------------
          -cosmo- solvent
          ---------------
 Cosmo: York-Karplus, doi: 10.1021/jp992097l
 dielectric constant -eps-     =   4.71
 screen = (eps-1)/(eps    )    =   0.78774
 surface charge correction     = lagrangian
 -lineq- algorithm             =   0
 -bem- low  level              =   2
 -bem- from -octahedral-
 gaussian surface charge width =   0.98000
 degree of switching           =   1.00000
 switching function tolerance  =   0.00010
 atomic radii = 
 --------------
    1  8.000  1.720
    2 15.000  2.106
    3  8.000  1.720
    4  8.000  1.720
    5  6.000  2.000
    6  6.000  2.000
    7  6.000  2.000
    8  6.000  2.000
    9  6.000  2.000
   10  6.000  2.000
   11  1.000  1.300
   12  1.000  1.300
   13  1.000  1.300
   14  1.000  1.300
   15  1.000  1.300
   16  1.000  1.300
   17  1.000  1.300
   18  1.000  1.300
   19  1.000  1.300
   20  1.000  1.300
   21  1.000  1.300
   22  1.000  1.300
   23  6.000  2.000
   24  6.000  2.000
   25  1.000  1.300
   26  1.000  1.300
   27  6.000  2.000
   28  6.000  2.000
   29  1.000  1.300
   30  6.000  2.000
   31  1.000  1.300
   32  6.000  2.000
   33  1.000  1.300
   34  1.000  1.300
   35  1.000  1.300
   36  1.000  1.300
   37  1.000  1.300
   38  1.000  1.300
   39  1.000  1.300
   40  1.000  1.300
   41  1.000  1.300

 solvent accessible surface
 --------------------------

 ---------- ATOMIC COORDINATES (A.U.) ------------ VDWR(ANG.) --
     1   -0.94895743    1.61641891   -0.24254474     1.720
     2   -1.19174545   -0.60966513    1.85187450     2.106
     3    1.54449272   -2.03010285    1.76747572     1.720
     4   -2.56724235   -2.76886420    0.11559252     1.720
     5    1.72843073   -3.93516809   -0.19310338     2.000
     6   -1.02050901   -4.97275575   -0.34595746     2.000
     7    2.60549783   -2.67953612   -2.62565609     2.000
     8    3.65936240   -5.86417118    0.66693890     2.000
     9   -1.61254886   -6.89224718    1.71011768     2.000
    10   -1.72977365   -6.01996268   -2.91369505     2.000
    11    2.97819583   -4.09144902   -4.08023676     1.300
    12    1.21868329   -1.33481062   -3.33387230     1.300
    13    4.35955568   -1.66428327   -2.25107331     1.300
    14    3.23499818   -6.57672786    2.54917264     1.300
    15    3.71639198   -7.45391320   -0.64669074     1.300
    16    5.53041840   -5.00093962    0.70222730     1.300
    17   -0.64642225   -8.67936613    1.36626988     1.300
    18   -1.06753661   -6.19536053    3.57208643     1.300
    19   -3.64234596   -7.24695288    1.71906066     1.300
    20   -0.49887865   -7.60052715   -3.40689456     1.300
    21   -3.66939844   -6.71472004   -2.86593069     1.300
    22   -1.58667219   -4.58612003   -4.38103128     1.300
    23   -1.53373352    4.17825131    0.44370222     2.000
    24    0.80957142    5.85180960    0.00694515     2.000
    25   -5.43545010    3.65799453   -0.49541219     1.300
    26   -3.59621950    4.82410592   -3.02208653     1.300
    27    1.62746333    5.81796221   -2.75948420     2.000
    28    2.96980218    4.86835913    1.65143189     2.000
    29   -4.47896592    6.85128688   -0.50548514     1.300
    30   -3.89407259    4.93595664   -0.98564086     2.000
    31   -1.94292281    4.22732167    2.47817604     1.300
    32    0.19984386    8.55780998    0.81146250     2.000
    33    4.62585610    6.08366000    1.45012761     1.300
    34    3.51088825    2.95250998    1.11857659     1.300
    35    2.43512174    4.85328787    3.64797921     1.300
    36    0.18861572    6.62905818   -3.99551188     1.300
    37    2.01570882    3.89369261   -3.39057443     1.300
    38    3.35068964    6.93018370   -2.99571058     1.300
    39    1.90846484    9.71267593    0.73208670     1.300
    40   -0.51279732    8.62218387    2.74992605     1.300
    41   -1.20214517    9.43472398   -0.41985218     1.300
 number of segments per atom =         32
 number of   points per atom =         32
 atom (   nspa,  nppa )
 ----------------------
    1 (      9,     0 )       0
    2 (     11,     0 )       0
    3 (     12,     0 )       0
    4 (     10,     0 )       0
    5 (      0,     0 )       0
    6 (      0,     0 )       0
    7 (     15,     0 )       0
    8 (     17,     0 )       0
    9 (     14,     0 )       0
   10 (     17,     0 )       0
   11 (     14,     0 )       0
   12 (     14,     0 )       0
   13 (     15,     0 )       0
   14 (     12,     0 )       0
   15 (     13,     0 )       0
   16 (     15,     0 )       0
   17 (     13,     0 )       0
   18 (     13,     0 )       0
   19 (     15,     0 )       0
   20 (     15,     0 )       0
   21 (     14,     0 )       0
   22 (     11,     0 )       0
   23 (      5,     0 )       0
   24 (      2,     0 )       0
   25 (     15,     0 )       0
   26 (     15,     0 )       0
   27 (     15,     0 )       0
   28 (     16,     0 )       0
   29 (     12,     0 )       0
   30 (     15,     0 )       0
   31 (     12,     0 )       0
   32 (     13,     0 )       0
   33 (     14,     0 )       0
   34 (     13,     0 )       0
   35 (     14,     0 )       0
   36 (     14,     0 )       0
   37 (     13,     0 )       0
   38 (     15,     0 )       0
   39 (     15,     0 )       0
   40 (     14,     0 )       0
   41 (     15,     0 )       0
 number of -cosmo- surface points =      516
 molecular surface =    294.313 angstrom**2
 molecular volume  =    160.408 angstrom**3
 G(cav/disp)       =      2.332 kcal/mol
 ...... end of -cosmo- initialization ......


 SCF residual:   6.022489410212853E-005

 Wrote CPHF data to ./molecule.shieldcphf

 Calc. par tensor-> nonrel
      Atom:    1  O 
        Diamagnetic
    369.4537     -3.6811     -1.9751
     -3.6811    421.2756     -9.5684
     -1.9751     -9.5684    379.5377

        Paramagnetic
   -164.4114     43.8654     20.0935
     43.8654   -348.6360    -72.2904
     20.0935    -72.2904   -170.8345

        Total Shielding Tensor
    205.0424     40.1843     18.1184
     40.1843     72.6396    -81.8588
     18.1184    -81.8588    208.7032

           isotropic =     162.1284
          anisotropy =     127.4927

          Principal Components and Axis System
                 1           2           3
              247.1235    215.7314     23.5302

      1        -0.0202      0.9716     -0.2360
      2        -0.4285      0.2048      0.8800
      3         0.9033      0.1189      0.4121



      Atom:    2  P 
        Diamagnetic
    964.5936     -0.9247      0.3392
     -0.9247    974.9116     -0.3765
      0.3392     -0.3765    962.0683

        Paramagnetic
   -747.1580      7.2142    -50.1389
      7.2142   -794.2974     -4.2953
    -50.1389     -4.2953   -619.5171

        Total Shielding Tensor
    217.4355      6.2895    -49.7998
      6.2895    180.6142     -4.6718
    -49.7998     -4.6718    342.5512

           isotropic =     246.8670
          anisotropy =     169.9801

          Principal Components and Axis System
                 1           2           3
              360.1870    200.9713    179.4426

      1        -0.3306      0.9204     -0.2086
      2        -0.0361      0.2085      0.9774
      3         0.9431      0.3306     -0.0357



      Atom:    3  O 
        Diamagnetic
    393.9024    -16.5166     -5.0100
    -16.5166    394.4035     14.7167
     -5.0100     14.7167    380.7641

        Paramagnetic
   -162.9018     -0.2180    -30.8998
     -0.2180   -199.8372      5.0673
    -30.8998      5.0673   -254.6234

        Total Shielding Tensor
    231.0006    -16.7346    -35.9098
    -16.7346    194.5663     19.7840
    -35.9098     19.7840    126.1407

           isotropic =     183.9025
          anisotropy =     100.3735

          Principal Components and Axis System
                 1           2           3
              250.8182    188.3508    112.5385

      1         0.8756      0.4053      0.2629
      2        -0.3698      0.9124     -0.1752
      3        -0.3109      0.0562      0.9488



      Atom:    4  O 
        Diamagnetic
    382.1883     -1.7877      2.1061
     -1.7877    409.2790     19.6082
      2.1061     19.6082    378.4701

        Paramagnetic
   -211.4155     -7.3301     48.8259
     -7.3301   -186.0116     15.4081
     48.8259     15.4081   -201.3481

        Total Shielding Tensor
    170.7728     -9.1178     50.9319
     -9.1178    223.2674     35.0163
     50.9319     35.0163    177.1221

           isotropic =     190.3874
          anisotropy =      85.4945

          Principal Components and Axis System
                 1           2           3
              247.3838    209.7202    114.0583

      1         0.3054      0.6804      0.6662
      2         0.7452     -0.6063      0.2776
      3         0.5928      0.4117     -0.6922



      Atom:    5  C 
        Diamagnetic
    246.7063     -2.3244     -1.6684
     -2.3244    245.9334      1.4658
     -1.6684      1.4658    242.9025

        Paramagnetic
   -155.7803      4.4747      0.0605
      4.4747   -124.5219     27.6472
      0.0605     27.6472   -127.3716

        Total Shielding Tensor
     90.9260      2.1503     -1.6079
      2.1503    121.4115     29.1130
     -1.6079     29.1130    115.5309

           isotropic =     109.2895
          anisotropy =      57.6713

          Principal Components and Axis System
                 1           2           3
              147.7370     92.8358     87.2956

      1         0.0091      0.8089      0.5878
      2         0.7420      0.3886     -0.5463
      3         0.6703     -0.4412      0.5967



      Atom:    6  C 
        Diamagnetic
    243.7738      1.7455      0.8153
      1.7455    249.5115      2.2374
      0.8153      2.2374    241.7695

        Paramagnetic
   -129.6613    -27.4511     -5.4483
    -27.4511   -122.7060      8.4566
     -5.4483      8.4566   -162.5699

        Total Shielding Tensor
    114.1124    -25.7055     -4.6330
    -25.7055    126.8055     10.6940
     -4.6330     10.6940     79.1996

           isotropic =     106.7058
          anisotropy =      63.0935

          Principal Components and Axis System
                 1           2           3
              148.7682     94.4720     76.8774

      1        -0.6018      0.7979     -0.0354
      2         0.7824      0.5800     -0.2267
      3         0.1603      0.1641      0.9733



      Atom:    7  C 
        Diamagnetic
    244.6045      0.4033     -5.2482
      0.4033    244.6425     -0.8782
     -5.2482     -0.8782    250.0322

        Paramagnetic
    -89.3830      3.5161     -0.9958
      3.5161    -80.0722     -7.9329
     -0.9958     -7.9329    -71.1377

        Total Shielding Tensor
    155.2216      3.9195     -6.2440
      3.9195    164.5703     -8.8111
     -6.2440     -8.8111    178.8945

           isotropic =     166.2288
          anisotropy =      28.0005

          Principal Components and Axis System
                 1           2           3
              184.8958    160.4738    153.3167

      1        -0.2398      0.1116      0.9644
      2        -0.4247      0.8812     -0.2075
      3         0.8730      0.4593      0.1639



      Atom:    8  C 
        Diamagnetic
    248.4603     -5.8183      1.3114
     -5.8183    247.9316     -1.2296
      1.3114     -1.2296    241.5969

        Paramagnetic
    -78.5368     -9.7661      2.1287
     -9.7661    -74.3867     -9.7422
      2.1287     -9.7422    -77.8174

        Total Shielding Tensor
    169.9235    -15.5844      3.4401
    -15.5844    173.5449    -10.9718
      3.4401    -10.9718    163.7795

           isotropic =     169.0826
          anisotropy =      33.5987

          Principal Components and Axis System
                 1           2           3
              191.4817    162.6966    153.0694

      1        -0.5835     -0.6261      0.5172
      2         0.7276     -0.1203      0.6754
      3        -0.3606      0.7704      0.5258



      Atom:    9  C 
        Diamagnetic
    242.1959      2.4346     -1.3617
      2.4346    250.7232     -4.9890
     -1.3617     -4.9890    244.1886

        Paramagnetic
    -84.4681     -2.7301     -3.1306
     -2.7301    -80.2849    -12.0550
     -3.1306    -12.0550    -72.5302

        Total Shielding Tensor
    157.7278     -0.2955     -4.4923
     -0.2955    170.4383    -17.0440
     -4.4923    -17.0440    171.6584

           isotropic =     166.6082
          anisotropy =      32.6956

          Principal Components and Axis System
                 1           2           3
              188.4052    159.4445    151.9747

      1        -0.0992      0.8498      0.5177
      2        -0.6840     -0.4361      0.5848
      3         0.7227     -0.2961      0.6245



      Atom:   10  C 
        Diamagnetic
    242.7614      2.0008      2.5441
      2.0008    245.9797      5.3992
      2.5441      5.3992    249.2200

        Paramagnetic
    -87.2120      3.4785      2.1217
      3.4785    -80.6725      2.0117
      2.1217      2.0117    -62.0577

        Total Shielding Tensor
    155.5494      5.4793      4.6657
      5.4793    165.3072      7.4109
      4.6657      7.4109    187.1623

           isotropic =     169.3396
          anisotropy =      31.7532

          Principal Components and Axis System
                 1           2           3
              190.5084    164.4704    153.0401

      1         0.1736      0.3475      0.9215
      2         0.3124      0.8679     -0.3861
      3         0.9340     -0.3549     -0.0421



      Atom:   11  H 
        Diamagnetic
     25.5207     -1.5078     -5.1911
     -1.5078     28.7993      6.1559
     -5.1911      6.1559     35.5213

        Paramagnetic
      2.9807      1.1554      2.1357
      1.1554      0.0935     -3.4001
      2.1357     -3.4001     -1.4768

        Total Shielding Tensor
     28.5013     -0.3524     -3.0555
     -0.3524     28.8928      2.7558
     -3.0555      2.7558     34.0445

           isotropic =      30.4795
          anisotropy =       8.8156

          Principal Components and Axis System
                 1           2           3
               36.3566     28.3893     26.6927

      1        -0.3543      0.5926      0.7234
      2         0.3386      0.8024     -0.4915
      3         0.8717     -0.0708      0.4849



      Atom:   12  H 
        Diamagnetic
     27.0475     -5.3292     -0.2016
     -5.3292     31.6976     -3.9453
     -0.2016     -3.9453     30.1240

        Paramagnetic
     -0.0505      3.3287     -0.5988
      3.3287      0.4431      1.4756
     -0.5988      1.4756     -0.4113

        Total Shielding Tensor
     26.9970     -2.0005     -0.8003
     -2.0005     32.1407     -2.4697
     -0.8003     -2.4697     29.7128

           isotropic =      29.6168
          anisotropy =       6.4731

          Principal Components and Axis System
                 1           2           3
               33.9322     29.3020     25.6163

      1        -0.1947     -0.5376      0.8204
      2         0.8622      0.3050      0.4045
      3        -0.4677      0.7861      0.4042



      Atom:   13  H 
        Diamagnetic
     35.5196      5.9384     -2.9223
      5.9384     28.8491     -0.7194
     -2.9223     -0.7194     25.4039

        Paramagnetic
     -2.9601     -3.5148      1.0088
     -3.5148      2.1929      0.0330
      1.0088      0.0330      2.3826

        Total Shielding Tensor
     32.5595      2.4236     -1.9135
      2.4236     31.0420     -0.6863
     -1.9135     -0.6863     27.7865

           isotropic =      30.4627
          anisotropy =       6.6261

          Principal Components and Axis System
                 1           2           3
               34.8801     29.4023     27.1057

      1         0.7926     -0.4981      0.3517
      2         0.5482      0.8346     -0.0536
      3        -0.2669      0.2353      0.9346



      Atom:   14  H 
        Diamagnetic
     27.3196     -2.5101      0.7468
     -2.5101     28.3739     -7.0202
      0.7468     -7.0202     33.4734

        Paramagnetic
      2.8202      1.2585      0.5209
      1.2585      1.1267      2.4754
      0.5209      2.4754     -1.6944

        Total Shielding Tensor
     30.1397     -1.2517      1.2677
     -1.2517     29.5006     -4.5448
      1.2677     -4.5448     31.7790

           isotropic =      30.4731
          anisotropy =       8.0981

          Principal Components and Axis System
                 1           2           3
               35.8719     29.6042     25.9433

      1         0.2952      0.9540      0.0535
      2        -0.5926      0.1389      0.7934
      3         0.7495     -0.2659      0.6063



      Atom:   15  H 
        Diamagnetic
     26.6987     -4.9301     -0.6642
     -4.9301     35.4835      6.2302
     -0.6642      6.2302     26.7019

        Paramagnetic
      2.9403      1.4802      0.1219
      1.4802     -1.5849     -3.5413
      0.1219     -3.5413      1.2042

        Total Shielding Tensor
     29.6390     -3.4499     -0.5423
     -3.4499     33.8986      2.6889
     -0.5423      2.6889     27.9061

           isotropic =      30.4812
          anisotropy =       9.1992

          Principal Components and Axis System
                 1           2           3
               36.6140     28.2676     26.5621

      1        -0.4423      0.8068     -0.3917
      2         0.8488      0.2356     -0.4734
      3         0.2896      0.5418      0.7890



      Atom:   16  H 
        Diamagnetic
     40.4227      0.6285      1.7835
      0.6285     26.5829     -0.8136
      1.7835     -0.8136     22.5027

        Paramagnetic
     -4.8158     -0.9737     -0.5233
     -0.9737      2.0047     -0.1244
     -0.5233     -0.1244      4.1654

        Total Shielding Tensor
     35.6070     -0.3451      1.2602
     -0.3451     28.5876     -0.9381
      1.2602     -0.9381     26.6681

           isotropic =      30.2876
          anisotropy =       8.2870

          Principal Components and Axis System
                 1           2           3
               35.8122     28.8813     26.1691

      1         0.9876      0.1106     -0.1118
      2        -0.0657      0.9361      0.3455
      3         0.1428     -0.3338      0.9318



      Atom:   17  H 
        Diamagnetic
     25.9445     -3.5433     -0.8227
     -3.5433     39.6316     -1.6740
     -0.8227     -1.6740     23.8622

        Paramagnetic
      2.7649      2.3545      0.7269
      2.3545     -3.3573     -0.5223
      0.7269     -0.5223      3.1241

        Total Shielding Tensor
     28.7093     -1.1889     -0.0958
     -1.1889     36.2743     -2.1964
     -0.0958     -2.1964     26.9863

           isotropic =      30.6566
          anisotropy =       9.4035

          Principal Components and Axis System
                 1           2           3
               36.9256     28.6095     26.4348

      1        -0.1375      0.9771      0.1625
      2         0.9674      0.0973      0.2336
      3        -0.2125     -0.1893      0.9587



      Atom:   18  H 
        Diamagnetic
     23.4497      2.2770      1.4245
      2.2770     28.6743     -1.3488
      1.4245     -1.3488     37.0067

        Paramagnetic
      3.9164     -0.6479     -1.7155
     -0.6479      0.5968     -0.9117
     -1.7155     -0.9117     -2.5574

        Total Shielding Tensor
     27.3662      1.6291     -0.2910
      1.6291     29.2711     -2.2604
     -0.2910     -2.2604     34.4493

           isotropic =      30.3622
          anisotropy =       7.5409

          Principal Components and Axis System
                 1           2           3
               35.3894     29.3745     26.3226

      1        -0.1086      0.5540      0.8254
      2        -0.3698      0.7482     -0.5508
      3         0.9227      0.3650     -0.1237



      Atom:   19  H 
        Diamagnetic
     36.4887      6.3342     -2.6811
      6.3342     28.4120     -2.9736
     -2.6811     -2.9736     24.5064

        Paramagnetic
     -3.1712     -3.0577      0.8415
     -3.0577      1.5699      1.2561
      0.8415      1.2561      3.9758

        Total Shielding Tensor
     33.3175      3.2765     -1.8396
      3.2765     29.9819     -1.7175
     -1.8396     -1.7175     28.4822

           isotropic =      30.5939
          anisotropy =       8.2969

          Principal Components and Axis System
                 1           2           3
               36.1252     28.3272     27.3293

      1         0.8010     -0.5883     -0.1112
      2         0.5133      0.5792      0.6333
      3        -0.3081     -0.5643      0.7659



      Atom:   20  H 
        Diamagnetic
     26.8158     -4.5690     -1.1849
     -4.5690     34.1448      7.1372
     -1.1849      7.1372     28.0058

        Paramagnetic
      1.4692      3.0468      0.6617
      3.0468     -1.2519     -2.6040
      0.6617     -2.6040      2.0780

        Total Shielding Tensor
     28.2850     -1.5222     -0.5231
     -1.5222     32.8929      4.5332
     -0.5231      4.5332     30.0839

           isotropic =      30.4206
          anisotropy =       9.1512

          Principal Components and Axis System
                 1           2           3
               36.5214     28.1572     26.5831

      1        -0.1838      0.9316     -0.3136
      2         0.7966     -0.0458     -0.6028
      3         0.5759      0.3606      0.7337



      Atom:   21  H 
        Diamagnetic
     35.8355      6.9427      3.5682
      6.9427     27.0025      3.2152
      3.5682      3.2152     26.6782

        Paramagnetic
     -3.0543     -3.2045     -1.3203
     -3.2045      1.8613     -1.6317
     -1.3203     -1.6317      2.5238

        Total Shielding Tensor
     32.7811      3.7383      2.2479
      3.7383     28.8638      1.5836
      2.2479      1.5836     29.2019

           isotropic =      30.2823
          anisotropy =       8.7708

          Principal Components and Axis System
                 1           2           3
               36.1295     28.1364     26.5810

      1         0.7916     -0.3733     -0.4837
      2         0.4876     -0.0913      0.8683
      3         0.3683      0.9232     -0.1097



      Atom:   22  H 
        Diamagnetic
     23.7005      1.9791      1.9931
      1.9791     29.0742     -3.3099
      1.9931     -3.3099     36.4225

        Paramagnetic
      4.0037     -0.2385     -0.2198
     -0.2385      0.0769      1.6799
     -0.2198      1.6799     -2.3752

        Total Shielding Tensor
     27.7042      1.7406      1.7733
      1.7406     29.1511     -1.6300
      1.7733     -1.6300     34.0473

           isotropic =      30.3009
          anisotropy =       6.6991

          Principal Components and Axis System
                 1           2           3
               34.7669     30.2865     25.8493

      1         0.1861      0.5903      0.7855
      2        -0.2202      0.8042     -0.5521
      3         0.9575      0.0702     -0.2797



      Atom:   23  C 
        Diamagnetic
    247.7343      0.0493      2.0312
      0.0493    253.2333      1.0530
      2.0312      1.0530    235.9478

        Paramagnetic
   -136.4554      0.8236     -2.6218
      0.8236   -111.8624     13.6496
     -2.6218     13.6496   -151.4660

        Total Shielding Tensor
    111.2789      0.8729     -0.5906
      0.8729    141.3709     14.7027
     -0.5906     14.7027     84.4819

           isotropic =     112.3772
          anisotropy =      48.8756

          Principal Components and Axis System
                 1           2           3
              144.9610    111.2840     80.8867

      1         0.0210      0.9994      0.0257
      2         0.9715     -0.0144     -0.2365
      3         0.2360     -0.0299      0.9713



      Atom:   24  C 
        Diamagnetic
    241.2398      1.6659      0.2545
      1.6659    246.3924     -0.0402
      0.2545     -0.0402    239.5540

        Paramagnetic
    -83.2609      3.1691     -0.6365
      3.1691    -86.7890      2.2998
     -0.6365      2.2998    -91.7837

        Total Shielding Tensor
    157.9789      4.8349     -0.3820
      4.8349    159.6034      2.2595
     -0.3820      2.2595    147.7703

           isotropic =     155.1175
          anisotropy =      13.0725

          Principal Components and Axis System
                 1           2           3
              163.8325    154.3392    147.1809

      1         0.6304      0.7642      0.1364
      2         0.7706     -0.5950     -0.2284
      3         0.0934     -0.2491      0.9640



      Atom:   25  H 
        Diamagnetic
     37.9122      3.7621     -0.1462
      3.7621     29.3954     -2.2006
     -0.1462     -2.2006     22.2493

        Paramagnetic
     -2.4400     -1.8096      0.2553
     -1.8096      1.0265      1.1250
      0.2553      1.1250      4.2708

        Total Shielding Tensor
     35.4722      1.9526      0.1091
      1.9526     30.4219     -1.0756
      0.1091     -1.0756     26.5200

           isotropic =      30.8047
          anisotropy =       8.0110

          Principal Components and Axis System
                 1           2           3
               36.1454     30.0669     26.2019

      1         0.9446     -0.3207     -0.0695
      2         0.3271      0.9036      0.2765
      3        -0.0258     -0.2839      0.9585



      Atom:   26  H 
        Diamagnetic
     27.3490     -0.9959      2.5356
     -0.9959     24.2224     -1.5664
      2.5356     -1.5664     36.9662

        Paramagnetic
      2.9425      1.1520     -0.3899
      1.1520      3.4026      0.6786
     -0.3899      0.6786     -3.6374

        Total Shielding Tensor
     30.2915      0.1561      2.1457
      0.1561     27.6250     -0.8878
      2.1457     -0.8878     33.3289

           isotropic =      30.4151
          anisotropy =       6.1485

          Principal Components and Axis System
                 1           2           3
               34.5141     29.3455     27.3858

      1         0.4475      0.8686     -0.2130
      2        -0.1043      0.2872      0.9522
      3         0.8882     -0.4038      0.2191



      Atom:   27  C 
        Diamagnetic
    243.0137      1.1780     -3.2190
      1.1780    243.8720     -1.9718
     -3.2190     -1.9718    249.2532

        Paramagnetic
    -82.2392     -3.0732     -2.3170
     -3.0732    -82.0526      4.4152
     -2.3170      4.4152    -57.5705

        Total Shielding Tensor
    160.7745     -1.8951     -5.5360
     -1.8951    161.8194      2.4434
     -5.5360      2.4434    191.6827

           isotropic =     171.4255
          anisotropy =      32.1893

          Principal Components and Axis System
                 1           2           3
              192.8850    162.3880    159.0035

      1        -0.1743     -0.4682      0.8662
      2         0.0878      0.8688      0.4873
      3         0.9808     -0.1610      0.1103



      Atom:   28  C 
        Diamagnetic
    247.8270      0.4305      4.2364
      0.4305    245.0201     -0.9316
      4.2364     -0.9316    243.7469

        Paramagnetic
    -76.7741     -7.6103     10.9661
     -7.6103    -93.1693    -10.0885
     10.9661    -10.0885    -77.0425

        Total Shielding Tensor
    171.0529     -7.1798     15.2025
     -7.1798    151.8509    -11.0202
     15.2025    -11.0202    166.7044

           isotropic =     163.2027
          anisotropy =      38.1374

          Principal Components and Axis System
                 1           2           3
              188.6277    155.0363    145.9443

      1         0.6911     -0.7207     -0.0551
      2        -0.3279     -0.3806      0.8647
      3         0.6441      0.5795      0.4993



      Atom:   29  H 
        Diamagnetic
     30.4276     -5.8440      0.8533
     -5.8440     36.4594      1.6750
      0.8533      1.6750     22.1472

        Paramagnetic
      2.0057      2.4008     -0.2373
      2.4008     -2.4881     -0.6877
     -0.2373     -0.6877      2.7351

        Total Shielding Tensor
     32.4333     -3.4431      0.6160
     -3.4431     33.9713      0.9873
      0.6160      0.9873     24.8823

           isotropic =      30.4290
          anisotropy =       9.4710

          Principal Components and Axis System
                 1           2           3
               36.7429     29.9130     24.6310

      1        -0.6210      0.7700     -0.1465
      2         0.7831      0.6016     -0.1572
      3         0.0329      0.2124      0.9766



      Atom:   30  C 
        Diamagnetic
    249.7680     -3.2515      4.1140
     -3.2515    245.1940     -1.9595
      4.1140     -1.9595    240.8337

        Paramagnetic
    -67.3574     -5.5482      7.7708
     -5.5482    -67.6876     -1.8873
      7.7708     -1.8873    -76.3915

        Total Shielding Tensor
    182.4106     -8.7997     11.8848
     -8.7997    177.5064     -3.8468
     11.8848     -3.8468    164.4423

           isotropic =     174.7864
          anisotropy =      28.7144

          Principal Components and Axis System
                 1           2           3
              193.9294    171.9162    158.5137

      1         0.7760      0.4379     -0.4539
      2        -0.5045      0.8629     -0.0299
      3         0.3786      0.2522      0.8905



      Atom:   31  H 
        Diamagnetic
     26.0031     -0.1560     -3.8625
     -0.1560     31.2614      1.7348
     -3.8625      1.7348     35.0439

        Paramagnetic
      1.0778     -0.1522      2.9179
     -0.1522     -2.0443     -1.3889
      2.9179     -1.3889     -7.7013

        Total Shielding Tensor
     27.0808     -0.3082     -0.9446
     -0.3082     29.2171      0.3459
     -0.9446      0.3459     27.3427

           isotropic =      27.8802
          anisotropy =       2.2678

          Principal Components and Axis System
                 1           2           3
               29.3921     27.9904     26.2581

      1        -0.2332     -0.6136      0.7544
      2         0.9355     -0.3533      0.0019
      3         0.2654      0.7062      0.6564



      Atom:   32  C 
        Diamagnetic
    242.3699     -0.7734     -0.2271
     -0.7734    252.0011      2.3958
     -0.2271      2.3958    241.8964

        Paramagnetic
    -88.1928     -8.5089     -2.1147
     -8.5089    -66.5366      9.6742
     -2.1147      9.6742    -87.5413

        Total Shielding Tensor
    154.1771     -9.2823     -2.3418
     -9.2823    185.4645     12.0700
     -2.3418     12.0700    154.3551

           isotropic =     164.6656
          anisotropy =      41.0095

          Principal Components and Axis System
                 1           2           3
              192.0052    152.0870    149.9045

      1        -0.2446      0.8962     -0.3700
      2         0.9188      0.0924     -0.3838
      3         0.3098      0.4338      0.8461



      Atom:   33  H 
        Diamagnetic
     37.4700      6.3864      2.0841
      6.3864     28.9116     -0.4744
      2.0841     -0.4744     24.2144

        Paramagnetic
     -2.1847     -3.7065     -0.2627
     -3.7065      0.6820      0.5833
     -0.2627      0.5833      3.6900

        Total Shielding Tensor
     35.2854      2.6799      1.8214
      2.6799     29.5936      0.1089
      1.8214      0.1089     27.9044

           isotropic =      30.9278
          anisotropy =       8.6462

          Principal Components and Axis System
                 1           2           3
               36.6920     28.7851     27.3064

      1         0.9167     -0.2488     -0.3126
      2         0.3491      0.8794      0.3237
      3         0.1943     -0.4059      0.8930



      Atom:   34  H 
        Diamagnetic
     29.0136     -2.4120      1.3491
     -2.4120     38.5870      1.8766
      1.3491      1.8766     22.2530

        Paramagnetic
      1.1987      0.9493     -0.0542
      0.9493     -3.2186     -1.5960
     -0.0542     -1.5960      2.7016

        Total Shielding Tensor
     30.2123     -1.4627      1.2949
     -1.4627     35.3685      0.2807
      1.2949      0.2807     24.9546

           isotropic =      30.1785
          anisotropy =       8.3646

          Principal Components and Axis System
                 1           2           3
               35.7548     30.1626     24.6179

      1        -0.2564      0.9364     -0.2395
      2         0.9666      0.2498     -0.0579
      3        -0.0056      0.2463      0.9692



      Atom:   35  H 
        Diamagnetic
     26.2220      0.7598      1.1342
      0.7598     26.2989     -0.0166
      1.1342     -0.0166     38.3500

        Paramagnetic
      1.9146     -0.4286      0.9538
     -0.4286      2.9567     -0.4325
      0.9538     -0.4325     -2.9667

        Total Shielding Tensor
     28.1366      0.3312      2.0880
      0.3312     29.2556     -0.4491
      2.0880     -0.4491     35.3832

           isotropic =      30.9251
          anisotropy =       7.5522

          Principal Components and Axis System
                 1           2           3
               35.9599     29.3448     27.4706

      1         0.2555      0.2444      0.9354
      2        -0.0521      0.9696     -0.2391
      3         0.9654     -0.0124     -0.2604



      Atom:   36  H 
        Diamagnetic
     29.0950     -2.3126      4.0687
     -2.3126     26.5761     -5.3873
      4.0687     -5.3873     34.0171

        Paramagnetic
      0.4220      1.7425     -1.9665
      1.7425      1.7466      2.1415
     -1.9665      2.1415      0.0406

        Total Shielding Tensor
     29.5170     -0.5701      2.1022
     -0.5701     28.3227     -3.2458
      2.1022     -3.2458     34.0578

           isotropic =      30.6325
          anisotropy =       8.3714

          Principal Components and Axis System
                 1           2           3
               36.2134     28.8793     26.8048

      1         0.3063      0.9391     -0.1558
      2        -0.3810      0.2710      0.8840
      3         0.8724     -0.2114      0.4408



      Atom:   37  H 
        Diamagnetic
     23.8866     -1.5563     -4.2210
     -1.5563     36.0935      3.0384
     -4.2210      3.0384     29.3074

        Paramagnetic
      2.9211      0.6602      1.1435
      0.6602     -2.0925     -0.8544
      1.1435     -0.8544      1.5054

        Total Shielding Tensor
     26.8077     -0.8961     -3.0775
     -0.8961     34.0009      2.1840
     -3.0775      2.1840     30.8127

           isotropic =      30.5404
          anisotropy =       7.7578

          Principal Components and Axis System
                 1           2           3
               35.7123     30.7784     25.1306

      1        -0.2631     -0.4089      0.8738
      2         0.8089     -0.5872     -0.0312
      3         0.5258      0.6986      0.4853



      Atom:   38  H 
        Diamagnetic
     33.8031      6.8022     -4.8069
      6.8022     28.3458     -2.8579
     -4.8069     -2.8579     28.0623

        Paramagnetic
     -1.3063     -3.5639      1.5781
     -3.5639      1.6930      0.9705
      1.5781      0.9705      2.5011

        Total Shielding Tensor
     32.4968      3.2383     -3.2288
      3.2383     30.0388     -1.8875
     -3.2288     -1.8875     30.5633

           isotropic =      31.0330
          anisotropy =       8.8335

          Principal Components and Axis System
                 1           2           3
               36.9220     28.4635     27.7135

      1         0.7185      0.2003     -0.6661
      2         0.4769      0.5553      0.6814
      3        -0.5064      0.8072     -0.3034



      Atom:   39  H 
        Diamagnetic
     31.4758      6.9103      0.0362
      6.9103     35.4936      1.1961
      0.0362      1.1961     23.2798

        Paramagnetic
     -1.2915     -3.4620      0.4321
     -3.4620     -0.3759     -0.0609
      0.4321     -0.0609      3.7978

        Total Shielding Tensor
     30.1843      3.4484      0.4683
      3.4484     35.1177      1.1351
      0.4683      1.1351     27.0776

           isotropic =      30.7932
          anisotropy =       9.3718

          Principal Components and Axis System
                 1           2           3
               37.0411     28.4182     26.9204

      1         0.4526      0.8917      0.0050
      2         0.8834     -0.4475     -0.1392
      3         0.1219     -0.0675      0.9902



      Atom:   40  H 
        Diamagnetic
     25.3005     -1.1702     -4.4745
     -1.1702     29.8431      4.3252
     -4.4745      4.3252     35.3669

        Paramagnetic
      2.8535     -0.0987      2.3301
     -0.0987      1.5613     -0.2883
      2.3301     -0.2883     -2.3980

        Total Shielding Tensor
     28.1540     -1.2689     -2.1444
     -1.2689     31.4045      4.0369
     -2.1444      4.0369     32.9688

           isotropic =      30.8424
          anisotropy =       9.2154

          Principal Components and Axis System
                 1           2           3
               36.9860     28.2499     27.2914

      1        -0.2689      0.4103      0.8714
      2         0.6038      0.7767     -0.1794
      3         0.7504     -0.4779      0.4567



      Atom:   41  H 
        Diamagnetic
     29.8728     -4.9335      4.7526
     -4.9335     33.6102     -2.9513
      4.7526     -2.9513     26.2952

        Paramagnetic
      0.6292      1.9222     -2.7092
      1.9222      0.6523      1.7925
     -2.7092      1.7925      0.9250

        Total Shielding Tensor
     30.5020     -3.0113      2.0434
     -3.0113     34.2625     -1.1588
      2.0434     -1.1588     27.2202

           isotropic =      30.6616
          anisotropy =       8.5787

          Principal Components and Axis System
                 1           2           3
               36.3807     29.3745     26.2295

      1        -0.5039      0.7341     -0.4552
      2         0.8357      0.5475     -0.0423
      3        -0.2181      0.4018      0.8894



 
 
                                NWChem Input Module
                                -------------------
 
 
 
 
                                     CITATION
                                     --------
                Please cite the following reference when publishing
                           results obtained with NWChem:
 
          E. Apr, E. J. Bylaska, W. A. de Jong, N. Govind, K. Kowalski,
       T. P. Straatsma, M. Valiev, H. J. J. van Dam, Y. Alexeev, J. Anchell,
       V. Anisimov, F. W. Aquino, R. Atta-Fynn, J. Autschbach, N. P. Bauman,
     J. C. Becca, D. E. Bernholdt, K. Bhaskaran-Nair, S. Bogatko, P. Borowski,
        J. Boschen, J. Brabec, A. Bruner, E. Caut, Y. Chen, G. N. Chuev,
      C. J. Cramer, J. Daily, M. J. O. Deegan, T. H. Dunning Jr., M. Dupuis,
   K. G. Dyall, G. I. Fann, S. A. Fischer, A. Fonari, H. Frchtl, L. Gagliardi,
      J. Garza, N. Gawande, S. Ghosh, K. Glaesemann, A. W. Gtz, J. Hammond,
       V. Helms, E. D. Hermes, K. Hirao, S. Hirata, M. Jacquelin, L. Jensen,
   B. G. Johnson, H. Jnsson, R. A. Kendall, M. Klemm, R. Kobayashi, V. Konkov,
      S. Krishnamoorthy, M. Krishnan, Z. Lin, R. D. Lins, R. J. Littlefield,
      A. J. Logsdail, K. Lopata, W. Ma, A. V. Marenich, J. Martin del Campo,
   D. Mejia-Rodriguez, J. E. Moore, J. M. Mullin, T. Nakajima, D. R. Nascimento,
    J. A. Nichols, P. J. Nichols, J. Nieplocha, A. Otero-de-la-Roza, B. Palmer,
    A. Panyala, T. Pirojsirikul, B. Peng, R. Peverati, J. Pittner, L. Pollack,
   R. M. Richard, P. Sadayappan, G. C. Schatz, W. A. Shelton, D. W. Silverstein,
   D. M. A. Smith, T. A. Soares, D. Song, M. Swart, H. L. Taylor, G. S. Thomas,
            V. Tipparaju, D. G. Truhlar, K. Tsemekhman, T. Van Voorhis,
     . Vzquez-Mayagoitia, P. Verma, O. Villa, A. Vishnu, K. D. Vogiatzis,
        D. Wang, J. H. Weare, M. J. Williamson, T. L. Windus, K. Woliski,
        A. T. Wong, Q. Wu, C. Yang, Q. Yu, M. Zacharias, Z. Zhang, Y. Zhao,
                                and R. J. Harrison
                        "NWChem: Past, present, and future
                         J. Chem. Phys. 152, 184102 (2020)
                               doi:10.1063/5.0004997
 
                                      AUTHORS
                                      -------
     E. Apra, E. J. Bylaska, N. Govind, K. Kowalski, M. Valiev, W. A. de Jong,
      T. P. Straatsma, H. J. J. van Dam, D. Wang, T. L. Windus, N. P. Bauman,
       A. Panyala, J. Hammond, J. Autschbach, K. Bhaskaran-Nair, J. Brabec,
    K. Lopata, S. A. Fischer, S. Krishnamoorthy, M. Jacquelin, W. Ma, M. Klemm,
       O. Villa, Y. Chen, V. Anisimov, F. Aquino, S. Hirata, M. T. Hackler,
           Eric Hermes, L. Jensen, J. E. Moore, J. C. Becca, V. Konjkov,
            D. Mejia-Rodriguez, T. Risthaus, M. Malagoli, A. Marenich,
   A. Otero-de-la-Roza, J. Mullin, P. Nichols, R. Peverati, J. Pittner, Y. Zhao,
        P.-D. Fan, A. Fonari, M. J. Williamson, R. J. Harrison, J. R. Rehr,
      M. Dupuis, D. Silverstein, D. M. A. Smith, J. Nieplocha, V. Tipparaju,
      M. Krishnan, B. E. Van Kuiken, A. Vazquez-Mayagoitia, M. Swart, Q. Wu,
   T. Van Voorhis, A. A. Auer, M. Nooijen, L. D. Crosby, E. Brown, G. Cisneros,
     G. I. Fann, H. Fruchtl, J. Garza, K. Hirao, R. A. Kendall, J. A. Nichols,
       K. Tsemekhman, K. Wolinski, J. Anchell, D. E. Bernholdt, P. Borowski,
       T. Clark, D. Clerc, H. Dachsel, M. J. O. Deegan, K. Dyall, D. Elwood,
      E. Glendening, M. Gutowski, A. C. Hess, J. Jaffe, B. G. Johnson, J. Ju,
        R. Kobayashi, R. Kutteh, Z. Lin, R. Littlefield, X. Long, B. Meng,
      T. Nakajima, S. Niu, L. Pollack, M. Rosing, K. Glaesemann, G. Sandrone,
      M. Stave, H. Taylor, G. Thomas, J. H. van Lenthe, A. T. Wong, Z. Zhang.

 Total times  cpu:     4403.8s     wall:     4406.5s
