 argument  1 = stdin.nwi
                                         
                                         


             Northwest Computational Chemistry Package (NWChem) 7.0.2
             --------------------------------------------------------


                    Environmental Molecular Sciences Laboratory
                       Pacific Northwest National Laboratory
                                Richland, WA 99352

                              Copyright (c) 1994-2020
                       Pacific Northwest National Laboratory
                            Battelle Memorial Institute

             NWChem is an open-source computational chemistry package
                        distributed under the terms of the
                      Educational Community License (ECL) 2.0
             A copy of the license is included with this distribution
                              in the LICENSE.TXT file

                                  ACKNOWLEDGMENT
                                  --------------

            This software and its documentation were developed at the
            EMSL at Pacific Northwest National Laboratory, a multiprogram
            national laboratory, operated for the U.S. Department of Energy
            by Battelle under Contract Number DE-AC05-76RL01830. Support
            for this work was provided by the Department of Energy Office
            of Biological and Environmental Research, Office of Basic
            Energy Sciences, and the Office of Advanced Scientific Computing.


           Job information
           ---------------

    hostname        = MIRO
    program         = /usr/bin/nwchem
    date            = Tue Oct  8 22:44:06 2024

    compiled        = Sat_Apr_09_17:12:10_2022
    source          = /build/nwchem-f1f4gx/nwchem-7.0.2/build-openmpi
    nwchem branch   = 7.0.2
    nwchem revision = N/A
    ga revision     = 5.8.1
    use scalapack   = T
    input           = stdin.nwi
    prefix          = stdin.
    data base       = /home/miroi/work/projects/open-collection/theoretical_chemistry/software/nwchem-ase/buildups_on_servers/wsl_notebook/test_runs/ase-nwchem/simple-ase-nwchem-run/stdin/stdin.db
    status          = startup
    nproc           =        6
    time left       =     -1s



           Memory information
           ------------------

    heap     =   13107196 doubles =    100.0 Mbytes
    stack    =   13107201 doubles =    100.0 Mbytes
    global   =   26214400 doubles =    200.0 Mbytes (distinct from heap & stack)
    total    =   52428797 doubles =    400.0 Mbytes
    verify   = yes
    hardfail = no 


           Directory information
           ---------------------

  0 permanent = /home/miroi/work/projects/open-collection/theoretical_chemistry/software/nwchem-ase/buildups_on_servers/wsl_notebook/test_runs/ase-nwchem/simple-ase-nwchem-run/stdin
  0 scratch   = /home/miroi/work/projects/open-collection/theoretical_chemistry/software/nwchem-ase/buildups_on_servers/wsl_notebook/test_runs/ase-nwchem/simple-ase-nwchem-run/stdin




                                NWChem Input Module
                                -------------------


                                       stdin
                                       -----

 Scaling coordinates for geometry "geometry" by  1.889725989
 (inverse scale =  0.529177249)



                             Geometry "geometry" -> ""
                             -------------------------

 Output coordinates in angstroms (scale by  1.889725989 to convert to a.u.)

  No.       Tag          Charge          X              Y              Z
 ---- ---------------- ---------- -------------- -------------- --------------
    1 O                    8.0000     0.00000000     0.00000000     0.32078972
    2 H                    1.0000     0.00000000     0.78657338    -0.30947095
    3 H                    1.0000     0.00000000    -0.78657338    -0.30947095

      Atomic Mass 
      ----------- 

      O                 15.994910
      H                  1.007825


 Effective nuclear repulsion energy (a.u.)       8.7365898914

            Nuclear Dipole moment (a.u.) 
            ----------------------------
        X                 Y               Z
 ---------------- ---------------- ----------------
     0.0000000000     0.0000000000     3.6800067601


            XYZ format geometry
            -------------------
     3
 geometry
 O                     0.00000000     0.00000000     0.32078972
 H                     0.00000000     0.78657338    -0.30947095
 H                     0.00000000    -0.78657338    -0.30947095

 ==============================================================================
                                internuclear distances
 ------------------------------------------------------------------------------
       center one      |      center two      | atomic units |  angstroms
 ------------------------------------------------------------------------------
    2 H                |   1 O                |     1.90471  |     1.00793
    3 H                |   1 O                |     1.90471  |     1.00793
 ------------------------------------------------------------------------------
                         number of included internuclear distances:          2
 ==============================================================================



 ==============================================================================
                                 internuclear angles
 ------------------------------------------------------------------------------
        center 1       |       center 2       |       center 3       |  degrees
 ------------------------------------------------------------------------------
    2 H                |   1 O                |   3 H                |   102.59
 ------------------------------------------------------------------------------
                            number of included internuclear angles:          1
 ==============================================================================



  pbe96 is a nonlocal functional; adding pw91lda local functional. 

                                 NWChem DFT Module
                                 -----------------


                                       stdin




 Summary of "ao basis" -> "ao basis" (cartesian)
 ------------------------------------------------------------------------------
       Tag                 Description            Shells   Functions and Types
 ---------------- ------------------------------  ------  ---------------------
 O                           3-21G                   5        9   3s2p
 H                           3-21G                   2        2   2s


  Caching 1-el integrals 

            General Information
            -------------------
          SCF calculation type: DFT
          Wavefunction type:  closed shell.
          No. of atoms     :     3
          No. of electrons :    10
           Alpha electrons :     5
            Beta electrons :     5
          Charge           :     0
          Spin multiplicity:     1
          Use of symmetry is: off; symmetry adaption is: off
          Maximum number of iterations:  30
          AO basis - number of functions:    13
                     number of shells:     9
          Convergence on energy requested:  1.00D-06
          Convergence on density requested:  1.00D-05
          Convergence on gradient requested:  5.00D-04

              XC Information
              --------------
          PerdewBurkeErnzerhof Exchange Functional  1.000          
            Perdew 1991 LDA Correlation Functional  1.000 local    
           PerdewBurkeErnz. Correlation Functional  1.000 non-local

             Grid Information
             ----------------
          Grid used for XC integration:  medium    
          Radial quadrature: Mura-Knowles        
          Angular quadrature: Lebedev. 
          Tag              B.-S. Rad. Rad. Pts. Rad. Cut. Ang. Pts.
          ---              ---------- --------- --------- ---------
          O                   0.60       49           5.0       434
          H                   0.35       45           6.0       434
          Grid pruning is: on 
          Number of quadrature shells:   139
          Spatial weights used:  Erf1

          Convergence Information
          -----------------------
          Convergence aids based upon iterative change in 
          total energy or number of iterations. 
          Levelshifting, if invoked, occurs when the 
          HOMO/LUMO gap drops below (HL_TOL):  1.00D-02
          DIIS, if invoked, will attempt to extrapolate 
          using up to (NFOCK): 10 stored Fock matrices.

                    Damping( 0%)  Levelshifting(0.5)       DIIS
                  --------------- ------------------- ---------------
          dE  on:    start            ASAP                start   
          dE off:    2 iters         30 iters            30 iters 


      Screening Tolerance Information
      -------------------------------
          Density screening/tol_rho:  1.00D-10
          AO Gaussian exp screening on grid/accAOfunc:  14
          CD Gaussian exp screening on grid/accCDfunc:  20
          XC Gaussian exp screening on grid/accXCfunc:  20
          Schwarz screening/accCoul:  1.00D-08


      Superposition of Atomic Density Guess
      -------------------------------------

 Sum of atomic energies:         -75.36108718

      Non-variational initial energy
      ------------------------------

 Total energy =     -75.436476
 1-e energy   =    -120.713569
 2-e energy   =      36.540503
 HOMO         =      -0.423127
 LUMO         =       0.144798

   Time after variat. SCF:      0.1
   Time prior to 1st pass:      0.1

 #quartets = 1.035D+03 #integrals = 2.423D+03 #direct =  0.0% #cached =100.0%


 Integral file          = /home/miroi/work/projects/open-collection/theoretical_chemistry/software/nwchem-ase/buildups_on_servers/wsl_notebook/test_runs/ase-nwchem/simple-ase-nwchem-run/stdin/stdin.aoints.0
 Record size in doubles =  65536        No. of integs per rec  =  43688
 Max. records in memory =      2        Max. records in file   = 305084
 No. of bits per label  =      8        No. of bits per value  =     64


File balance: exchanges=     0  moved=     0  time=   0.0


 Grid_pts file          = /home/miroi/work/projects/open-collection/theoretical_chemistry/software/nwchem-ase/buildups_on_servers/wsl_notebook/test_runs/ase-nwchem/simple-ase-nwchem-run/stdin/stdin.gridpts.0
 Record size in doubles =  12289        No. of grid_pts per rec  =   3070
 Max. records in memory =      5        Max. recs in file   =   1626987


           Memory utilization after 1st SCF pass: 
           Heap Space remaining (MW):       12.91            12913516
          Stack Space remaining (MW):       13.11            13106972

   convergence    iter        energy       DeltaE   RMS-Dens  Diis-err    time
 ---------------- ----- ----------------- --------- --------- ---------  ------
 d= 0,ls=0.0,diis     1    -75.8395022269 -8.46D+01  7.75D-02  4.21D-01     0.2
 d= 0,ls=0.0,diis     2    -75.8052266291  3.43D-02  4.54D-02  8.23D-01     0.2
 d= 0,ls=0.0,diis     3    -75.8852196691 -8.00D-02  3.26D-03  1.62D-02     0.2
 d= 0,ls=0.0,diis     4    -75.8864591411 -1.24D-03  1.03D-03  2.84D-04     0.2
 d= 0,ls=0.0,diis     5    -75.8864957030 -3.66D-05  8.93D-06  7.04D-08     0.3
 d= 0,ls=0.0,diis     6    -75.8864957085 -5.48D-09  1.41D-06  1.52D-09     0.3


         Total DFT energy =      -75.886495708515
      One electron energy =     -121.861657455982
           Coulomb energy =       46.461192358053
    Exchange-Corr. energy =       -9.222620502034
 Nuclear repulsion energy =        8.736589891448

 Numeric. integr. density =       10.000001098115

     Total iterative time =      0.2s



                       DFT Final Molecular Orbital Analysis
                       ------------------------------------

 Vector    1  Occ=2.000000D+00  E=-1.862622D+01
              MO Center=  7.2D-18, -2.8D-16,  3.2D-01, r^2= 1.5D-02
   Bfn.  Coefficient  Atom+Function         Bfn.  Coefficient  Atom+Function  
  ----- ------------  ---------------      ----- ------------  ---------------
     1      0.981994  1 O  s                  2      0.103575  1 O  s          
     6     -0.041828  1 O  s          

 Vector    2  Occ=2.000000D+00  E=-8.830480D-01
              MO Center= -2.7D-16, -4.5D-13,  8.1D-02, r^2= 5.1D-01
   Bfn.  Coefficient  Atom+Function         Bfn.  Coefficient  Atom+Function  
  ----- ------------  ---------------      ----- ------------  ---------------
     6      0.682644  1 O  s                  1     -0.224956  1 O  s          
     2      0.213602  1 O  s                  5     -0.122804  1 O  pz         
     9     -0.121554  1 O  pz                10      0.119382  2 H  s          
    12      0.119382  3 H  s                 11      0.032038  2 H  s          
    13      0.032038  3 H  s          

 Vector    3  Occ=2.000000D+00  E=-4.342205D-01
              MO Center= -5.4D-29,  8.7D-13,  6.9D-02, r^2= 8.6D-01
   Bfn.  Coefficient  Atom+Function         Bfn.  Coefficient  Atom+Function  
  ----- ------------  ---------------      ----- ------------  ---------------
     4      0.407941  1 O  py                 8      0.347137  1 O  py         
    10      0.229481  2 H  s                 12     -0.229481  3 H  s          
    11      0.215701  2 H  s                 13     -0.215701  3 H  s          

 Vector    4  Occ=2.000000D+00  E=-2.690795D-01
              MO Center=  1.5D-16, -2.6D-13,  4.1D-01, r^2= 6.9D-01
   Bfn.  Coefficient  Atom+Function         Bfn.  Coefficient  Atom+Function  
  ----- ------------  ---------------      ----- ------------  ---------------
     6      0.498859  1 O  s                  9      0.461996  1 O  pz         
     5      0.429329  1 O  pz                11     -0.145649  2 H  s          
    13     -0.145649  3 H  s                 10     -0.135472  2 H  s          
    12     -0.135472  3 H  s                  1     -0.110563  1 O  s          
     2      0.093231  1 O  s          

 Vector    5  Occ=2.000000D+00  E=-1.896991D-01
              MO Center=  4.1D-17,  2.4D-33,  3.2D-01, r^2= 5.3D-01
   Bfn.  Coefficient  Atom+Function         Bfn.  Coefficient  Atom+Function  
  ----- ------------  ---------------      ----- ------------  ---------------
     7      0.625750  1 O  px                 3      0.528042  1 O  px         

 Vector    6  Occ=0.000000D+00  E= 5.728448D-02
              MO Center=  1.1D-17, -1.7D-12, -3.4D-01, r^2= 1.9D+00
   Bfn.  Coefficient  Atom+Function         Bfn.  Coefficient  Atom+Function  
  ----- ------------  ---------------      ----- ------------  ---------------
     6      0.912791  1 O  s                 11     -0.776846  2 H  s          
    13     -0.776846  3 H  s                  9     -0.480394  1 O  pz         
     5     -0.288063  1 O  pz                10     -0.110896  2 H  s          
    12     -0.110896  3 H  s                  1     -0.106954  1 O  s          
     2      0.063188  1 O  s          

 Vector    7  Occ=0.000000D+00  E= 1.414241D-01
              MO Center=  2.5D-29,  1.5D-12, -2.6D-01, r^2= 2.0D+00
   Bfn.  Coefficient  Atom+Function         Bfn.  Coefficient  Atom+Function  
  ----- ------------  ---------------      ----- ------------  ---------------
    11      0.998652  2 H  s                 13     -0.998652  3 H  s          
     8     -0.714934  1 O  py                 4     -0.389634  1 O  py         
    10      0.125136  2 H  s                 12     -0.125136  3 H  s          

 Vector    8  Occ=0.000000D+00  E= 8.593235D-01
              MO Center= -3.7D-29, -8.3D-13, -2.0D-01, r^2= 1.7D+00
   Bfn.  Coefficient  Atom+Function         Bfn.  Coefficient  Atom+Function  
  ----- ------------  ---------------      ----- ------------  ---------------
    10      0.928058  2 H  s                 12     -0.928058  3 H  s          
    11     -0.877679  2 H  s                 13      0.877679  3 H  s          
     4     -0.204775  1 O  py                 8     -0.183199  1 O  py         

 Vector    9  Occ=0.000000D+00  E= 9.175341D-01
              MO Center= -6.4D-16,  8.3D-13, -3.2D-01, r^2= 1.3D+00
   Bfn.  Coefficient  Atom+Function         Bfn.  Coefficient  Atom+Function  
  ----- ------------  ---------------      ----- ------------  ---------------
    10      0.924203  2 H  s                 12      0.924203  3 H  s          
    11     -0.601702  2 H  s                 13     -0.601702  3 H  s          
     5      0.331149  1 O  pz                 6      0.103887  1 O  s          
     9      0.103931  1 O  pz                 2     -0.098332  1 O  s          
     1      0.048330  1 O  s          

 Vector   10  Occ=0.000000D+00  E= 1.374211D+00
              MO Center=  9.1D-16,  5.9D-31,  3.2D-01, r^2= 7.3D-01
   Bfn.  Coefficient  Atom+Function         Bfn.  Coefficient  Atom+Function  
  ----- ------------  ---------------      ----- ------------  ---------------
     3      1.025826  1 O  px                 7     -0.969321  1 O  px         

 Vector   11  Occ=0.000000D+00  E= 1.466099D+00
              MO Center=  5.8D-17,  3.8D-13,  4.8D-01, r^2= 7.7D-01
   Bfn.  Coefficient  Atom+Function         Bfn.  Coefficient  Atom+Function  
  ----- ------------  ---------------      ----- ------------  ---------------
     9      1.173698  1 O  pz                 5     -0.977752  1 O  pz         
    10      0.339331  2 H  s                 12      0.339331  3 H  s          
     2     -0.154023  1 O  s                  6     -0.145817  1 O  s          
     1      0.052668  1 O  s                 11      0.047107  2 H  s          
    13      0.047107  3 H  s          

 Vector   12  Occ=0.000000D+00  E= 1.569211D+00
              MO Center=  9.7D-29, -2.2D-13,  3.9D-01, r^2= 9.1D-01
   Bfn.  Coefficient  Atom+Function         Bfn.  Coefficient  Atom+Function  
  ----- ------------  ---------------      ----- ------------  ---------------
     8      1.415841  1 O  py                 4     -1.028376  1 O  py         
    11     -0.442648  2 H  s                 13      0.442648  3 H  s          
    10     -0.208449  2 H  s                 12      0.208449  3 H  s          

 Vector   13  Occ=0.000000D+00  E= 2.647153D+00
              MO Center= -5.5D-17, -1.4D-13,  1.3D-01, r^2= 7.4D-01
   Bfn.  Coefficient  Atom+Function         Bfn.  Coefficient  Atom+Function  
  ----- ------------  ---------------      ----- ------------  ---------------
     6      1.908428  1 O  s                  2     -1.622639  1 O  s          
     9     -0.487374  1 O  pz                11     -0.332293  2 H  s          
    13     -0.332293  3 H  s                 10     -0.281130  2 H  s          
    12     -0.281130  3 H  s                  5      0.158423  1 O  pz         
     1      0.091538  1 O  s          


 center of mass
 --------------
 x =   0.00000000 y =   0.00000000 z =   0.47291179

 moments of inertia (a.u.)
 ------------------
           6.992659324861           0.000000000000           0.000000000000
           0.000000000000           2.539263640310           0.000000000000
           0.000000000000           0.000000000000           4.453395684550

     Multipole analysis of the density
     ---------------------------------

     L   x y z        total         alpha         beta         nuclear
     -   - - -        -----         -----         ----         -------
     0   0 0 0     -0.000000     -5.000000     -5.000000     10.000000

     1   1 0 0      0.000000      0.000000      0.000000      0.000000
     1   0 1 0     -0.000000     -0.000000     -0.000000      0.000000
     1   0 0 1     -0.869030     -2.274518     -2.274518      3.680007

     2   2 0 0     -5.128979     -2.564490     -2.564490      0.000000
     2   1 1 0      0.000000      0.000000      0.000000      0.000000
     2   1 0 1     -0.000000     -0.000000     -0.000000      0.000000
     2   0 2 0     -3.219693     -3.819256     -3.819256      4.418818
     2   0 1 1      0.000000      0.000000      0.000000      0.000000
     2   0 0 2     -4.964404     -4.294148     -4.294148      3.623891


 Parallel integral file used       6 records with       0 large values


            General Information
            -------------------
          SCF calculation type: DFT
          Wavefunction type:  closed shell.
          No. of atoms     :     3
          No. of electrons :    10
           Alpha electrons :     5
            Beta electrons :     5
          Charge           :     0
          Spin multiplicity:     1
          Use of symmetry is: off; symmetry adaption is: off
          Maximum number of iterations:  30
          AO basis - number of functions:    13
                     number of shells:     9
          Convergence on energy requested:  1.00D-06
          Convergence on density requested:  1.00D-05
          Convergence on gradient requested:  5.00D-04

              XC Information
              --------------
          PerdewBurkeErnzerhof Exchange Functional  1.000          
            Perdew 1991 LDA Correlation Functional  1.000 local    
           PerdewBurkeErnz. Correlation Functional  1.000 non-local

             Grid Information
             ----------------
          Grid used for XC integration:  medium    
          Radial quadrature: Mura-Knowles        
          Angular quadrature: Lebedev. 
          Tag              B.-S. Rad. Rad. Pts. Rad. Cut. Ang. Pts.
          ---              ---------- --------- --------- ---------
          O                   0.60       49           5.0       434
          H                   0.35       45           6.0       434
          Grid pruning is: on 
          Number of quadrature shells:   139
          Spatial weights used:  Erf1

          Convergence Information
          -----------------------
          Convergence aids based upon iterative change in 
          total energy or number of iterations. 
          Levelshifting, if invoked, occurs when the 
          HOMO/LUMO gap drops below (HL_TOL):  1.00D-02
          DIIS, if invoked, will attempt to extrapolate 
          using up to (NFOCK): 10 stored Fock matrices.

                    Damping( 0%)  Levelshifting(0.5)       DIIS
                  --------------- ------------------- ---------------
          dE  on:    start            ASAP                start   
          dE off:    2 iters         30 iters            30 iters 


      Screening Tolerance Information
      -------------------------------
          Density screening/tol_rho:  1.00D-10
          AO Gaussian exp screening on grid/accAOfunc:  14
          CD Gaussian exp screening on grid/accCDfunc:  20
          XC Gaussian exp screening on grid/accXCfunc:  20
          Schwarz screening/accCoul:  1.00D-08



                            NWChem DFT Gradient Module
                            --------------------------


                                       stdin



  charge          =   0.00
  wavefunction    = closed shell



                         DFT ENERGY GRADIENTS

    atom               coordinates                        gradient
                 x          y          z           x          y          z
   1 O       0.000000   0.000000   0.606205   -0.000000  -0.000000  -0.000114
   2 H       0.000000   1.486408  -0.584815    0.000000  -0.000056   0.000057
   3 H       0.000000  -1.486408  -0.584815    0.000000   0.000056   0.000057

                 ----------------------------------------
                 |  Time  |  1-e(secs)   |  2-e(secs)   |
                 ----------------------------------------
                 |  CPU   |       0.00   |       0.00   |
                 ----------------------------------------
                 |  WALL  |       0.00   |       0.00   |
                 ----------------------------------------

 Task  times  cpu:        0.2s     wall:        0.3s


                                NWChem Input Module
                                -------------------


 Summary of allocated global arrays
-----------------------------------
  No active global arrays



                         GA Statistics for process    0
                         ------------------------------

       create   destroy   get      put      acc     scatter   gather  read&inc
calls:  147      140      920      250      314        0        0      106     
number of processes/call 0.00e+00 0.00e+00 0.00e+00 0.00e+00 0.00e+00
bytes total:             3.72e+05 1.09e+05 1.36e+05 0.00e+00 0.00e+00 8.48e+02
bytes remote:            7.39e+04 1.60e+04 3.10e+04 0.00e+00 0.00e+00 0.00e+00
Max memory consumed for GA by this process: 36040 bytes

MA_summarize_allocated_blocks: starting scan ...
MA_summarize_allocated_blocks: scan completed: 0 heap blocks, 0 stack blocks
MA usage statistics:

	allocation statistics:
					      heap	     stack
					      ----	     -----
	current number of blocks	         0	         0
	maximum number of blocks	        23	        53
	current total bytes		         0	         0
	maximum total bytes		   1549288	  22510504
	maximum total K-bytes		      1550	     22511
	maximum total M-bytes		         2	        23


                                     CITATION
                                     --------
                Please cite the following reference when publishing
                           results obtained with NWChem:

          E. Aprà, E. J. Bylaska, W. A. de Jong, N. Govind, K. Kowalski,
       T. P. Straatsma, M. Valiev, H. J. J. van Dam, Y. Alexeev, J. Anchell,
       V. Anisimov, F. W. Aquino, R. Atta-Fynn, J. Autschbach, N. P. Bauman,
     J. C. Becca, D. E. Bernholdt, K. Bhaskaran-Nair, S. Bogatko, P. Borowski,
        J. Boschen, J. Brabec, A. Bruner, E. Cauët, Y. Chen, G. N. Chuev,
      C. J. Cramer, J. Daily, M. J. O. Deegan, T. H. Dunning Jr., M. Dupuis,
   K. G. Dyall, G. I. Fann, S. A. Fischer, A. Fonari, H. Früchtl, L. Gagliardi,
      J. Garza, N. Gawande, S. Ghosh, K. Glaesemann, A. W. Götz, J. Hammond,
       V. Helms, E. D. Hermes, K. Hirao, S. Hirata, M. Jacquelin, L. Jensen,
   B. G. Johnson, H. Jónsson, R. A. Kendall, M. Klemm, R. Kobayashi, V. Konkov,
      S. Krishnamoorthy, M. Krishnan, Z. Lin, R. D. Lins, R. J. Littlefield,
      A. J. Logsdail, K. Lopata, W. Ma, A. V. Marenich, J. Martin del Campo,
   D. Mejia-Rodriguez, J. E. Moore, J. M. Mullin, T. Nakajima, D. R. Nascimento,
    J. A. Nichols, P. J. Nichols, J. Nieplocha, A. Otero-de-la-Roza, B. Palmer,
    A. Panyala, T. Pirojsirikul, B. Peng, R. Peverati, J. Pittner, L. Pollack,
   R. M. Richard, P. Sadayappan, G. C. Schatz, W. A. Shelton, D. W. Silverstein,
   D. M. A. Smith, T. A. Soares, D. Song, M. Swart, H. L. Taylor, G. S. Thomas,
            V. Tipparaju, D. G. Truhlar, K. Tsemekhman, T. Van Voorhis,
     Á. Vázquez-Mayagoitia, P. Verma, O. Villa, A. Vishnu, K. D. Vogiatzis,
        D. Wang, J. H. Weare, M. J. Williamson, T. L. Windus, K. Woliński,
        A. T. Wong, Q. Wu, C. Yang, Q. Yu, M. Zacharias, Z. Zhang, Y. Zhao,
                                and R. J. Harrison
                        "NWChem: Past, present, and future
                         J. Chem. Phys. 152, 184102 (2020)
                               doi:10.1063/5.0004997

                                      AUTHORS
                                      -------
     E. Apra, E. J. Bylaska, N. Govind, K. Kowalski, M. Valiev, W. A. de Jong,
      T. P. Straatsma, H. J. J. van Dam, D. Wang, T. L. Windus, N. P. Bauman,
       A. Panyala, J. Hammond, J. Autschbach, K. Bhaskaran-Nair, J. Brabec,
    K. Lopata, S. A. Fischer, S. Krishnamoorthy, M. Jacquelin, W. Ma, M. Klemm,
       O. Villa, Y. Chen, V. Anisimov, F. Aquino, S. Hirata, M. T. Hackler,
           Eric Hermes, L. Jensen, J. E. Moore, J. C. Becca, V. Konjkov,
            D. Mejia-Rodriguez, T. Risthaus, M. Malagoli, A. Marenich,
   A. Otero-de-la-Roza, J. Mullin, P. Nichols, R. Peverati, J. Pittner, Y. Zhao,
        P.-D. Fan, A. Fonari, M. J. Williamson, R. J. Harrison, J. R. Rehr,
      M. Dupuis, D. Silverstein, D. M. A. Smith, J. Nieplocha, V. Tipparaju,
      M. Krishnan, B. E. Van Kuiken, A. Vazquez-Mayagoitia, M. Swart, Q. Wu,
   T. Van Voorhis, A. A. Auer, M. Nooijen, L. D. Crosby, E. Brown, G. Cisneros,
     G. I. Fann, H. Fruchtl, J. Garza, K. Hirao, R. A. Kendall, J. A. Nichols,
       K. Tsemekhman, K. Wolinski, J. Anchell, D. E. Bernholdt, P. Borowski,
       T. Clark, D. Clerc, H. Dachsel, M. J. O. Deegan, K. Dyall, D. Elwood,
      E. Glendening, M. Gutowski, A. C. Hess, J. Jaffe, B. G. Johnson, J. Ju,
        R. Kobayashi, R. Kutteh, Z. Lin, R. Littlefield, X. Long, B. Meng,
      T. Nakajima, S. Niu, L. Pollack, M. Rosing, K. Glaesemann, G. Sandrone,
      M. Stave, H. Taylor, G. Thomas, J. H. van Lenthe, A. T. Wong, Z. Zhang.

 Total times  cpu:        0.2s     wall:        0.3s
