

 Parallel Execution: Process Information
 ==============================================================================
 Rank   Node Name                              NodeID   MyNodeRank  NodeMaster
    0   ubuntu-kch                                0          0          0
    1   ubuntu-kch                                0          1         -1
    2   ubuntu-kch                                0          2         -1
    3   ubuntu-kch                                0          3         -1
 ==============================================================================


May use up to 7570MB of RAM as shared memory on node 0

 *******************************************************************************
 *                                                                             *
 *  --------------------------------                                           *
 *   Amsterdam Modeling Suite (AMS)              2021.105                      *
 *  --------------------------------                                           *
 *                                               r97261 2021-09-16             *
 *                                                                             *
 *                                                                             *
 *                              =================                              *
 *                              |               |                              *
 *                              |     A M S     |                              *
 *                              |               |                              *
 *                              =================                              *
 *                                                                             *
 *                                                                             *
 *   Online information and documentation:  https://www.scm.com/support/       *
 *   E-mail:  support@scm.com   info@scm.com                                   *
 *                                                                             *
 *   Scientific publications using AMS results must be properly referenced     *
 *   See the User Manuals (or the web site) for recommended citations          *
 *   The terms and conditions of the End User License Agreement apply to       *
 *   the use of AMS, https://www.scm.com/license-terms/                        *
 *                                                                             *
 **********************  x86_64_linux_intel / intelmpi  ************************
 
 Licensed to: Dr. Miroslav Ilias / Matej Bel University, Department Chemistry, Fac. Natural Sciences / Banska Bystrica / SLOVAKIA
 SCM User ID: u17848
  
 AMS 2021.105  RunTime: Nov25-2021 19:57:54  ShM Nodes: 1  Procs: 4

 AMS jobname: ams
 AMS jobid  : 1619261798

 Start   directory: /home/milias/work/projects/open-collection/theoretical_chemistry/projects/nmr_diplomovky/reference_compounds/phosphoric_acid/ams/pbe0_tz2p_good/cosmo-chcl3/nonrel/geometry_optimization/geopt_pbe0_tzp_good_cosmo-chcl3/tmp.milias.189412.0.noindex/
 Results directory: /home/milias/work/projects/open-collection/theoretical_chemistry/projects/nmr_diplomovky/reference_compounds/phosphoric_acid/ams/pbe0_tz2p_good/cosmo-chcl3/nonrel/geometry_optimization/geopt_pbe0_tzp_good_cosmo-chcl3/phosporic_acid.nonrel_geopt_pbe0_tzp_good_cosmo-chcl3.results/
 Scratch directory: /tmp/amstmp_ams_kid0.1619261798/


 Communication costs MPI_COMM_WORLD:      0.252 usec per message,   0.0034 usec per 8-byte item
 Communication costs for intra-node:      0.271 usec per message,   0.0034 usec per 8-byte item

 RNG seed: -2106755708 254883215 -1698785133 -1759353734 -752955973 759113023 -667119913 1693905122



                      ************************************************************************
                      *  ADF 2021.105  RunTime: Nov25-2021 19:57:54  ShM Nodes: 1  Procs: 4  *
                      ************************************************************************
  
       ***************************
       *  GEOMETRY OPTIMIZATION  *
       ***************************

Optimization Method                    Quasi Newton
Optimization Coordinates               Delocalized Coordinates
Optimize lattice                       F
 
 ------------------------------------------------------
 Convergence criteria (Hartree,Angstrom)
 ------------------------------------------------------
 Maximum gradient               0.001000000000
 Maximum rms gradient           0.000666666667
 Maximum step allowed           0.001000000000
 Maximum rms step allowed       0.000666666667
 Maximum energy change allowe   0.000080000000
 Maximum stress energy allowe   0.000500000000
 
Initial model Hessian                  Automatic Hessian
 
------------------------------------
Quasi-Newton Optimizer Parameters
------------------------------------
Hessian Update Method                  BFGS
Maximum number of steps                  250
First GDIIS cycle                          0
Maximum GDIIS vectors                      0
Trust radius (bohr)                        0.200000
Trust radius varies                        T
Constraints converged at all steps         T
Use projector                              T
 
 Rigid motions settings for: old optimizer
 Atomic rotations (x,y,z):     T T T
 Atomic translations (x,y,z):  T T T
 Tolerance:                   1.000000000000000E-006
 
--------
Geometry
--------
Formula: H3O4P
Atoms
  Index Symbol   x (angstrom)   y (angstrom)   z (angstrom)
      1      P    -0.00000000     0.00000000    -0.15893847       adf.R=1.850
      2      O    -1.37620245    -0.34502629     0.53088500       adf.R=1.517
      3      O     0.98690275    -1.01931314     0.53088500       adf.R=1.517
      4      O     0.38929969     1.36433943     0.53088500       adf.R=1.517
      5      O    -0.00000000     0.00000000    -1.62498648       adf.R=1.517
      6      H    -2.13980882     0.01390852     0.06375666       adf.R=1.350
      7      H     1.05785928    -1.86008306     0.06375666       adf.R=1.350
      8      H     1.08194954     1.84617454     0.06375666       adf.R=1.350
 
Total System Charge             0.00000
Bonding info available!
 
 
----------------
ADF Engine Input
----------------
 
 Basis
 Type TZP
 Core None
 End
 XC
 Hybrid PBE0
 End
 Relativity
 Level None
 End
 Solvation
 Surf Delley
 Solv name=Chloroform cav0=0.0 cav1=0.0067639
 Charged method=CONJ
 C-Mat POT
 SCF VAR ALL
 CSMRSP
 End
 NumericalQuality Good
 

 Title: *** (NO TITLE) ***

Number of symmetry operators: 3
Schoenflies symbol:           C(3)
 Using automatic Hessian for delocalized coordinates.
 *** GOStep1 ***

 SOLVATION
-------------------------------------------

  The Delley construction of COSMO surface surface is calculated

       Division Level for Surface Triangles (NDIV)                  3
       Final Division Level for Triangles (NFDIV)                   1
       Radius of the Solvent (RSOL)                           3.17000 angstr
  Dielectric Constant (EPSL)                                  4.80000

       COSMO equation is solved iteratively-               conjugate-gradient

       Maximun of Iterations for Charges (NCIX)                  1000
       Criterion for Charge convergence (CCNV)                1.0E-08

  COSMO charges included variationally in SCF

       COSMO included at every SCF cycle

  Geometry-dependent empirical factor                         0.00000

  C-Matrix calculated in cspmtx

  In cspmtx, C-Matrix calculated using fitted potential

-------------------------------------------



 -------------------------------------------
  COSMO surface
  Area             =          351.737
  Volume           =          525.957
  Number of Points =          943
 -------------------------------------------



 ======================
 RI Hartree-Fock Scheme
 ======================
  
 Fit Set Quality     : GOOD
 Integration Quality : GOOD
 Threshold Quality   : GOOD
 Response Quality    : DEFAULT
 Is Range Separated  :  F
 
 RIHartreeFock Dependency: number of modified vectors:           3
 cosmo_calcen: 0.5 (esolb+esolc) (Hartrees) =   -0.020529

 Solvation energy (screening term,uncorrected) =    -12.881861 kcal/mol

 Solvation energy (dispersion and cavitation terms) =      0.527424 kcal/mol
 Solvation Energy Contributions (Hartrees)
          esola   esolb+esolc
     0.02052855   -0.04105710
 esol last cycle   -0.02052855
  
 Hartree-Fock exchange energy:   -56.8221433347820     
 cosmo_calcen: 0.5 (esolb+esolc) (Hartrees) =   -0.020529

 Solvation energy (screening term,uncorrected) =    -12.881861 kcal/mol

 Solvation energy (dispersion and cavitation terms) =      0.527424 kcal/mol
 Solvation Energy Contributions (Hartrees)
          esola   esolb+esolc
     0.02052855   -0.04105710
 esol last cycle   -0.02052855
  pauli hf:                              1.323823161023929         36.0231           830.71          3475.70
  elstat hf:                            -0.831129652352438        -22.6162          -521.54         -2182.13

 Energy gradients wrt nuclear displacements
 ==========================================

     Atom      Cartesian (a.u./angstrom)
                 X         Y         Z
 ----------------------------------------
     1 P    -0.000053 -0.000107  0.007268
     2 O     0.004205  0.005205 -0.009331
     3 O    -0.006574  0.001075 -0.009341
     4 O     0.002385 -0.006251 -0.009247
     5 O     0.000007  0.000018  0.009189
     6 H     0.002021 -0.002723  0.003814
     7 H     0.001400  0.003142  0.003825
     8 H    -0.003393 -0.000359  0.003821
 ----------------------------------------
 Mulliken charges used for AMS results%charges...
 
----------------------------------------------------------------------
Geometry Convergence after Step   1       (Hartree/Angstrom,Angstrom)
----------------------------------------------------------------------
current energy                               -2.23144549 Hartree
energy change                      -2.23144549     0.00008000    F
constrained gradient max            0.00930623     0.00100000    F
constrained gradient rms            0.00504044     0.00066667    F
gradient max                        0.00930623
gradient rms                        0.00504044
cart. step max                      0.00508480     0.00100000    F
cart. step rms                      0.00223862     0.00066667    F
 
 
--------
Geometry
--------
Formula: H3O4P
Atoms
  Index Symbol   x (angstrom)   y (angstrom)   z (angstrom)
      1      P    -0.00000000     0.00000000    -0.15972875       adf.R=1.850
      2      O    -1.37798518    -0.34772829     0.53470799       adf.R=1.517
      3      O     0.99013412    -1.01950603     0.53470799       adf.R=1.517
      4      O     0.38785106     1.36723432     0.53470799       adf.R=1.517
      5      O    -0.00000000     0.00000000    -1.63007127       adf.R=1.517
      6      H    -2.13903099     0.01535378     0.06189202       adf.R=1.350
      7      H     1.05621873    -1.86013206     0.06189202       adf.R=1.350
      8      H     1.08281226     1.84477828     0.06189202       adf.R=1.350
 
Total System Charge             0.00000
Bonding info available!
 
 *** GOStep2 ***

 SOLVATION
-------------------------------------------

  The Delley construction of COSMO surface surface is calculated

       Division Level for Surface Triangles (NDIV)                  3
       Final Division Level for Triangles (NFDIV)                   1
       Radius of the Solvent (RSOL)                           3.17000 angstr
  Dielectric Constant (EPSL)                                  4.80000

       COSMO equation is solved iteratively-               conjugate-gradient

       Maximun of Iterations for Charges (NCIX)                  1000
       Criterion for Charge convergence (CCNV)                1.0E-08

  COSMO charges included variationally in SCF

       COSMO included at every SCF cycle

  Geometry-dependent empirical factor                         0.00000

  C-Matrix calculated in cspmtx

  In cspmtx, C-Matrix calculated using fitted potential

-------------------------------------------



 -------------------------------------------
  COSMO surface
  Area             =          352.042
  Volume           =          526.834
  Number of Points =          945
 -------------------------------------------



 ======================
 RI Hartree-Fock Scheme
 ======================
  
 Fit Set Quality     : GOOD
 Integration Quality : GOOD
 Threshold Quality   : GOOD
 Response Quality    : DEFAULT
 Is Range Separated  :  F
 
 RIHartreeFock Dependency: number of modified vectors:           3
 cosmo_calcen: 0.5 (esolb+esolc) (Hartrees) =   -0.020481

 Solvation energy (screening term,uncorrected) =    -12.851789 kcal/mol

 Solvation energy (dispersion and cavitation terms) =      0.527881 kcal/mol
 Solvation Energy Contributions (Hartrees)
          esola   esolb+esolc
     0.02048063   -0.04096125
 esol last cycle   -0.02048063
  
 Hartree-Fock exchange energy:   -56.8074137443135     
 cosmo_calcen: 0.5 (esolb+esolc) (Hartrees) =   -0.020481

 Solvation energy (screening term,uncorrected) =    -12.851790 kcal/mol

 Solvation energy (dispersion and cavitation terms) =      0.527881 kcal/mol
 Solvation Energy Contributions (Hartrees)
          esola   esolb+esolc
     0.02048063   -0.04096126
 esol last cycle   -0.02048063
  pauli hf:                              1.317160230491346         35.8418           826.53          3458.20
  elstat hf:                            -0.825190246262039        -22.4546          -517.81         -2166.54

 Energy gradients wrt nuclear displacements
 ==========================================

     Atom      Cartesian (a.u./angstrom)
                 X         Y         Z
 ----------------------------------------
     1 P    -0.000043 -0.000108  0.008053
     2 O     0.002644  0.002062 -0.003439
     3 O    -0.003090  0.001303 -0.003449
     4 O     0.000444 -0.003347 -0.003389
     5 O     0.000005  0.000017 -0.002160
     6 H    -0.000438 -0.000936  0.001445
     7 H     0.001090  0.000117  0.001455
     8 H    -0.000612  0.000892  0.001485
 ----------------------------------------
 Mulliken charges used for AMS results%charges...

 dE(predicted):    -0.12632E-03, dE(actual):    -0.16966E-03, Trust radius:    0.200000, all in a.u.
 
----------------------------------------------------------------------
Geometry Convergence after Step   2       (Hartree/Angstrom,Angstrom)
----------------------------------------------------------------------
current energy                               -2.23161514 Hartree
energy change                      -0.00016966     0.00008000    F
constrained gradient max            0.00805284     0.00100000    F
constrained gradient rms            0.00248693     0.00066667    F
gradient max                        0.00805284
gradient rms                        0.00248693
cart. step max                      0.00461197     0.00100000    F
cart. step rms                      0.00269622     0.00066667    F
 
 
--------
Geometry
--------
Formula: H3O4P
Atoms
  Index Symbol   x (angstrom)   y (angstrom)   z (angstrom)
      1      P    -0.00000000     0.00000000    -0.15791525       adf.R=1.850
      2      O    -1.38010115    -0.35023607     0.53789529       adf.R=1.517
      3      O     0.99336390    -1.02008462     0.53789529       adf.R=1.517
      4      O     0.38673724     1.37032068     0.53789529       adf.R=1.517
      5      O    -0.00000000     0.00000000    -1.62761075       adf.R=1.517
      6      H    -2.13567079     0.01660122     0.05728005       adf.R=1.350
      7      H     1.05345832    -1.85784577     0.05728005       adf.R=1.350
      8      H     1.08221247     1.84124455     0.05728005       adf.R=1.350
 
Total System Charge             0.00000
Bonding info available!
 
 *** GOStep3 ***

 SOLVATION
-------------------------------------------

  The Delley construction of COSMO surface surface is calculated

       Division Level for Surface Triangles (NDIV)                  3
       Final Division Level for Triangles (NFDIV)                   1
       Radius of the Solvent (RSOL)                           3.17000 angstr
  Dielectric Constant (EPSL)                                  4.80000

       COSMO equation is solved iteratively-               conjugate-gradient

       Maximun of Iterations for Charges (NCIX)                  1000
       Criterion for Charge convergence (CCNV)                1.0E-08

  COSMO charges included variationally in SCF

       COSMO included at every SCF cycle

  Geometry-dependent empirical factor                         0.00000

  C-Matrix calculated in cspmtx

  In cspmtx, C-Matrix calculated using fitted potential

-------------------------------------------



 -------------------------------------------
  COSMO surface
  Area             =          351.992
  Volume           =          527.084
  Number of Points =          947
 -------------------------------------------



 ======================
 RI Hartree-Fock Scheme
 ======================
  
 Fit Set Quality     : GOOD
 Integration Quality : GOOD
 Threshold Quality   : GOOD
 Response Quality    : DEFAULT
 Is Range Separated  :  F
 
 RIHartreeFock Dependency: number of modified vectors:           3
 cosmo_calcen: 0.5 (esolb+esolc) (Hartrees) =   -0.020324

 Solvation energy (screening term,uncorrected) =    -12.753722 kcal/mol

 Solvation energy (dispersion and cavitation terms) =      0.527806 kcal/mol
 Solvation Energy Contributions (Hartrees)
          esola   esolb+esolc
     0.02032435   -0.04064870
 esol last cycle   -0.02032435
  
 Hartree-Fock exchange energy:   -56.8014757485602     
 cosmo_calcen: 0.5 (esolb+esolc) (Hartrees) =   -0.020324

 Solvation energy (screening term,uncorrected) =    -12.753723 kcal/mol

 Solvation energy (dispersion and cavitation terms) =      0.527806 kcal/mol
 Solvation Energy Contributions (Hartrees)
          esola   esolb+esolc
     0.02032435   -0.04064870
 esol last cycle   -0.02032435
  pauli hf:                              1.314635317970319         35.7730           824.95          3451.57
  elstat hf:                            -0.822861442008321        -22.3912          -516.35         -2160.42

 Energy gradients wrt nuclear displacements
 ==========================================

     Atom      Cartesian (a.u./angstrom)
                 X         Y         Z
 ----------------------------------------
     1 P    -0.000038 -0.000109  0.001282
     2 O     0.000341  0.000003 -0.000163
     3 O    -0.000163  0.000342 -0.000155
     4 O    -0.000192 -0.000321 -0.000101
     5 O     0.000002  0.000016 -0.001241
     6 H    -0.000748  0.000018  0.000115
     7 H     0.000425 -0.000625  0.000117
     8 H     0.000372  0.000677  0.000145
 ----------------------------------------
 Mulliken charges used for AMS results%charges...

 dE(predicted):    -0.42123E-04, dE(actual):    -0.49169E-04, Trust radius:    0.200000, all in a.u.
 
----------------------------------------------------------------------
Geometry Convergence after Step   3       (Hartree/Angstrom,Angstrom)
----------------------------------------------------------------------
current energy                               -2.23166431 Hartree
energy change                      -0.00004917     0.00008000    T
constrained gradient max            0.00128229     0.00100000    F
constrained gradient rms            0.00047420     0.00066667    T
gradient max                        0.00128229
gradient rms                        0.00047420
cart. step max                      0.00207400     0.00100000    F
cart. step rms                      0.00118912     0.00066667    F
 
 
--------
Geometry
--------
Formula: H3O4P
Atoms
  Index Symbol   x (angstrom)   y (angstrom)   z (angstrom)
      1      P    -0.00000000     0.00000000    -0.15670428       adf.R=1.850
      2      O    -1.38036116    -0.35042778     0.53899980       adf.R=1.517
      3      O     0.99365994    -1.02021394     0.53899980       adf.R=1.517
      4      O     0.38670122     1.37064172     0.53899980       adf.R=1.517
      5      O    -0.00000000     0.00000000    -1.62594074       adf.R=1.517
      6      H    -2.13359680     0.01666634     0.05521522       adf.R=1.350
      7      H     1.05236492    -1.85608220     0.05521522       adf.R=1.350
      8      H     1.08123187     1.83941586     0.05521522       adf.R=1.350
 
Total System Charge             0.00000
Bonding info available!
 
 *** GOStep4 ***

 SOLVATION
-------------------------------------------

  The Delley construction of COSMO surface surface is calculated

       Division Level for Surface Triangles (NDIV)                  3
       Final Division Level for Triangles (NFDIV)                   1
       Radius of the Solvent (RSOL)                           3.17000 angstr
  Dielectric Constant (EPSL)                                  4.80000

       COSMO equation is solved iteratively-               conjugate-gradient

       Maximun of Iterations for Charges (NCIX)                  1000
       Criterion for Charge convergence (CCNV)                1.0E-08

  COSMO charges included variationally in SCF

       COSMO included at every SCF cycle

  Geometry-dependent empirical factor                         0.00000

  C-Matrix calculated in cspmtx

  In cspmtx, C-Matrix calculated using fitted potential

-------------------------------------------



 -------------------------------------------
  COSMO surface
  Area             =          351.875
  Volume           =          526.974
  Number of Points =          944
 -------------------------------------------



 ======================
 RI Hartree-Fock Scheme
 ======================
  
 Fit Set Quality     : GOOD
 Integration Quality : GOOD
 Threshold Quality   : GOOD
 Response Quality    : DEFAULT
 Is Range Separated  :  F
 
 RIHartreeFock Dependency: number of modified vectors:           3
 cosmo_calcen: 0.5 (esolb+esolc) (Hartrees) =   -0.020267

 Solvation energy (screening term,uncorrected) =    -12.717525 kcal/mol

 Solvation energy (dispersion and cavitation terms) =      0.527630 kcal/mol
 Solvation Energy Contributions (Hartrees)
          esola   esolb+esolc
     0.02026666   -0.04053333
 esol last cycle   -0.02026666
  
 Hartree-Fock exchange energy:   -56.8018994115151     
 cosmo_calcen: 0.5 (esolb+esolc) (Hartrees) =   -0.020267

 Solvation energy (screening term,uncorrected) =    -12.717526 kcal/mol

 Solvation energy (dispersion and cavitation terms) =      0.527630 kcal/mol
 Solvation Energy Contributions (Hartrees)
          esola   esolb+esolc
     0.02026667   -0.04053333
 esol last cycle   -0.02026667
  pauli hf:                              1.314999714799141         35.7830           825.17          3452.53
  elstat hf:                            -0.823156700424670        -22.3992          -516.54         -2161.20

 Energy gradients wrt nuclear displacements
 ==========================================

     Atom      Cartesian (a.u./angstrom)
                 X         Y         Z
 ----------------------------------------
     1 P    -0.000038 -0.000109 -0.000336
     2 O    -0.000103 -0.000149  0.000124
     3 O     0.000190  0.000036  0.000132
     4 O    -0.000101  0.000138  0.000188
     5 O     0.000002  0.000016 -0.000206
     6 H    -0.000123  0.000037  0.000024
     7 H     0.000095 -0.000094  0.000025
     8 H     0.000077  0.000123  0.000049
 ----------------------------------------
 Mulliken charges used for AMS results%charges...

 dE(predicted):    -0.33734E-05, dE(actual):    -0.31981E-05, Trust radius:    0.200000, all in a.u.
 
----------------------------------------------------------------------
Geometry Convergence after Step   4       (Hartree/Angstrom,Angstrom)
----------------------------------------------------------------------
current energy                               -2.23166751 Hartree
energy change                      -0.00000320     0.00008000    T
constrained gradient max            0.00033630     0.00100000    T
constrained gradient rms            0.00012205     0.00066667    T
gradient max                        0.00033630
gradient rms                        0.00012205
cart. step max                      0.00106582     0.00100000    F
cart. step rms                      0.00055556     0.00066667    T
 
 
--------
Geometry
--------
Formula: H3O4P
Atoms
  Index Symbol   x (angstrom)   y (angstrom)   z (angstrom)
      1      P    -0.00000000     0.00000000    -0.15579735       adf.R=1.850
      2      O    -1.38058389    -0.34999010     0.53942861       adf.R=1.517
      3      O     0.99339226    -1.02062567     0.53942861       adf.R=1.517
      4      O     0.38719163     1.37061577     0.53942861       adf.R=1.517
      5      O    -0.00000000     0.00000000    -1.62493663       adf.R=1.517
      6      H    -2.13315701     0.01634316     0.05414939       adf.R=1.350
      7      H     1.05242491    -1.85553974     0.05414939       adf.R=1.350
      8      H     1.08073210     1.83919658     0.05414939       adf.R=1.350
 
Total System Charge             0.00000
Bonding info available!
 
 *** GOStep5 ***

 SOLVATION
-------------------------------------------

  The Delley construction of COSMO surface surface is calculated

       Division Level for Surface Triangles (NDIV)                  3
       Final Division Level for Triangles (NFDIV)                   1
       Radius of the Solvent (RSOL)                           3.17000 angstr
  Dielectric Constant (EPSL)                                  4.80000

       COSMO equation is solved iteratively-               conjugate-gradient

       Maximun of Iterations for Charges (NCIX)                  1000
       Criterion for Charge convergence (CCNV)                1.0E-08

  COSMO charges included variationally in SCF

       COSMO included at every SCF cycle

  Geometry-dependent empirical factor                         0.00000

  C-Matrix calculated in cspmtx

  In cspmtx, C-Matrix calculated using fitted potential

-------------------------------------------



 -------------------------------------------
  COSMO surface
  Area             =          351.833
  Volume           =          526.914
  Number of Points =          944
 -------------------------------------------



 ======================
 RI Hartree-Fock Scheme
 ======================
  
 Fit Set Quality     : GOOD
 Integration Quality : GOOD
 Threshold Quality   : GOOD
 Response Quality    : DEFAULT
 Is Range Separated  :  F
 
 RIHartreeFock Dependency: number of modified vectors:           3
 cosmo_calcen: 0.5 (esolb+esolc) (Hartrees) =   -0.020255

 Solvation energy (screening term,uncorrected) =    -12.709921 kcal/mol

 Solvation energy (dispersion and cavitation terms) =      0.527568 kcal/mol
 Solvation Energy Contributions (Hartrees)
          esola   esolb+esolc
     0.02025455   -0.04050909
 esol last cycle   -0.02025455
  
 Hartree-Fock exchange energy:   -56.8023320851815     
 cosmo_calcen: 0.5 (esolb+esolc) (Hartrees) =   -0.020255

 Solvation energy (screening term,uncorrected) =    -12.709922 kcal/mol

 Solvation energy (dispersion and cavitation terms) =      0.527568 kcal/mol
 Solvation Energy Contributions (Hartrees)
          esola   esolb+esolc
     0.02025455   -0.04050910
 esol last cycle   -0.02025455
  pauli hf:                              1.315248639885725         35.7897           825.33          3453.18
  elstat hf:                            -0.823374637739404        -22.4052          -516.68         -2161.77

 Energy gradients wrt nuclear displacements
 ==========================================

     Atom      Cartesian (a.u./angstrom)
                 X         Y         Z
 ----------------------------------------
     1 P    -0.000040 -0.000110 -0.000238
     2 O    -0.000102 -0.000100 -0.000005
     3 O     0.000157  0.000015 -0.000003
     4 O    -0.000064  0.000119  0.000054
     5 O     0.000002  0.000016  0.000113
     6 H     0.000025  0.000002  0.000014
     7 H     0.000044  0.000051  0.000021
     8 H    -0.000022  0.000007  0.000044
 ----------------------------------------
 Mulliken charges used for AMS results%charges...
 
---------------------------------------------------------
Geometry Convergence after Step   5       ** CONVERGED **
---------------------------------------------------------
current energy                               -2.23166804 Hartree
energy change                      -0.00000052     0.00008000    T
constrained gradient max            0.00023847     0.00100000    T
constrained gradient rms            0.00007071     0.00066667    T
gradient max                        0.00023847
gradient rms                        0.00007071
cart. step max                      0.00066791     0.00100000    T
cart. step rms                      0.00038838     0.00066667    T
 
Geometry optimization converged

Optimized geometry:
 
--------
Geometry
--------
Formula: H3O4P
Atoms
  Index Symbol   x (angstrom)   y (angstrom)   z (angstrom)
      1      P    -0.00000000     0.00000000    -0.15579735       adf.R=1.850
      2      O    -1.38058389    -0.34999010     0.53942861       adf.R=1.517
      3      O     0.99339226    -1.02062567     0.53942861       adf.R=1.517
      4      O     0.38719163     1.37061577     0.53942861       adf.R=1.517
      5      O    -0.00000000     0.00000000    -1.62493663       adf.R=1.517
      6      H    -2.13315701     0.01634316     0.05414939       adf.R=1.350
      7      H     1.05242491    -1.85553974     0.05414939       adf.R=1.350
      8      H     1.08073210     1.83919658     0.05414939       adf.R=1.350
 
Total System Charge             0.00000
Bonding info available!
 
Performing a single point calculation on the final geometry ...

 *** adf ***



 ===========================
 A T T A C H E D   F I L E S
 ===========================
  
 Restart/tmp/amstmp_ams_kid0.1619261798/GOStep5.rkf*** GOStep5 ***



 ===============================
 M O D E L   P A R A M E T E R S
 ===============================
  
 DENSITY FUNCTIONAL POTENTIAL (scf)
    Hybrid:                            PBE0                                    == Not Default ==

 SPIN  (restricted / unrestr.)
    Molecule:                          Restricted                               
    Fragments:                         Restricted                               

 OTHER ASPECTS
    Relativistic Corrections:          ---                                     == Not Default ==

    Nuclear Charge Density Model:      Point Charge Nuclei                      
    Core Treatment:                    Frozen Orbital(s)                        

    Hyperfine or Zeeman Interaction:   ---                                      

 SOLVATION
-------------------------------------------

  The Delley construction of COSMO surface surface is calculated

       Division Level for Surface Triangles (NDIV)                  3
       Final Division Level for Triangles (NFDIV)                   1
       Radius of the Solvent (RSOL)                           3.17000 angstr
  Dielectric Constant (EPSL)                                  4.80000

       COSMO equation is solved iteratively-               conjugate-gradient

       Maximun of Iterations for Charges (NCIX)                  1000
       Criterion for Charge convergence (CCNV)                1.0E-08

  COSMO charges included variationally in SCF

       COSMO included at every SCF cycle

  Geometry-dependent empirical factor                         0.00000

  C-Matrix calculated in cspmtx

  In cspmtx, C-Matrix calculated using fitted potential

-------------------------------------------




 ===============
 G E O M E T R Y  ***  3D  Molecule  ***
 ===============
  

 ATOMS
 =====                            X Y Z                    CHARGE                     RADIUS
                                (Angstrom)             Nucl     +Core       At.Mass (Angstrom)
                       --------------------------    ----------------       ------- ----------
    1  P              -0.0000    0.0000   -0.1558     15.00     15.00       30.9738    1.8500
    2  O              -1.3806   -0.3500    0.5394      8.00      8.00       15.9949    1.5170
    3  O               0.9934   -1.0206    0.5394      8.00      8.00       15.9949    1.5170
    4  O               0.3872    1.3706    0.5394      8.00      8.00       15.9949    1.5170
    5  O              -0.0000    0.0000   -1.6249      8.00      8.00       15.9949    1.5170
    6  H              -2.1332    0.0163    0.0541      1.00      1.00        1.0078    1.3500
    7  H               1.0524   -1.8555    0.0541      1.00      1.00        1.0078    1.3500
    8  H               1.0807    1.8392    0.0541      1.00      1.00        1.0078    1.3500


 FRAGMENTS
 =========                                     Atoms in this Fragment     Cart. coord.s (Angstrom)
                                               -------------------------------------------------------
    1  P                                                 1  P           -0.0000    0.0000   -0.1558
    2  O                                                 2  O           -1.3806   -0.3500    0.5394
    3  O                                                 3  O            0.9934   -1.0206    0.5394
    4  O                                                 4  O            0.3872    1.3706    0.5394
    5  O                                                 5  O           -0.0000    0.0000   -1.6249
    6  H                                                 6  H           -2.1332    0.0163    0.0541
    7  H                                                 7  H            1.0524   -1.8555    0.0541
    8  H                                                 8  H            1.0807    1.8392    0.0541


 Interatomic Distance Matrix (Angstrom)
 --------------------------------------

   1)     0.000
   2)     1.585   0.000
   3)     1.585   2.467   0.000
   4)     1.585   2.467   2.467   0.000
   5)     1.469   2.591   2.591   2.591   0.000
   6)     2.144   0.968   3.330   2.902   2.715   0.000
   7)     2.144   2.902   0.968   3.330   2.715   3.695   0.000
   8)     2.144   3.330   2.902   0.968   2.715   3.695   3.695   0.000

 Min. Distance =    0.9675
 Max. Distance =    3.6948



 =====================================
 S Y M M E T R Y ,   E L E C T R O N S
 =====================================
  
 Symmetry: NOSYM

 Irreducible Representations, including subspecies
 -------------------------------------------------
 A

 Symmetry is NOT used when fitting density


 Configuration of Valence Electrons
 ==================================
 ( determined in the SCF procedure )

 Total:   50

 Net Charge: 0 (Nuclei minus Electrons)

 Aufbau principle for MO occupations will be applied through SCF cycle no.     150
 Thereafter, the program will assign electrons to MOs that are spatially
 similar to the occupied MOs in a "reference" cycle ("KeepOrbitals").
 The reference cycle is always the PREVIOUS cycle: it will evolve with
 the SCF procedure.
1
 ***************************************************************************************************



                                      ****************************************
                                      *  B U I L D : (Fragments, Functions)  *
                                      ****************************************
  



 =======
 S F O s  ***  (Symmetrized Fragment Orbitals)  ***
 =======
  
 SFOs are linear combinations of (valence) Fragment Orbitals (FOs), such that the SFOs transform as the
 irreducible representations of the (molecular) symmetry group. Each SFO is therefore characterized by
 an irrep of the molecule and by a few (or only one) generating FOs.
 The SFOs constitute a symmetry-adapted basis for the Fock matrix. The MO eigenvector coefficients in
 this basis provide a direct interpretation of the MOs in terms of Frontier Orbital Theory.

 The SFOs are combined with auxiliary Core Functions (CFs) to ensure orthogonalization on the (frozen)
 Core Orbitals (COs). The Core-orthogonalized SFOs (CSFOs) constitute the true Fock basis.

 The FOs, and hence also the (C)SFOs are combinations of the elementary basis functions (BAS). The basis
 functions that participate in the description of the SFOs depend on the irrep. The indices of the
 involved functions are printed below for each irrep.
 (The complete list of primitive basis functions is printed in another section)

 Total nr. of (C)SFOs (summation over all irreps) :   121

 NOTE: a (C)SFO that is defined as a combination of more than one FO is usually NOT normalized.



                                       === A ===
 Nr. of SFOs :  121
 Cartesian basis functions that participate in this irrep (total number =   126) :
      1     2     3     4    11    12    13     5     8    14
     17    20     6     9    15    18    21     7    10    16
     19    22    23    24    25    26    27    28    29    30
     31    32    33    34    37    40    35    38    41    36
     39    42    43    44    45    46    47    48    49    50
     51    52    53    54    57    60    55    58    61    56
     59    62    63    64    65    66    67    68    69    70
     71    72    73    74    77    80    75    78    81    76
     79    82    83    84    85    86    87    88    89    90
     91    92    93    94    97   100    95    98   101    96
     99   102   103   104   105   106   107   108   109   110
    111   112   113   114   115   116   117   118   119   120
    121   122   123   124   125   126

    SFO  (index         Fragment          Generating    Expansion in Fragment Orbitals
  indx  incl.CFs)   Occup   Orb.Energy   FragmentType  Coeff.   Orbital     on Fragment
 --------------------------------------------------------------------------------------
     1       1      2.000     -77.285 au  P             1.00      1 S               1
                        (   -2103.045 eV)
     2       2      2.000      -6.676 au  P             1.00      2 S               1
                        (    -181.657 eV)
     3       3      2.000      -0.577 au  P             1.00      3 S               1
                        (     -15.702 eV)
     4       4       --         0.141 au  P             1.00      4 S               1
                        (       3.844 eV)
     5       5       --         1.386 au  P             1.00      5 S               1
                        (      37.721 eV)
     6       6       --         9.539 au  P             1.00      6 S               1
                        (     259.574 eV)
     7       7       --       165.272 au  P             1.00      7 S               1
                        (    4497.267 eV)
     8       8      2.000      -4.807 au  P             1.00      1 P:x             1
                        (    -130.803 eV)
     9       9      1.000      -0.208 au  P             1.00      2 P:x             1
                        (      -5.669 eV)
    10      10       --         0.107 au  P             1.00      3 P:x             1
                        (       2.910 eV)
    11      11       --         0.924 au  P             1.00      4 P:x             1
                        (      25.147 eV)
    12      12       --        10.562 au  P             1.00      5 P:x             1
                        (     287.399 eV)
    13      13      2.000      -4.807 au  P             1.00      1 P:y             1
                        (    -130.803 eV)
    14      14      1.000      -0.208 au  P             1.00      2 P:y             1
                        (      -5.669 eV)
    15      15       --         0.107 au  P             1.00      3 P:y             1
                        (       2.910 eV)
    16      16       --         0.924 au  P             1.00      4 P:y             1
                        (      25.147 eV)
    17      17       --        10.562 au  P             1.00      5 P:y             1
                        (     287.399 eV)
    18      18      2.000      -4.807 au  P             1.00      1 P:z             1
                        (    -130.803 eV)
    19      19      1.000      -0.208 au  P             1.00      2 P:z             1
                        (      -5.669 eV)
    20      20       --         0.107 au  P             1.00      3 P:z             1
                        (       2.910 eV)
    21      21       --         0.924 au  P             1.00      4 P:z             1
                        (      25.147 eV)
    22      22       --        10.562 au  P             1.00      5 P:z             1
                        (     287.399 eV)
    23      23       --         0.439 au  P             1.00      1 D:z2            1
                        (      11.944 eV)
    24      24       --         0.439 au  P             1.00      1 D:x2-y2         1
                        (      11.944 eV)
    25      25       --         0.439 au  P             1.00      1 D:xy            1
                        (      11.944 eV)
    26      26       --         0.439 au  P             1.00      1 D:xz            1
                        (      11.944 eV)
    27      27       --         0.439 au  P             1.00      1 D:yz            1
                        (      11.944 eV)
    28      28      2.000     -19.382 au  O             1.00      1 S               2
                        (    -527.413 eV)
    29      29      2.000      -0.998 au  O             1.00      2 S               2
                        (     -27.149 eV)
    30      30       --         0.858 au  O             1.00      3 S               2
                        (      23.351 eV)
    31      31       --        13.707 au  O             1.00      4 S               2
                        (     372.994 eV)
    32      32       --       123.922 au  O             1.00      5 S               2
                        (    3372.077 eV)
    33      33      1.333      -0.366 au  O             1.00      1 P:x             2
                        (      -9.963 eV)
    34      34       --         0.397 au  O             1.00      2 P:x             2
                        (      10.809 eV)
    35      35       --         3.984 au  O             1.00      3 P:x             2
                        (     108.415 eV)
    36      36      1.333      -0.366 au  O             1.00      1 P:y             2
                        (      -9.963 eV)
    37      37       --         0.397 au  O             1.00      2 P:y             2
                        (      10.809 eV)
    38      38       --         3.984 au  O             1.00      3 P:y             2
                        (     108.415 eV)
    39      39      1.333      -0.366 au  O             1.00      1 P:z             2
                        (      -9.963 eV)
    40      40       --         0.397 au  O             1.00      2 P:z             2
                        (      10.809 eV)
    41      41       --         3.984 au  O             1.00      3 P:z             2
                        (     108.415 eV)
    42      42       --         1.128 au  O             1.00      1 D:z2            2
                        (      30.700 eV)
    43      43       --         1.128 au  O             1.00      1 D:x2-y2         2
                        (      30.700 eV)
    44      44       --         1.128 au  O             1.00      1 D:xy            2
                        (      30.700 eV)
    45      45       --         1.128 au  O             1.00      1 D:xz            2
                        (      30.700 eV)
    46      46       --         1.128 au  O             1.00      1 D:yz            2
                        (      30.700 eV)
    47      47      2.000     -19.382 au  O             1.00      1 S               3
                        (    -527.413 eV)
    48      48      2.000      -0.998 au  O             1.00      2 S               3
                        (     -27.149 eV)
    49      49       --         0.858 au  O             1.00      3 S               3
                        (      23.351 eV)
    50      50       --        13.707 au  O             1.00      4 S               3
                        (     372.994 eV)
    51      51       --       123.922 au  O             1.00      5 S               3
                        (    3372.077 eV)
    52      52      1.333      -0.366 au  O             1.00      1 P:x             3
                        (      -9.963 eV)
    53      53       --         0.397 au  O             1.00      2 P:x             3
                        (      10.809 eV)
    54      54       --         3.984 au  O             1.00      3 P:x             3
                        (     108.415 eV)
    55      55      1.333      -0.366 au  O             1.00      1 P:y             3
                        (      -9.963 eV)
    56      56       --         0.397 au  O             1.00      2 P:y             3
                        (      10.809 eV)
    57      57       --         3.984 au  O             1.00      3 P:y             3
                        (     108.415 eV)
    58      58      1.333      -0.366 au  O             1.00      1 P:z             3
                        (      -9.963 eV)
    59      59       --         0.397 au  O             1.00      2 P:z             3
                        (      10.809 eV)
    60      60       --         3.984 au  O             1.00      3 P:z             3
                        (     108.415 eV)
    61      61       --         1.128 au  O             1.00      1 D:z2            3
                        (      30.700 eV)
    62      62       --         1.128 au  O             1.00      1 D:x2-y2         3
                        (      30.700 eV)
    63      63       --         1.128 au  O             1.00      1 D:xy            3
                        (      30.700 eV)
    64      64       --         1.128 au  O             1.00      1 D:xz            3
                        (      30.700 eV)
    65      65       --         1.128 au  O             1.00      1 D:yz            3
                        (      30.700 eV)
    66      66      2.000     -19.382 au  O             1.00      1 S               4
                        (    -527.413 eV)
    67      67      2.000      -0.998 au  O             1.00      2 S               4
                        (     -27.149 eV)
    68      68       --         0.858 au  O             1.00      3 S               4
                        (      23.351 eV)
    69      69       --        13.707 au  O             1.00      4 S               4
                        (     372.994 eV)
    70      70       --       123.922 au  O             1.00      5 S               4
                        (    3372.077 eV)
    71      71      1.333      -0.366 au  O             1.00      1 P:x             4
                        (      -9.963 eV)
    72      72       --         0.397 au  O             1.00      2 P:x             4
                        (      10.809 eV)
    73      73       --         3.984 au  O             1.00      3 P:x             4
                        (     108.415 eV)
    74      74      1.333      -0.366 au  O             1.00      1 P:y             4
                        (      -9.963 eV)
    75      75       --         0.397 au  O             1.00      2 P:y             4
                        (      10.809 eV)
    76      76       --         3.984 au  O             1.00      3 P:y             4
                        (     108.415 eV)
    77      77      1.333      -0.366 au  O             1.00      1 P:z             4
                        (      -9.963 eV)
    78      78       --         0.397 au  O             1.00      2 P:z             4
                        (      10.809 eV)
    79      79       --         3.984 au  O             1.00      3 P:z             4
                        (     108.415 eV)
    80      80       --         1.128 au  O             1.00      1 D:z2            4
                        (      30.700 eV)
    81      81       --         1.128 au  O             1.00      1 D:x2-y2         4
                        (      30.700 eV)
    82      82       --         1.128 au  O             1.00      1 D:xy            4
                        (      30.700 eV)
    83      83       --         1.128 au  O             1.00      1 D:xz            4
                        (      30.700 eV)
    84      84       --         1.128 au  O             1.00      1 D:yz            4
                        (      30.700 eV)
    85      85      2.000     -19.382 au  O             1.00      1 S               5
                        (    -527.413 eV)
    86      86      2.000      -0.998 au  O             1.00      2 S               5
                        (     -27.149 eV)
    87      87       --         0.858 au  O             1.00      3 S               5
                        (      23.351 eV)
    88      88       --        13.707 au  O             1.00      4 S               5
                        (     372.994 eV)
    89      89       --       123.922 au  O             1.00      5 S               5
                        (    3372.077 eV)
    90      90      1.333      -0.366 au  O             1.00      1 P:x             5
                        (      -9.963 eV)
    91      91       --         0.397 au  O             1.00      2 P:x             5
                        (      10.809 eV)
    92      92       --         3.984 au  O             1.00      3 P:x             5
                        (     108.415 eV)
    93      93      1.333      -0.366 au  O             1.00      1 P:y             5
                        (      -9.963 eV)
    94      94       --         0.397 au  O             1.00      2 P:y             5
                        (      10.809 eV)
    95      95       --         3.984 au  O             1.00      3 P:y             5
                        (     108.415 eV)
    96      96      1.333      -0.366 au  O             1.00      1 P:z             5
                        (      -9.963 eV)
    97      97       --         0.397 au  O             1.00      2 P:z             5
                        (      10.809 eV)
    98      98       --         3.984 au  O             1.00      3 P:z             5
                        (     108.415 eV)
    99      99       --         1.128 au  O             1.00      1 D:z2            5
                        (      30.700 eV)
   100     100       --         1.128 au  O             1.00      1 D:x2-y2         5
                        (      30.700 eV)
   101     101       --         1.128 au  O             1.00      1 D:xy            5
                        (      30.700 eV)
   102     102       --         1.128 au  O             1.00      1 D:xz            5
                        (      30.700 eV)
   103     103       --         1.128 au  O             1.00      1 D:yz            5
                        (      30.700 eV)
   104     104      1.000      -0.242 au  H             1.00      1 S               6
                        (      -6.581 eV)
   105     105       --         0.113 au  H             1.00      2 S               6
                        (       3.073 eV)
   106     106       --         1.599 au  H             1.00      3 S               6
                        (      43.508 eV)
   107     107       --         0.445 au  H             1.00      1 P:x             6
                        (      12.104 eV)
   108     108       --         0.445 au  H             1.00      1 P:y             6
                        (      12.104 eV)
   109     109       --         0.445 au  H             1.00      1 P:z             6
                        (      12.104 eV)
   110     110      1.000      -0.242 au  H             1.00      1 S               7
                        (      -6.581 eV)
   111     111       --         0.113 au  H             1.00      2 S               7
                        (       3.073 eV)
   112     112       --         1.599 au  H             1.00      3 S               7
                        (      43.508 eV)
   113     113       --         0.445 au  H             1.00      1 P:x             7
                        (      12.104 eV)
   114     114       --         0.445 au  H             1.00      1 P:y             7
                        (      12.104 eV)
   115     115       --         0.445 au  H             1.00      1 P:z             7
                        (      12.104 eV)
   116     116      1.000      -0.242 au  H             1.00      1 S               8
                        (      -6.581 eV)
   117     117       --         0.113 au  H             1.00      2 S               8
                        (       3.073 eV)
   118     118       --         1.599 au  H             1.00      3 S               8
                        (      43.508 eV)
   119     119       --         0.445 au  H             1.00      1 P:x             8
                        (      12.104 eV)
   120     120       --         0.445 au  H             1.00      1 P:y             8
                        (      12.104 eV)
   121     121       --         0.445 au  H             1.00      1 P:z             8
                        (      12.104 eV)



 ================================
 (Slater-type)  F U N C T I O N S  ***  (Basis and Fit)  ***
 ================================
  

 Atom Type    1  (P)
 ==============

 Valence Basis Sets:  13
 -----------------------
   1 S   18.000000
   1 S   13.350000
   2 S    5.600000
   2 S    4.050000
   2 P    7.450000
   2 P    4.100000
   3 S    2.700000
   3 S    1.850000
   3 S    1.300000
   3 P    2.300000
   3 P    1.350000
   3 P    0.850000
   3 D    1.900000

 Charge Fitting Sets (for the computation of the Coulomb Potential):  30
 -----------------------------------------------------------------------
   1 S   36.000000
   1 S   21.450000
   2 S   23.670000
   2 S   15.860000
   3 S   15.600000
   3 S   11.130000
   3 S    7.940000
   4 S    7.490000
   4 S    5.560000
   4 S    4.130000
   5 S    3.810000
   5 S    2.910000
   5 S    2.230000
   5 S    1.700000
   2 P   25.450000
   3 P   18.490000
   4 P   13.440000
   4 P    7.810000
   5 P    5.730000
   5 P    3.510000
   5 P    2.150000
   3 D   19.350000
   4 D   13.230000
   4 D    7.250000
   5 D    5.040000
   5 D    2.930000
   5 D    1.700000
   4 F    5.000000
   4 F    3.000000
   5 G    3.750000

 Atom Type    2  (O)
 ==============

 Valence Basis Sets:   9
 -----------------------
   1 S    9.800000
   1 S    6.800000
   2 S    7.580000
   2 S    2.880000
   2 S    1.720000
   2 P    4.080000
   2 P    2.080000
   2 P    1.120000
   3 D    2.000000

 Charge Fitting Sets (for the computation of the Coulomb Potential):  22
 -----------------------------------------------------------------------
   1 S   19.600000
   2 S   22.600000
   2 S   15.680000
   2 S   10.890000
   2 S    7.560000
   3 S    7.690000
   3 S    5.650000
   3 S    4.150000
   3 S    3.050000
   3 S    2.240000
   2 P   12.860000
   2 P    7.680000
   3 P    6.780000
   3 P    4.390000
   3 P    2.840000
   3 D    8.800000
   3 D    5.580000
   3 D    3.530000
   3 D    2.240000
   4 F    6.200000
   4 F    3.700000
   5 G    4.500000

 Atom Type    3  (H)
 ==============

 Valence Basis Sets:   4
 -----------------------
   1 S    0.690000
   1 S    0.920000
   1 S    1.580000
   2 P    1.250000

 Charge Fitting Sets (for the computation of the Coulomb Potential):  11
 -----------------------------------------------------------------------
   1 S    3.160000
   1 S    2.090000
   1 S    1.380000
   2 S    1.500000
   2 P    4.000000
   2 P    2.650000
   2 P    1.750000
   3 D    4.000000
   3 D    2.500000
   4 F    3.000000
   5 G    4.000000


 BAS: List of all Elementary Cartesian Basis Functions
 =====================================================

 The numbering in the list below (to the right of the function characteristics) is referred
 to in print-outs of MO eigenvectors and Mulliken populations in the BAS representation
 (as contrasted to the SFO representation).

 Notes:
 1. The functions are characterized by a polynomial prefactor (powers of x,y,z and r) and
    an exponential decay factor alpha.
 2. Since the basis sets are specific for an atom TYPE, the individual functions occur on
    all atoms of that type.
 3. The word 'Core' in the left margin signals that it is a Core Function (CF) : not a
    degree of freedom in the valence set, but only used to ensure orthogonalization of
    the other valence basis functions on the frozen Core Orbitals.


 (power of) X  Y  Z  R     Alpha  on Atom
            ==========     =====     ==========

 P                                    1
                                  ---------------------------------------------------------------------------
            0  0  0  0    18.000      1
            0  0  0  0    13.350      2
            0  0  0  1     5.600      3
            0  0  0  1     4.050      4
            1  0  0  0     7.450      5
            0  1  0  0     7.450      6
            0  0  1  0     7.450      7
            1  0  0  0     4.100      8
            0  1  0  0     4.100      9
            0  0  1  0     4.100     10
            0  0  0  2     2.700     11
            0  0  0  2     1.850     12
            0  0  0  2     1.300     13
            1  0  0  1     2.300     14
            0  1  0  1     2.300     15
            0  0  1  1     2.300     16
            1  0  0  1     1.350     17
            0  1  0  1     1.350     18
            0  0  1  1     1.350     19
            1  0  0  1     0.850     20
            0  1  0  1     0.850     21
            0  0  1  1     0.850     22
            2  0  0  0     1.900     23
            1  1  0  0     1.900     24
            1  0  1  0     1.900     25
            0  2  0  0     1.900     26
            0  1  1  0     1.900     27
            0  0  2  0     1.900     28

 O                                    2    3    4    5
                                  ---------------------------------------------------------------------------
            0  0  0  0     9.800     29   49   69   89
            0  0  0  0     6.800     30   50   70   90
            0  0  0  1     7.580     31   51   71   91
            0  0  0  1     2.880     32   52   72   92
            0  0  0  1     1.720     33   53   73   93
            1  0  0  0     4.080     34   54   74   94
            0  1  0  0     4.080     35   55   75   95
            0  0  1  0     4.080     36   56   76   96
            1  0  0  0     2.080     37   57   77   97
            0  1  0  0     2.080     38   58   78   98
            0  0  1  0     2.080     39   59   79   99
            1  0  0  0     1.120     40   60   80  100
            0  1  0  0     1.120     41   61   81  101
            0  0  1  0     1.120     42   62   82  102
            2  0  0  0     2.000     43   63   83  103
            1  1  0  0     2.000     44   64   84  104
            1  0  1  0     2.000     45   65   85  105
            0  2  0  0     2.000     46   66   86  106
            0  1  1  0     2.000     47   67   87  107
            0  0  2  0     2.000     48   68   88  108

 H                                    6    7    8
                                  ---------------------------------------------------------------------------
            0  0  0  0     0.690    109  115  121
            0  0  0  0     0.920    110  116  122
            0  0  0  0     1.580    111  117  123
            1  0  0  0     1.250    112  118  124
            0  1  0  0     1.250    113  119  125
            0  0  1  0     1.250    114  120  126

 Total number of charge fitting functions (nprimf)       592
 Total number of Cartesian basis functions (naos)        126
 Total number of Cartesian core functions  (ncos)          0

1
 ***************************************************************************************************



                                              ***********************
                                              *  T E C H N I C A L  *
                                              ***********************
  



 =============================================================
 P A R A L L E L I Z A T I O N  and  V E C T O R I Z A T I O N
 =============================================================
  
 Nr of parallel processes:                                4
 Maximum vector length in NumInt loops:                 128



 =====================
 S C F   U P D A T E S
 =====================
  
 Max. nr. of cycles:                               300
 Convergence criterion:                              0.0000010000
   secondary criterion:                              0.0010000000

 Mix parameter (when DIIS does not apply):           0.2000000000
 Mixed ADIIS+SDIIS will be used                  
    Max number of expansion vectors:                10
    Pure ADIIS when Max([F,P]) is above              0.1000000000
    Pure SDIIS when Max([F,P]) is below              0.0010000000
 Automatic ElectronSmearing (in case of problematic SCF convergence) disabled



 =================
 P R E C I S I O N  ***  (General: NumInt, NeglectFunctionTails, ...)  ***
 =================
  

 NumInt:           Target precision:                 6.0000000000
 -------           Initial precision:                6.0000000000
                   Min. precision (optimization):    6.0000000000

 Neglect Functions:          Basis functions:        0.1000000000E-07
 ------------------          Fit functions:          0.1000000000E-07



 ===========================
 L I N E A R   S C A L I N G
 ===========================
  

 Cut-off radii density fit:                        0.1000000000E-09
 Overlap cut-off criterion AO matrix elements:     0.1000000000E-07
 Cut-offs for Coulomb potential and fitted density:0.1000000000E-09
 Cut-off criterion for Coulomb multipole terms:    0.1000000000E-09
 Progressive Convergence parameter:                 0.000000000    

 Number of elements of the density matrix on this node (used, total):      2053      8001



 ===========================================
 Numerical Integration : Fuzzy Cells (Becke)
 ===========================================
  
 Becke grid quality: GOOD           
  
 Lebedev angular grid order:             min:  11 max:  31
 Nr. of radial points:                   min:  54 max:  76

 Total nr. of points:     101649
 Nr. of blocks:              795
 Block length:               128
 Nr. of dummy points:        111


 Test of Precision of the Numerical Integration Grid
 ===================================================

 Integral of the Total Core Density:                   0.00000000000000


 -------------------------------------------
  COSMO surface
  Area             =          351.833
  Volume           =          526.914
  Number of Points =          944
 -------------------------------------------



 ========================
 Density Fitting (zlmFit)
 ========================
  
 ZlmFit Fit Quality: GOOD           
  
 Max L-expansion:                        min:   7 max:   8
 Nr. of radial interpolation points:     min:  72 max: 126



 ======================
 RI Hartree-Fock Scheme
 ======================
  
 Fit Set Quality     : GOOD
 Integration Quality : GOOD
 Threshold Quality   : GOOD
 Response Quality    : DEFAULT
 Is Range Separated  :  F
 
 RIHartreeFock Dependency: number of modified vectors:           3



 =====
 S C F  ***  ScaSCF  ***
 =====
  
 Initial density matrix is taken from previous geometry

 CYCLE    1
  ***********************************************************
  ** : orbital data taken from :/tmp/amstmp_ams_kid0.1619261798/GOStep5.rkf
  ***********************************************************
 SCF Error: norm([F,P])=      0.060011484198, max([F,P])=      0.014209742123
 orbitals (Q,E):
 ---------------
 A :16...35          ( 2.00    -0.5951)  ( 2.00    -0.5050)  ( 2.00    -0.4682)  ( 2.00    -0.4682)
                     ( 2.00    -0.4137)  ( 2.00    -0.4137)  ( 2.00    -0.3973)  ( 2.00    -0.3762)
                     ( 2.00    -0.3182)  ( 2.00    -0.3182)  ( 0.00    -0.0156)  ( 0.00     0.0245)
                     ( 0.00     0.0245)  ( 0.00     0.1056)  ( 0.00     0.1247)  ( 0.00     0.1247)
                     ( 0.00     0.1356)  ( 0.00     0.1635)  ( 0.00     0.1635)  ( 0.00     0.1674)

 CYCLE    2
  SDIIS (wt  0.000):  0.6299  0.3701
 A-DIIS (wt  1.000):  0.6463  0.3537
  DIIS coefficients:  0.6463  0.3537
 SCF Error: norm([F,P])=      0.097930297430, max([F,P])=      0.028571055996
 orbitals (Q,E):
 ---------------
 A :16...26          ( 2.00    -0.5925)  ( 2.00    -0.5100)  ( 2.00    -0.4690)  ( 2.00    -0.4690)
                     ( 2.00    -0.4135)  ( 2.00    -0.4135)  ( 2.00    -0.4067)  ( 2.00    -0.3780)
                     ( 2.00    -0.3298)  ( 2.00    -0.3298)  ( 0.00    -0.0107)

 CYCLE    3
  SDIIS (wt  0.000):  0.4401  0.1416  0.4183
 A-DIIS (wt  1.000):  0.3188  0.0000  0.6812
  DIIS coefficients:  0.3188  0.0000  0.6812
 SCF Error: norm([F,P])=      0.039429165869, max([F,P])=      0.009227043838
 orbitals (Q,E):
 ---------------
 A :16...26          ( 2.00    -0.5912)  ( 2.00    -0.5113)  ( 2.00    -0.4693)  ( 2.00    -0.4693)
                     ( 2.00    -0.4134)  ( 2.00    -0.4134)  ( 2.00    -0.4084)  ( 2.00    -0.3779)
                     ( 2.00    -0.3308)  ( 2.00    -0.3308)  ( 0.00    -0.0065)

 CYCLE    4
  SDIIS (wt  0.922): -0.3233  0.1869  1.1364
 A-DIIS (wt  0.078):  0.0000  0.0000  1.0000
  DIIS coefficients: -0.2982  0.1723  1.1258
 SCF Error: norm([F,P])=      0.027753334766, max([F,P])=      0.008705714451
 orbitals (Q,E):
 ---------------
 A :16...26          ( 2.00    -0.5890)  ( 2.00    -0.5142)  ( 2.00    -0.4691)  ( 2.00    -0.4691)
                     ( 2.00    -0.4138)  ( 2.00    -0.4123)  ( 2.00    -0.4123)  ( 2.00    -0.3769)
                     ( 2.00    -0.3377)  ( 2.00    -0.3377)  ( 0.00    -0.0026)

 CYCLE    5
  SDIIS (wt  0.987): -0.1127 -0.0533  0.5599  0.6061
 A-DIIS (wt  0.013):  0.0000  0.0000  0.0000  1.0000
  DIIS coefficients: -0.1112 -0.0526  0.5525  0.6113
 SCF Error: norm([F,P])=      0.011857176551, max([F,P])=      0.002321506976
 orbitals (Q,E):
 ---------------
 A :16...26          ( 2.00    -0.5901)  ( 2.00    -0.5144)  ( 2.00    -0.4700)  ( 2.00    -0.4700)
                     ( 2.00    -0.4137)  ( 2.00    -0.4134)  ( 2.00    -0.4134)  ( 2.00    -0.3781)
                     ( 2.00    -0.3370)  ( 2.00    -0.3370)  ( 0.00    -0.0028)

 CYCLE    6
  SDIIS (wt  1.000):  0.0002 -0.0496  0.0740  0.2935  0.6820
  DIIS coefficients:  0.0002 -0.0496  0.0740  0.2935  0.6820
 SCF Error: norm([F,P])=      0.003556482037, max([F,P])=      0.000586972497
 orbitals (Q,E):
 ---------------
 A :16...26          ( 2.00    -0.5900)  ( 2.00    -0.5143)  ( 2.00    -0.4698)  ( 2.00    -0.4698)
                     ( 2.00    -0.4135)  ( 2.00    -0.4132)  ( 2.00    -0.4132)  ( 2.00    -0.3779)
                     ( 2.00    -0.3369)  ( 2.00    -0.3369)  ( 0.00    -0.0027)

 CYCLE    7
  SDIIS (wt  1.000):  0.0014 -0.0004 -0.0099  0.0245  0.0983  0.8862
  DIIS coefficients:  0.0014 -0.0004 -0.0099  0.0245  0.0983  0.8862
 SCF Error: norm([F,P])=      0.000403248196, max([F,P])=      0.000095345206
 orbitals (Q,E):
 ---------------
 A :16...26          ( 2.00    -0.5899)  ( 2.00    -0.5143)  ( 2.00    -0.4698)  ( 2.00    -0.4698)
                     ( 2.00    -0.4135)  ( 2.00    -0.4131)  ( 2.00    -0.4131)  ( 2.00    -0.3778)
                     ( 2.00    -0.3369)  ( 2.00    -0.3369)  ( 0.00    -0.0027)

 CYCLE    8
  SDIIS (wt  1.000):  0.0003  0.0015 -0.0051  0.0011  0.0163  0.3391  0.6469
  DIIS coefficients:  0.0003  0.0015 -0.0051  0.0011  0.0163  0.3391  0.6469
 SCF Error: norm([F,P])=      0.000108092815, max([F,P])=      0.000018442241
 orbitals (Q,E):
 ---------------
 A :16...26          ( 2.00    -0.5899)  ( 2.00    -0.5143)  ( 2.00    -0.4698)  ( 2.00    -0.4698)
                     ( 2.00    -0.4136)  ( 2.00    -0.4132)  ( 2.00    -0.4132)  ( 2.00    -0.3779)
                     ( 2.00    -0.3370)  ( 2.00    -0.3370)  ( 0.00    -0.0027)

 CYCLE    9
  SDIIS (wt  1.000):  0.0000  0.0000 -0.0002 -0.0007 -0.0013  0.0138  0.1276  0.8607
  DIIS coefficients:  0.0000  0.0000 -0.0002 -0.0007 -0.0013  0.0138  0.1276  0.8607
 SCF Error: norm([F,P])=      0.000016110235, max([F,P])=      0.000003857729
 orbitals (Q,E):
 ---------------
 A :16...26          ( 2.00    -0.5899)  ( 2.00    -0.5143)  ( 2.00    -0.4698)  ( 2.00    -0.4698)
                     ( 2.00    -0.4136)  ( 2.00    -0.4132)  ( 2.00    -0.4132)  ( 2.00    -0.3779)
                     ( 2.00    -0.3370)  ( 2.00    -0.3370)  ( 0.00    -0.0027)

 CYCLE   10
  SDIIS (wt  1.000):  0.0000 -0.0000  0.0001 -0.0002 -0.0007 -0.0055  0.0102  0.1524  0.8438
  DIIS coefficients:  0.0000 -0.0000  0.0001 -0.0002 -0.0007 -0.0055  0.0102  0.1524  0.8438
 SCF Error: norm([F,P])=      0.000001626206, max([F,P])=      0.000000407500
 orbitals (Q,E):
 ---------------
 A :16...26          ( 2.00    -0.5899)  ( 2.00    -0.5143)  ( 2.00    -0.4698)  ( 2.00    -0.4698)
                     ( 2.00    -0.4136)  ( 2.00    -0.4132)  ( 2.00    -0.4132)  ( 2.00    -0.3779)
                     ( 2.00    -0.3370)  ( 2.00    -0.3370)  ( 0.00    -0.0027)

 SCF CONVERGED
 cosmo_calcen: 0.5 (esolb+esolc) (Hartrees) =   -0.020255

 Solvation energy (screening term,uncorrected) =    -12.709921 kcal/mol

 Solvation energy (dispersion and cavitation terms) =      0.527568 kcal/mol
 Solvation Energy Contributions (Hartrees)
          esola   esolb+esolc
     0.02025455   -0.04050909
 esol last cycle   -0.02025455

 CYCLE   11
1
 ***************************************************************************************************



                                                *******************
                                                *  R E S U L T S  *
                                                *******************
  
  
 Hartree-Fock exchange energy:   -56.8023321011832     
 *** Using FIT density in Focky
  SDIIS (wt  1.000):  0.0000 -0.0000  0.0000 -0.0000 -0.0001 -0.0014 -0.0014  0.0123  0.1624  0.8283
  DIIS coefficients:  0.0000 -0.0000  0.0000 -0.0000 -0.0001 -0.0014 -0.0014  0.0123  0.1624  0.8283
 SCF Error: norm([F,P])=      0.000000360859, max([F,P])=      0.000000073709

 Orbital Energies, per Irrep and Spin:
 ======================================
                        Occup              E (au)              E (eV)       Diff (eV) with prev. cycle
                        -----      --------------------        ------       --------------------------
 A
              16        2.000     -0.58994378738807E+00       -16.053              -1.04E-06
              17        2.000     -0.51431906902176E+00       -13.995              -5.55E-07
              18        2.000     -0.46979890520039E+00       -12.784               1.87E-07
              19        2.000     -0.46979416992898E+00       -12.784              -1.12E-06
              20        2.000     -0.41356205167789E+00       -11.254              -6.25E-07
              21        2.000     -0.41315860094736E+00       -11.243              -4.27E-08
              22        2.000     -0.41315577217910E+00       -11.243              -9.56E-07
              23        2.000     -0.37785419667292E+00       -10.282              -4.65E-07
              24        2.000     -0.33696315084173E+00        -9.169              -5.94E-07
              25        2.000     -0.33696101365265E+00        -9.169              -7.07E-07
              26        0.000     -0.26821327025752E-02        -0.073
              27        0.000      0.42956824382274E-01         1.169
              28        0.000      0.42968504849905E-01         1.169
              29        0.000      0.96515755465922E-01         2.626
              30        0.000      0.12976081423130E+00         3.531
              31        0.000      0.12976819051314E+00         3.531
              32        0.000      0.13531911250269E+00         3.682
              33        0.000      0.16212758734067E+00         4.412
              34        0.000      0.16213175799490E+00         4.412
              35        0.000      0.17231085291962E+00         4.689
  
 HOMO :       25 A                -0.33696101365265E+00
 LUMO :       26 A                -0.26821327025752E-02
  
 cosmo_calcen: 0.5 (esolb+esolc) (Hartrees) =   -0.020255

 Solvation energy (screening term,uncorrected) =    -12.709922 kcal/mol

 Solvation energy (dispersion and cavitation terms) =      0.527568 kcal/mol
 Solvation Energy Contributions (Hartrees)
          esola   esolb+esolc
     0.02025455   -0.04050910
 esol last cycle   -0.02025455


 All Electron Calculation, thus no Orbital Energies of the Core Orbitals are calculated


 Fit test: (difference of exact and fit density, squared integrated, result summed over spins)
         Sum-of-Fragments:                             0.00000000403709
         Orthogonalized Fragments:                     0.00009832273839
         SCF:                                          0.00004791903018



 ==========================
 Electron Density at Nuclei
 ==========================
  
 The electron density is calculated at points on a small sphere around the center of a nucleus.
 The printed electron density is the average electron density on these points.
 The radius of the sphere is the printed approximate finite nuclear radius.

         Atom        Nuclear Radius (Angstrom)             Electron Density (a.u.)
         ----        -------------------------             -----------------------
     1)   P                 0.0000412627                             2177.25772
     2)   O                 0.0000345546                              310.05470
     3)   O                 0.0000345546                              310.05529
     4)   O                 0.0000345546                              310.05456
     5)   O                 0.0000345546                              310.35023
     6)   H                 0.0000181514                                0.45703
     7)   H                 0.0000181514                                0.45704
     8)   H                 0.0000181514                                0.45706



 =======================================
 M U L L I K E N   P O P U L A T I O N S
 =======================================
  
 The survey below gives for each atom:
 a) the total charge (Z minus electrons)
 b) the net spin polarization (nr of electrons spin-A minus spin-B)
 c) for each spin the atomic electron valence density (integrated) per L-value.

 Atom              Charge    Spin density          S         P         D         F
 ----              ------    ------------       ------    ------    ------    ------
 1 P               1.9402                       4.6010    7.6138    0.8450    0.0000
 2 O              -0.6504                       3.7965    4.8121    0.0419    0.0000
 3 O              -0.6504                       3.7965    4.8121    0.0419    0.0000
 4 O              -0.6506                       3.7965    4.8122    0.0419    0.0000
 5 O              -0.8519                       3.8644    4.9441    0.0434    0.0000
 6 H               0.2877                       0.6127    0.0997    0.0000    0.0000
 7 H               0.2877                       0.6126    0.0996    0.0000    0.0000
 8 H               0.2878                       0.6126    0.0996    0.0000    0.0000

 Populations of individual BAS functions
 ----------------------------------------
 1 P            0.5117  1.4522  1.3835  0.6319  0.7863  0.7863  0.7889  1.2176  1.2176  1.2140
                0.3713  0.5932 -0.3428  0.3584  0.3584  0.4036  0.2569  0.2569  0.1754 -0.0859
               -0.0859 -0.0347  0.0893  0.1383  0.2020  0.0893  0.2020  0.1241
 2 O            0.5800  1.4328 -0.0425  0.9926  0.8336  0.2244  0.2915  0.2806  0.9190  0.9872
                0.9694  0.1887  0.4977  0.4535  0.0313  0.0085  0.0158 -0.0141  0.0081 -0.0078
 3 O            0.5801  1.4328 -0.0425  0.9925  0.8337  0.2811  0.2348  0.2806  0.9760  0.9302
                0.9693  0.4520  0.2344  0.4536 -0.0015  0.0050  0.0082  0.0222  0.0157 -0.0078
 4 O            0.5800  1.4329 -0.0426  0.9925  0.8337  0.2683  0.2476  0.2806  0.9643  0.9419
                0.9693  0.3890  0.2976  0.4536 -0.0007  0.0054  0.0119  0.0210  0.0121 -0.0078
 5 O            0.5746  1.4363 -0.0401  0.9997  0.8939  0.2787  0.2787  0.2527  0.8856  0.8856
                0.8495  0.5725  0.5725  0.3685 -0.0082  0.0000  0.0141 -0.0082  0.0141  0.0315
 6 H            0.0236  0.1966  0.3925  0.0282  0.0373  0.0341
 7 H            0.0236  0.1965  0.3925  0.0344  0.0312  0.0341
 8 H            0.0237  0.1963  0.3926  0.0357  0.0298  0.0341

 Gross Charges per Atom (Z minus electrons)
 ==========================================
             1.9402   -0.6504   -0.6504   -0.6506   -0.8519    0.2877    0.2877    0.2878
 Net Total: -0.00000000


 Atom-Atom Population Matrix (off-diagonal elements not doubled)
 ===============================================================

     1 :    11.6305
     2 :     0.3148    8.0764
     3 :     0.3148   -0.0465    8.0765
     4 :     0.3148   -0.0465   -0.0465    8.0766
     5 :     0.6030   -0.0461   -0.0461   -0.0461    8.3928
     6 :    -0.0394    0.3880    0.0060    0.0043   -0.0019    0.3511
     7 :    -0.0394    0.0043    0.3880    0.0060   -0.0018    0.0021    0.3510
     8 :    -0.0394    0.0060    0.0043    0.3880   -0.0018    0.0021    0.0021    0.3510



 =================================================
 H I R S H F E L D   C H A R G E   A N A L Y S I S
 =================================================
  
 For each fragment: the (numerical) integral of rho(scf) * rho(fragment)/rho(sum-of-fragments)
 (nuclear charges are included, electrons are counted negative)

 The fragments and their ordering are defined in the early G E O M E T R Y output section.
 If you use single-atom fragments, this usually implies that all atoms of the same
 chemical type are grouped together. This may not be the order in which you listed them
 in the input file!

    1  P                         0.5297
    2  O                        -0.2360
    3  O                        -0.2360
    4  O                        -0.2360
    5  O                        -0.4500
    6  H                         0.2094
    7  H                         0.2094
    8  H                         0.2094

 Sum of these charges (accuracy NumInt/Tails) =          -0.00004063



 =============================
 V O R O N O I   C H A R G E S
 =============================
  
 For each atom: the (numerical) integral of the total electronic charge density in its Voronoi cell,
 i.e. the region of space that is closer to that atom than to any other atom.
 (cf. Wigner-Seitz cells in crystals)

 Within the Voronoi cell the subintegrals over the atomic sphere and the remaining part are evaluated
 separately to give the numbers of electrons (negative charge) in these regions.
 The net total charge in the cell (including the nuclear charge) is also given.

 Values are provided for
    a) the Initial (sum-of-fragments) density
    b) the Orthogonalized-Fragments density
    c) the SCF density
    d) the Voronoi Deformation Density (VDD): the difference SCF-Initial for the complete atomic cell


  Atom                Initial                    OrthFrag                   SCF
             Sphere RestCell NetTotal   Sphere RestCell NetTotal   Sphere RestCell NetTotal      VDD
 -----       ------------------------   ------------------------   ------------------------    -----
[...]
                                    2.83%     1 P:x            -9.963  1.33     5 O
                                    2.39%     1 P:y            -9.963  1.33     3 O
                                    2.18%     1 P:z            -9.963  1.33     4 O
                                    2.04%     1 P:y            -9.963  1.33     5 O
                                    1.68%     1 D:xz           11.944  0.00     1 P
     -10.282  2.00    23 A         24.88%     1 P:y            -9.963  1.33     2 O
                                   20.10%     1 P:x            -9.963  1.33     4 O
                                   17.26%     1 P:x            -9.963  1.33     3 O
                                    7.70%     1 P:y            -9.963  1.33     3 O
                                    5.10%     1 P:z            -9.963  1.33     2 O
                                    5.10%     1 P:z            -9.963  1.33     4 O
                                    5.10%     1 P:z            -9.963  1.33     3 O
                                    4.87%     1 P:y            -9.963  1.33     4 O
                                    4.32%     1 P:z            -9.963  1.33     5 O
                                    1.84%     1 D:z2           11.944  0.00     1 P
      -9.169  2.00    24 A         62.66%     1 P:y            -9.963  1.33     5 O
                                   11.50%     1 P:z            -9.963  1.33     4 O
                                    9.82%     1 P:x            -9.963  1.33     5 O
                                    5.22%     1 P:z            -9.963  1.33     2 O
                                    3.78%     1 D:yz           11.944  0.00     1 P
                                    1.65%     1 P:y            -9.963  1.33     2 O
                                    1.22%     1 P:z            -9.963  1.33     3 O
                                    1.19%     2 P:y            -5.669  1.00     1 P
      -9.169  2.00    25 A         62.66%     1 P:x            -9.963  1.33     5 O
                                   10.74%     1 P:z            -9.963  1.33     3 O
                                    9.82%     1 P:y            -9.963  1.33     5 O
                                    6.74%     1 P:z            -9.963  1.33     2 O
                                    3.78%     1 D:xz           11.944  0.00     1 P
                                    1.27%     1 P:x            -9.963  1.33     4 O
                                    1.19%     2 P:x            -5.669  1.00     1 P
                                    1.12%     1 P:y            -9.963  1.33     3 O
      -0.073  0.00    26 A         19.26%     1 S              -6.581  1.00     8 H
                                   19.26%     1 S              -6.581  1.00     7 H
                                   19.25%     1 S              -6.581  1.00     6 H
                                   17.66%     2 S               3.073  0.00     8 H
                                   17.66%     2 S               3.073  0.00     7 H
                                   17.65%     2 S               3.073  0.00     6 H
                                   -8.66%     4 S               3.844  0.00     1 P
                                   -1.60%     3 S              23.351  0.00     3 O
                                   -1.60%     3 S              23.351  0.00     4 O
                                   -1.60%     3 S              23.351  0.00     2 O
                                   -1.22%     3 S             -15.702  2.00     1 P
                                   -1.14%     3 S              23.351  0.00     5 O
       1.169  0.00    27 A         29.86%     1 S              -6.581  1.00     7 H
                                   27.74%     1 S              -6.581  1.00     8 H
                                   18.79%     2 S               3.073  0.00     7 H
                                   17.15%     2 S               3.073  0.00     8 H
                                   -3.21%     2 P:y            10.809  0.00     3 O
                                   -2.14%     2 P:y            10.809  0.00     4 O
                                    2.02%     1 P:y            12.104  0.00     7 H
                                    1.95%     3 P:y             2.910  0.00     1 P
                                    1.50%     1 P:x            12.104  0.00     8 H
                                   -1.25%     2 P:y            -5.669  1.00     1 P
                                    1.24%     4 P:y            25.147  0.00     1 P
       1.169  0.00    28 A         38.43%     1 S              -6.581  1.00     6 H
                                   23.97%     2 S               3.073  0.00     6 H
                                   10.64%     1 S              -6.581  1.00     8 H
                                    8.52%     1 S              -6.581  1.00     7 H
                                    6.82%     2 S               3.073  0.00     8 H
                                    5.18%     2 S               3.073  0.00     7 H
                                   -3.94%     2 P:x            10.809  0.00     2 O
                                    2.57%     1 P:x            12.104  0.00     6 H
                                    1.93%     3 P:x             2.910  0.00     1 P
                                   -1.25%     2 P:x            -5.669  1.00     1 P
                                    1.24%     4 P:x            25.147  0.00     1 P
                                   -1.10%     3 S              23.351  0.00     2 O
                                   -1.04%     2 P:x            10.809  0.00     4 O
       2.626  0.00    29 A         81.95%     3 P:z             2.910  0.00     1 P
                                   34.44%     2 P:z            -5.669  1.00     1 P
                                   -5.18%     2 P:z            10.809  0.00     2 O
                                   -5.18%     2 P:z            10.809  0.00     4 O
                                   -5.18%     2 P:z            10.809  0.00     3 O
                                   -4.14%     3 S              23.351  0.00     5 O
                                   -2.36%     2 P:z            10.809  0.00     5 O
                                    1.64%     1 D:z2           11.944  0.00     1 P
                                    1.30%     2 S             -27.149  2.00     5 O
                                   -1.21%     4 P:z            25.147  0.00     1 P
       3.531  0.00    30 A         66.34%     2 P:x            -5.669  1.00     1 P
                                   41.23%     3 P:x             2.910  0.00     1 P
                                  -10.02%     2 S               3.073  0.00     6 H
                                    9.55%     1 S              -6.581  1.00     6 H
                                   -8.79%     2 P:x            10.809  0.00     5 O
                                   -7.29%     2 P:y            10.809  0.00     3 O
                                    5.75%     1 P:x            -9.963  1.33     5 O
                                   -4.06%     2 P:x            10.809  0.00     4 O
                                   -3.42%     2 S               3.073  0.00     7 H
                                    2.91%     2 P:y            -5.669  1.00     1 P
                                   -2.68%     2 P:x            10.809  0.00     2 O
                                    2.61%     1 P:y            -9.963  1.33     3 O
                                    2.36%     1 S              -6.581  1.00     7 H
                                    2.26%     1 S              -6.581  1.00     8 H
                                    1.93%     1 D:xy           11.944  0.00     1 P
                                   -1.66%     2 S               3.073  0.00     8 H
                                    1.48%     1 P:x            -9.963  1.33     4 O
                                    1.47%     1 P:x            -9.963  1.33     2 O
                                   -1.46%     1 P:x            12.104  0.00     6 H
                                   -1.11%     1 P:y            12.104  0.00     7 H
                                    1.10%     1 D:xz           11.944  0.00     1 P
       3.531  0.00    31 A         66.32%     2 P:y            -5.669  1.00     1 P
                                   41.23%     3 P:y             2.910  0.00     1 P
                                   -8.79%     2 P:y            10.809  0.00     5 O
                                   -8.42%     2 S               3.073  0.00     8 H
                                   -7.33%     2 P:y            10.809  0.00     2 O
                                    7.21%     1 S              -6.581  1.00     8 H
                                    7.12%     1 S              -6.581  1.00     7 H
                                   -6.66%     2 S               3.073  0.00     7 H
                                    5.74%     1 P:y            -9.963  1.33     5 O
                                   -5.22%     2 P:x            10.809  0.00     4 O
                                    2.91%     2 P:x            -5.669  1.00     1 P
                                   -2.28%     2 P:x            10.809  0.00     3 O
                                    1.94%     1 D:x2-y2        11.944  0.00     1 P
                                    1.55%     1 P:y            -9.963  1.33     2 O
                                    1.40%     1 P:x            -9.963  1.33     3 O
                                    1.27%     1 P:y            -9.963  1.33     4 O
                                    1.10%     1 D:yz           11.944  0.00     1 P
       3.682  0.00    32 A         51.45%     3 S             -15.702  2.00     1 P
                                   22.04%     3 P:z             2.910  0.00     1 P
                                   12.13%     1 P:z            -9.963  1.33     5 O
                                   11.44%     1 D:z2           11.944  0.00     1 P
                                   -8.93%     2 P:z            10.809  0.00     5 O
                                    5.75%     2 P:z            -5.669  1.00     1 P
                                   -5.70%     3 S              23.351  0.00     5 O
                                    4.43%     4 S               3.844  0.00     1 P
                                    3.97%     1 S              -6.581  1.00     6 H
                                    3.92%     1 S              -6.581  1.00     8 H
                                    3.92%     1 S              -6.581  1.00     7 H
                                   -3.87%     2 P:x            10.809  0.00     2 O
                                   -3.15%     2 P:y            10.809  0.00     3 O
                                   -2.61%     2 P:y            10.809  0.00     4 O
                                    2.31%     1 P:y            -9.963  1.33     3 O
                                    2.31%     1 P:x            -9.963  1.33     2 O
                                    2.02%     2 S             -27.149  2.00     5 O
                                   -1.84%     5 S              37.721  0.00     1 P
                                   -1.82%     2 S               3.073  0.00     6 H
                                   -1.77%     2 S               3.073  0.00     8 H
                                   -1.77%     2 S               3.073  0.00     7 H
                                   -1.27%     2 P:x            10.809  0.00     4 O
                                    1.26%     1 P:x            -9.963  1.33     4 O
                                    1.20%     1 P:y            -9.963  1.33     4 O
       4.412  0.00    33 A         55.03%     3 P:y             2.910  0.00     1 P
                                   16.30%     2 P:y            -5.669  1.00     1 P
                                    4.87%     1 P:y            -9.963  1.33     5 O
                                    4.64%     1 D:x2-y2        11.944  0.00     1 P
                                    4.38%     1 P:x            -9.963  1.33     3 O
                                    4.13%     2 S               3.073  0.00     6 H
                                    3.15%     1 P:y            -9.963  1.33     4 O
                                   -2.75%     2 P:y            10.809  0.00     4 O
                                    2.57%     2 P:x            -5.669  1.00     1 P
                                    2.53%     1 P:z            -9.963  1.33     4 O
                                   -2.37%     3 P:x             2.910  0.00     1 P
                                    1.75%     1 D:xy           11.944  0.00     1 P
                                   -1.71%     3 S              23.351  0.00     4 O
                                    1.59%     3 S              43.508  0.00     7 H
                                    1.35%     1 S              -6.581  1.00     8 H
                                    1.32%     1 D:yz           11.944  0.00     1 P
                                   -1.32%     2 S               3.073  0.00     8 H
                                    1.15%     2 S             -27.149  2.00     4 O
                                    1.15%     1 S              -6.581  1.00     7 H
                                   -1.05%     3 S              23.351  0.00     3 O
       4.412  0.00    34 A         55.04%     3 P:x             2.910  0.00     1 P
                                   16.29%     2 P:x            -5.669  1.00     1 P
                                    4.87%     1 P:x            -9.963  1.33     5 O
                                    4.64%     1 D:xy           11.944  0.00     1 P
                                   -2.87%     2 S               3.073  0.00     6 H
                                    2.77%     1 P:x            -9.963  1.33     2 O
                                    2.58%     2 P:y            -5.669  1.00     1 P
                                    2.58%     2 S               3.073  0.00     8 H
                                   -2.37%     3 P:y             2.910  0.00     1 P
                                    2.19%     2 S               3.073  0.00     7 H
                                    2.08%     1 P:z            -9.963  1.33     2 O
                                    1.99%     1 P:y            -9.963  1.33     2 O
                                   -1.92%     2 P:x            10.809  0.00     3 O
                                   -1.84%     2 P:y            10.809  0.00     2 O
                                    1.83%     1 S              -6.581  1.00     6 H
                                   -1.82%     3 S              23.351  0.00     2 O
                                    1.75%     1 D:x2-y2        11.944  0.00     1 P
                                    1.70%     1 P:z            -9.963  1.33     3 O
                                    1.35%     3 S              43.508  0.00     6 H
                                    1.32%     1 P:y            -9.963  1.33     4 O
                                    1.32%     1 D:xz           11.944  0.00     1 P
                                    1.07%     1 P:x            -9.963  1.33     4 O
                                    1.06%     1 P:y            -9.963  1.33     3 O
                                    1.04%     3 S              43.508  0.00     8 H
       4.689  0.00    35 A         54.92%     3 S             -15.702  2.00     1 P
                                   14.53%     2 P:z            -5.669  1.00     1 P
                                  -13.29%     4 S               3.844  0.00     1 P
                                   10.90%     2 S               3.073  0.00     8 H
                                   10.90%     2 S               3.073  0.00     6 H
                                   10.89%     2 S               3.073  0.00     7 H
                                    5.13%     1 P:y            -9.963  1.33     4 O
                                    3.98%     1 P:x            -9.963  1.33     3 O
                                   -3.97%     2 P:y            10.809  0.00     4 O
                                    3.70%     1 P:x            -9.963  1.33     2 O
                                    3.62%     3 P:z             2.910  0.00     1 P
                                   -3.56%     2 P:x            10.809  0.00     2 O
                                    3.23%     2 S             -27.149  2.00     2 O
                                    3.23%     2 S             -27.149  2.00     3 O
                                    3.23%     2 S             -27.149  2.00     4 O
                                   -2.87%     3 S              23.351  0.00     2 O
                                   -2.87%     3 S              23.351  0.00     3 O
                                   -2.87%     3 S              23.351  0.00     4 O
                                   -2.64%     5 S              37.721  0.00     1 P
                                   -2.42%     2 P:x            10.809  0.00     3 O
                                    2.36%     1 D:z2           11.944  0.00     1 P
                                   -1.61%     2 P:y            10.809  0.00     3 O
                                    1.40%     1 P:y            -9.963  1.33     2 O
                                    1.12%     1 P:y            -9.963  1.33     3 O

 Energy gradients wrt nuclear displacements
 ==========================================

     Atom      Cartesian (a.u./angstrom)
                 X         Y         Z
 ----------------------------------------
     1 P    -0.000040 -0.000110 -0.000238
     2 O    -0.000102 -0.000100 -0.000005
     3 O     0.000157  0.000015 -0.000003
     4 O    -0.000064  0.000119  0.000054
     5 O     0.000002  0.000016  0.000113
     6 H     0.000025  0.000002  0.000014
     7 H     0.000044  0.000051  0.000021
     8 H    -0.000022  0.000007  0.000044
 ----------------------------------------



 =======================================================================
 Electrostatic potential at the Nuclei due to electrons and other nuclei
 =======================================================================
  
         Atom                  Potential
         ----                  ---------
     1)   P                  54.01842172
     2)   O                  22.29366667
     3)   O                  22.29365124
     4)   O                  22.29367826
     5)   O                  22.40003287
     6)   H                   0.91613114
     7)   H                   0.91611824
     8)   H                   0.91614748
 Mulliken charges used for AMS results%charges...


    =====================
     CALCULATION RESULTS
    =====================

Energy (hartree)            -2.23166804

Gradients (hartree/bohr)
  Index   Atom            d/dx            d/dy            d/dz
      1      P   -0.0000213884   -0.0000581014   -0.0001261904
      2      O   -0.0000539941   -0.0000530136   -0.0000025446
      3      O    0.0000831852    0.0000081049   -0.0000016991
      4      O   -0.0000338489    0.0000631314    0.0000283901
      5      O    0.0000012175    0.0000084306    0.0000597457
      6      H    0.0000131121    0.0000009642    0.0000076379
      7      H    0.0000231759    0.0000267517    0.0000113445
      8      H   -0.0000114593    0.0000037321    0.0000233159


--------------
Atomic charges
--------------
  Index   Atom    Charge
      1      P    1.9402
      2      O   -0.6504
      3      O   -0.6504
      4      O   -0.6506
      5      O   -0.8519
      6      H    0.2877
      7      H    0.2877
      8      H    0.2878


Dipole moment vector    (Debye):    -0.00030257   -0.00009586    0.86682885
              magnitude (Debye):     0.86682890


AMS application finished. Exiting.
NORMAL TERMINATION
     Total cpu time:     171.60
  Total system time:       2.21
 Total elapsed time:     176.76
