

 Parallel Execution: Process Information
 ==============================================================================
 Rank   Node Name                              NodeID   MyNodeRank  NodeMaster
    0   ubuntu-kch                                0          0          0
    1   ubuntu-kch                                0          1         -1
    2   ubuntu-kch                                0          2         -1
    3   ubuntu-kch                                0          3         -1
 ==============================================================================


May use up to 7570MB of RAM as shared memory on node 0

 *******************************************************************************
 *                                                                             *
 *  --------------------------------                                           *
 *   Amsterdam Modeling Suite (AMS)              2020.202                      *
 *  --------------------------------                                           *
 *                                               r90167 2020-12-05             *
 *                                                                             *
 *                                                                             *
 *                              =================                              *
 *                              |               |                              *
 *                              |     A M S     |                              *
 *                              |               |                              *
 *                              =================                              *
 *                                                                             *
 *                                                                             *
 *   Online information and documentation:  https://www.scm.com/support/       *
 *   E-mail:  support@scm.com   info@scm.com                                   *
 *                                                                             *
 *   Scientific publications using AMS results must be properly referenced     *
 *   See the User Manuals (or the web site) for recommended citations          *
 *   The terms and conditions of the End User License Agreement apply to       *
 *   the use of AMS, https://www.scm.com/license-terms/                        *
 *                                                                             *
 **********************  x86_64_linux_intel / intelmpi  ************************
 
 Licensed to: Dr. Miroslav Ilias / Matej Bel University, Department Chemistry, Fac. Natural Sciences / Banska Bystrica / SLOVAKIA
 SCM User ID: u17848
  
 AMS 2020.202  RunTime: Mar08-2021 18:29:24  Nodes: 1  Procs: 4

 AMS jobname: ams
 AMS jobid  : 611039301

 Start   directory: /home/milias/work/projects/open-collection/theoretical_chemistry/projects/nmr_diplomovky/reference_compounds/nitromethane/ams/b3lyp_tz2p_good/cosmo-h2o/tmp.milias.1587574.0.noindex/
 Results directory: /home/milias/work/projects/open-collection/theoretical_chemistry/projects/nmr_diplomovky/reference_compounds/nitromethane/ams/b3lyp_tz2p_good/cosmo-h2o/nitromethane.geopt_freq_nmr_shield_b3lyp_tz2p_good_cosmo-h2o.results/
 Scratch directory: /tmp/amstmp_ams_kid0.611039301/


 Communication costs MPI_COMM_WORLD:      0.264 usec per message,   0.0034 usec per 8-byte item
 Communication costs for intra-node:      0.270 usec per message,   0.0033 usec per 8-byte item

 RNG seed: 1979915569 -616037166 1974941382 2065023394 266582932 -433080361 1528058888 966372934



                        ********************************************************************
                        *  ADF 2020.202  RunTime: Mar08-2021 18:29:24  Nodes: 1  Procs: 4  *
                        ********************************************************************
  
       ***************************
       *  GEOMETRY OPTIMIZATION  *
       ***************************

Optimization Method                    Quasi Newton
Optimization Coordinates               Delocalized Coordinates
Optimize lattice                       F
 
 ------------------------------------------------------
 Convergence criteria (Hartree,Angstrom)
 ------------------------------------------------------
 Maximum gradient               0.001000000000
 Maximum rms gradient           0.000666666667
 Maximum step allowed           0.001000000000
 Maximum rms step allowed       0.000666666667
 Maximum energy change allowe   0.000070000000
 Maximum stress energy allowe   0.000500000000
 
Initial model Hessian                  Automatic Hessian
 
------------------------------------
Quasi-Newton Optimizer Parameters
------------------------------------
Hessian Update Method                  BFGS
Maximum number of steps                  250
First GDIIS cycle                          0
Maximum GDIIS vectors                      0
Trust radius (bohr)                        0.200000
Trust radius varies                        T
Constraints converged at all steps         T
Use projector                              T
 
 Rigid motions settings for: old optimizer
 Atomic rotations (x,y,z):     T T T
 Atomic translations (x,y,z):  T T T
 Tolerance:                   1.000000000000000E-006
 
--------
Geometry
--------
Atoms
  Index Symbol   x (angstrom)   y (angstrom)   z (angstrom)
      1      C     0.65570597     0.00927548    -0.00000000       adf.R=1.700
      2      N    -0.82082840     0.01667056    -0.00000000       adf.R=1.608
      3      O    -1.39012599     0.00515649     1.07216359       adf.R=1.517
      4      O    -1.39012599     0.00515649    -1.07216359       adf.R=1.517
      5      H     0.99611221     0.50074443     0.90389312       adf.R=1.350
      6      H     0.99611221     0.50074443    -0.90389312       adf.R=1.350
      7      H     0.95315001    -1.03774785    -0.00000000       adf.R=1.350
 
Total System Charge             0.00000
Bonding info available!
 
 
----------------
ADF Engine Input
----------------
 
 Basis
 Type TZ2P
 Core None
 End
 Save TAPE10
 XC
 Hybrid B3LYP
 End
 Relativity
 Level None
 End
 Solvation
 Surf Delley
 Solv name=Water cav0=0.0 cav1=0.0067639
 Charged method=CONJ
 C-Mat POT
 SCF VAR ALL
 CSMRSP
 End
 NumericalQuality Good
 

 Title: *** (NO TITLE) ***

Number of symmetry operators: 2
Schoenflies symbol:           C(S)
 Using automatic Hessian for delocalized coordinates.
 *** GOStep1 ***

 SOLVATION
-------------------------------------------

  The Delley construction of COSMO surface surface is calculated

       Division Level for Surface Triangles (NDIV)                  3
       Final Division Level for Triangles (NFDIV)                   1
       Radius of the Solvent (RSOL)                           1.93000 angstr
  Dielectric Constant (EPSL)                                 78.39000

       COSMO equation is solved iteratively-               conjugate-gradient

       Maximun of Iterations for Charges (NCIX)                  1000
       Criterion for Charge convergence (CCNV)                1.0E-08

  COSMO charges included variationally in SCF

       COSMO included at every SCF cycle

  Geometry-dependent empirical factor                         0.00000

  C-Matrix calculated in cspmtx

  In cspmtx, C-Matrix calculated using fitted potential

-------------------------------------------



 -------------------------------------------
  COSMO surface
  Area             =          292.667
  Volume           =          402.753
  Number of Points =          865
 -------------------------------------------



 ======================
 RI Hartree-Fock Scheme
 ======================
  
 Fit Set Quality     : GOOD
 Integration Quality : GOOD
 Threshold Quality   : GOOD
 Response Quality    : DEFAULT
 Is Range Separated  :  F
 
 RIHartreeFock Dependency: number of modified vectors:           3
 cosmo_calcen: 0.5 (esolb+esolc) (Hartrees) =   -0.016532

 Solvation energy (screening term,uncorrected) =    -10.373716 kcal/mol

 Solvation energy (dispersion and cavitation terms) =      0.547265 kcal/mol
 Solvation Energy Contributions (Hartrees)
          esola   esolb+esolc
     0.01653157   -0.03306313
 esol last cycle   -0.01653157
  
 Hartree-Fock exchange energy:   -29.1768056510048     
 cosmo_calcen: 0.5 (esolb+esolc) (Hartrees) =   -0.016532

 Solvation energy (screening term,uncorrected) =    -10.373718 kcal/mol

 Solvation energy (dispersion and cavitation terms) =      0.547265 kcal/mol
 Solvation Energy Contributions (Hartrees)
          esola   esolb+esolc
     0.01653157   -0.03306314
 esol last cycle   -0.01653157
  pauli hf:                              0.651439245229295         17.7266           408.78          1710.35
  elstat hf:                            -0.594643559641820        -16.1811          -373.14         -1561.24

 Energy gradients wrt nuclear displacements
 ==========================================

     Atom      Cartesian (a.u./angstrom)
                 X         Y         Z
 ----------------------------------------
     1 C    -0.013977  0.000506  0.000000
     2 N    -0.012457 -0.000749  0.000000
     3 O     0.013776  0.000238 -0.024734
     4 O     0.013776  0.000238  0.024734
     5 H    -0.000394  0.000316  0.001129
     6 H    -0.000394  0.000316 -0.001129
     7 H    -0.000330 -0.000867  0.000000
 ----------------------------------------
 Mulliken charges used for AMS results%charges...
 
----------------------------------------------------------------------
Geometry Convergence after Step   1       (Hartree/Angstrom,Angstrom)
----------------------------------------------------------------------
current energy                               -1.73506280 Hartree
energy change                      -1.73506280     0.00007000    F
constrained gradient max            0.02473434     0.00100000    F
constrained gradient rms            0.00965721     0.00066667    F
gradient max                        0.02473434
gradient rms                        0.00965721
cart. step max                      0.01121219     0.00100000    F
cart. step rms                      0.00553741     0.00066667    F
 
 
--------
Geometry
--------
Atoms
  Index Symbol   x (angstrom)   y (angstrom)   z (angstrom)
      1      C     0.66048055     0.00901037    -0.00000000       adf.R=1.700
      2      N    -0.82426773     0.01696671    -0.00000000       adf.R=1.608
      3      O    -1.40068714     0.00510680     1.08337578       adf.R=1.517
      4      O    -1.40068714     0.00510680    -1.08337578       adf.R=1.517
      5      H     1.00274731     0.50044005     0.90257607       adf.R=1.350
      6      H     1.00274731     0.50044005    -0.90257607       adf.R=1.350
      7      H     0.95966685    -1.03707078    -0.00000000       adf.R=1.350
 
Total System Charge             0.00000
Bonding info available!
 
 *** GOStep2 ***

 SOLVATION
-------------------------------------------

  The Delley construction of COSMO surface surface is calculated

       Division Level for Surface Triangles (NDIV)                  3
       Final Division Level for Triangles (NFDIV)                   1
       Radius of the Solvent (RSOL)                           1.93000 angstr
  Dielectric Constant (EPSL)                                 78.39000

       COSMO equation is solved iteratively-               conjugate-gradient

       Maximun of Iterations for Charges (NCIX)                  1000
       Criterion for Charge convergence (CCNV)                1.0E-08

  COSMO charges included variationally in SCF

       COSMO included at every SCF cycle

  Geometry-dependent empirical factor                         0.00000

  C-Matrix calculated in cspmtx

  In cspmtx, C-Matrix calculated using fitted potential

-------------------------------------------



 -------------------------------------------
  COSMO surface
  Area             =          294.036
  Volume           =          404.748
  Number of Points =          869
 -------------------------------------------



 ======================
 RI Hartree-Fock Scheme
 ======================
  
 Fit Set Quality     : GOOD
 Integration Quality : GOOD
 Threshold Quality   : GOOD
 Response Quality    : DEFAULT
 Is Range Separated  :  F
 
 RIHartreeFock Dependency: number of modified vectors:           3
 cosmo_calcen: 0.5 (esolb+esolc) (Hartrees) =   -0.016728

 Solvation energy (screening term,uncorrected) =    -10.497072 kcal/mol

 Solvation energy (dispersion and cavitation terms) =      0.549824 kcal/mol
 Solvation Energy Contributions (Hartrees)
          esola   esolb+esolc
     0.01672815   -0.03345629
 esol last cycle   -0.01672815
  
 Hartree-Fock exchange energy:   -29.1461016056272     
 cosmo_calcen: 0.5 (esolb+esolc) (Hartrees) =   -0.016728

 Solvation energy (screening term,uncorrected) =    -10.497071 kcal/mol

 Solvation energy (dispersion and cavitation terms) =      0.549824 kcal/mol
 Solvation Energy Contributions (Hartrees)
          esola   esolb+esolc
     0.01672815   -0.03345629
 esol last cycle   -0.01672815
  pauli hf:                              0.656816803499724         17.8729           412.16          1724.47
  elstat hf:                            -0.581843666812884        -15.8328          -365.11         -1527.63

 Energy gradients wrt nuclear displacements
 ==========================================

     Atom      Cartesian (a.u./angstrom)
                 X         Y         Z
 ----------------------------------------
     1 C    -0.005572  0.000612  0.000000
     2 N     0.010192  0.000153  0.000000
     3 O    -0.003407 -0.000218  0.009247
     4 O    -0.003407 -0.000218 -0.009247
     5 H     0.000764 -0.000123  0.000141
     6 H     0.000764 -0.000123 -0.000141
     7 H     0.000668 -0.000082  0.000000
 ----------------------------------------
 Mulliken charges used for AMS results%charges...

 dE(predicted):    -0.44053E-03, dE(actual):    -0.29857E-03, Trust radius:    0.200000, all in a.u.
 
----------------------------------------------------------------------
Geometry Convergence after Step   2       (Hartree/Angstrom,Angstrom)
----------------------------------------------------------------------
current energy                               -1.73536138 Hartree
energy change                      -0.00029857     0.00007000    F
constrained gradient max            0.01019245     0.00100000    F
constrained gradient rms            0.00397192     0.00066667    F
gradient max                        0.01019245
gradient rms                        0.00397192
cart. step max                      0.00372938     0.00100000    F
cart. step rms                      0.00129740     0.00066667    F
 
 
--------
Geometry
--------
Atoms
  Index Symbol   x (angstrom)   y (angstrom)   z (angstrom)
      1      C     0.66196125     0.00842390    -0.00000000       adf.R=1.700
      2      N    -0.82451673     0.01594700    -0.00000000       adf.R=1.608
      3      O    -1.40120392     0.00586996     1.07964640       adf.R=1.517
      4      O    -1.40120392     0.00586996    -1.07964640       adf.R=1.517
      5      H     1.00216561     0.50077280     0.90268027       adf.R=1.350
      6      H     1.00216561     0.50077280    -0.90268027       adf.R=1.350
      7      H     0.96063209    -1.03765641    -0.00000000       adf.R=1.350
 
Total System Charge             0.00000
Bonding info available!
 
 *** GOStep3 ***

 SOLVATION
-------------------------------------------

  The Delley construction of COSMO surface surface is calculated

       Division Level for Surface Triangles (NDIV)                  3
       Final Division Level for Triangles (NFDIV)                   1
       Radius of the Solvent (RSOL)                           1.93000 angstr
  Dielectric Constant (EPSL)                                 78.39000

       COSMO equation is solved iteratively-               conjugate-gradient

       Maximun of Iterations for Charges (NCIX)                  1000
       Criterion for Charge convergence (CCNV)                1.0E-08

  COSMO charges included variationally in SCF

       COSMO included at every SCF cycle

  Geometry-dependent empirical factor                         0.00000

  C-Matrix calculated in cspmtx

  In cspmtx, C-Matrix calculated using fitted potential

-------------------------------------------



 -------------------------------------------
  COSMO surface
  Area             =          293.838
  Volume           =          404.460
  Number of Points =          869
 -------------------------------------------



 ======================
 RI Hartree-Fock Scheme
 ======================
  
 Fit Set Quality     : GOOD
 Integration Quality : GOOD
 Threshold Quality   : GOOD
 Response Quality    : DEFAULT
 Is Range Separated  :  F
 
 RIHartreeFock Dependency: number of modified vectors:           3
 cosmo_calcen: 0.5 (esolb+esolc) (Hartrees) =   -0.016746

 Solvation energy (screening term,uncorrected) =    -10.508499 kcal/mol

 Solvation energy (dispersion and cavitation terms) =      0.549453 kcal/mol
 Solvation Energy Contributions (Hartrees)
          esola   esolb+esolc
     0.01674636   -0.03349272
 esol last cycle   -0.01674636
  
 Hartree-Fock exchange energy:   -29.1521104511639     
 cosmo_calcen: 0.5 (esolb+esolc) (Hartrees) =   -0.016746

 Solvation energy (screening term,uncorrected) =    -10.508499 kcal/mol

 Solvation energy (dispersion and cavitation terms) =      0.549453 kcal/mol
 Solvation Energy Contributions (Hartrees)
          esola   esolb+esolc
     0.01674636   -0.03349271
 esol last cycle   -0.01674636
  pauli hf:                              0.655994950758942         17.8505           411.64          1722.31
  elstat hf:                            -0.583984351928775        -15.8910          -366.46         -1533.25

 Energy gradients wrt nuclear displacements
 ==========================================

     Atom      Cartesian (a.u./angstrom)
                 X         Y         Z
 ----------------------------------------
     1 C    -0.004022  0.000764  0.000000
     2 N     0.004795 -0.000812  0.000000
     3 O    -0.001047  0.000175  0.000617
     4 O    -0.001047  0.000175 -0.000617
     5 H     0.000447 -0.000095  0.000059
     6 H     0.000447 -0.000095 -0.000059
     7 H     0.000426 -0.000113  0.000000
 ----------------------------------------
 Mulliken charges used for AMS results%charges...

 dE(predicted):    -0.38645E-04, dE(actual):    -0.51969E-04, Trust radius:    0.200000, all in a.u.
 
----------------------------------------------------------------------
Geometry Convergence after Step   3       (Hartree/Angstrom,Angstrom)
----------------------------------------------------------------------
current energy                               -1.73541334 Hartree
energy change                      -0.00005197     0.00007000    T
constrained gradient max            0.00479568     0.00100000    F
constrained gradient rms            0.00144797     0.00066667    F
gradient max                        0.00479568
gradient rms                        0.00144797
cart. step max                      0.00440923     0.00100000    F
cart. step rms                      0.00139498     0.00066667    F
 
 
--------
Geometry
--------
Atoms
  Index Symbol   x (angstrom)   y (angstrom)   z (angstrom)
      1      C     0.66317387     0.00870854    -0.00000000       adf.R=1.700
      2      N    -0.82535308     0.02035623    -0.00000000       adf.R=1.608
      3      O    -1.40063859     0.00353347     1.07924572       adf.R=1.517
      4      O    -1.40063859     0.00353347    -1.07924572       adf.R=1.517
      5      H     1.00266497     0.50104940     0.90281230       adf.R=1.350
      6      H     1.00266497     0.50104940    -0.90281230       adf.R=1.350
      7      H     0.95812645    -1.03823049    -0.00000000       adf.R=1.350
 
Total System Charge             0.00000
Bonding info available!
 
 *** GOStep4 ***

 SOLVATION
-------------------------------------------

  The Delley construction of COSMO surface surface is calculated

       Division Level for Surface Triangles (NDIV)                  3
       Final Division Level for Triangles (NFDIV)                   1
       Radius of the Solvent (RSOL)                           1.93000 angstr
  Dielectric Constant (EPSL)                                 78.39000

       COSMO equation is solved iteratively-               conjugate-gradient

       Maximun of Iterations for Charges (NCIX)                  1000
       Criterion for Charge convergence (CCNV)                1.0E-08

  COSMO charges included variationally in SCF

       COSMO included at every SCF cycle

  Geometry-dependent empirical factor                         0.00000

  C-Matrix calculated in cspmtx

  In cspmtx, C-Matrix calculated using fitted potential

-------------------------------------------



 -------------------------------------------
  COSMO surface
  Area             =          293.669
  Volume           =          404.278
  Number of Points =          865
 -------------------------------------------



 ======================
 RI Hartree-Fock Scheme
 ======================
  
 Fit Set Quality     : GOOD
 Integration Quality : GOOD
 Threshold Quality   : GOOD
 Response Quality    : DEFAULT
 Is Range Separated  :  F
 
 RIHartreeFock Dependency: number of modified vectors:           3
 cosmo_calcen: 0.5 (esolb+esolc) (Hartrees) =   -0.016695

 Solvation energy (screening term,uncorrected) =    -10.475981 kcal/mol

 Solvation energy (dispersion and cavitation terms) =      0.549138 kcal/mol
 Solvation Energy Contributions (Hartrees)
          esola   esolb+esolc
     0.01669454   -0.03338907
 esol last cycle   -0.01669454
  
 Hartree-Fock exchange energy:   -29.1532794223788     
 cosmo_calcen: 0.5 (esolb+esolc) (Hartrees) =   -0.016695

 Solvation energy (screening term,uncorrected) =    -10.475980 kcal/mol

 Solvation energy (dispersion and cavitation terms) =      0.549138 kcal/mol
 Solvation Energy Contributions (Hartrees)
          esola   esolb+esolc
     0.01669453   -0.03338907
 esol last cycle   -0.01669453
  pauli hf:                              0.655965271746705         17.8497           411.62          1722.24
  elstat hf:                            -0.584290311112494        -15.8993          -366.65         -1534.05

 Energy gradients wrt nuclear displacements
 ==========================================

     Atom      Cartesian (a.u./angstrom)
                 X         Y         Z
 ----------------------------------------
     1 C    -0.002046 -0.000943  0.000000
     2 N     0.000856  0.004062  0.000000
     3 O     0.000363 -0.001457 -0.001165
     4 O     0.000363 -0.001457  0.001165
     5 H    -0.000015 -0.000053  0.000041
     6 H    -0.000015 -0.000053 -0.000041
     7 H     0.000494 -0.000100  0.000000
 ----------------------------------------
 Mulliken charges used for AMS results%charges...

 dE(predicted):    -0.76463E-05, dE(actual):     0.41558E-05, Trust radius:    0.020000, all in a.u.
 
----------------------------------------------------------------------
Geometry Convergence after Step   4       (Hartree/Angstrom,Angstrom)
----------------------------------------------------------------------
current energy                               -1.73540919 Hartree
energy change                       0.00000416     0.00007000    T
constrained gradient max            0.00409914     0.00100000    F
constrained gradient rms            0.00119076     0.00066667    F
gradient max                        0.00409914
gradient rms                        0.00119076
cart. step max                      0.00441448     0.00100000    F
cart. step rms                      0.00151043     0.00066667    F
 
 
--------
Geometry
--------
Atoms
  Index Symbol   x (angstrom)   y (angstrom)   z (angstrom)
      1      C     0.66456568     0.00761600     0.00000000       adf.R=1.700
      2      N    -0.82637088     0.01594175     0.00000000       adf.R=1.608
      3      O    -1.40037603     0.00610364     1.07956149       adf.R=1.517
      4      O    -1.40037603     0.00610364    -1.07956149       adf.R=1.517
      5      H     1.00110152     0.50153273     0.90292909       adf.R=1.350
      6      H     1.00110152     0.50153273    -0.90292909       adf.R=1.350
      7      H     0.96035422    -1.03883047     0.00000000       adf.R=1.350
 
Total System Charge             0.00000
Bonding info available!
 
 *** GOStep5 ***

 SOLVATION
-------------------------------------------

  The Delley construction of COSMO surface surface is calculated

       Division Level for Surface Triangles (NDIV)                  3
       Final Division Level for Triangles (NFDIV)                   1
       Radius of the Solvent (RSOL)                           1.93000 angstr
  Dielectric Constant (EPSL)                                 78.39000

       COSMO equation is solved iteratively-               conjugate-gradient

       Maximun of Iterations for Charges (NCIX)                  1000
       Criterion for Charge convergence (CCNV)                1.0E-08

  COSMO charges included variationally in SCF

       COSMO included at every SCF cycle

  Geometry-dependent empirical factor                         0.00000

  C-Matrix calculated in cspmtx

  In cspmtx, C-Matrix calculated using fitted potential

-------------------------------------------



 -------------------------------------------
  COSMO surface
  Area             =          293.869
  Volume           =          404.526
  Number of Points =          869
 -------------------------------------------



 ======================
 RI Hartree-Fock Scheme
 ======================
  
 Fit Set Quality     : GOOD
 Integration Quality : GOOD
 Threshold Quality   : GOOD
 Response Quality    : DEFAULT
 Is Range Separated  :  F
 
 RIHartreeFock Dependency: number of modified vectors:           3
 cosmo_calcen: 0.5 (esolb+esolc) (Hartrees) =   -0.016647

 Solvation energy (screening term,uncorrected) =    -10.446282 kcal/mol

 Solvation energy (dispersion and cavitation terms) =      0.549513 kcal/mol
 Solvation Energy Contributions (Hartrees)
          esola   esolb+esolc
     0.01664721   -0.03329442
 esol last cycle   -0.01664721
  
 Hartree-Fock exchange energy:   -29.1532072150370     
 cosmo_calcen: 0.5 (esolb+esolc) (Hartrees) =   -0.016647

 Solvation energy (screening term,uncorrected) =    -10.446281 kcal/mol

 Solvation energy (dispersion and cavitation terms) =      0.549513 kcal/mol
 Solvation Energy Contributions (Hartrees)
          esola   esolb+esolc
     0.01664721   -0.03329441
 esol last cycle   -0.01664721
  pauli hf:                              0.656067389688195         17.8525           411.69          1722.50
  elstat hf:                            -0.584087511753746        -15.8938          -366.52         -1533.52

 Energy gradients wrt nuclear displacements
 ==========================================

     Atom      Cartesian (a.u./angstrom)
                 X         Y         Z
 ----------------------------------------
     1 C     0.000269  0.000124  0.000000
     2 N    -0.002507 -0.000622  0.000000
     3 O     0.001360  0.000183 -0.001304
     4 O     0.001360  0.000183  0.001304
     5 H    -0.000201  0.000054 -0.000031
     6 H    -0.000201  0.000054  0.000031
     7 H    -0.000080  0.000023  0.000000
 ----------------------------------------
 Mulliken charges used for AMS results%charges...

 dE(predicted):    -0.14661E-04, dE(actual):    -0.13560E-04, Trust radius:    0.040000, all in a.u.
 
----------------------------------------------------------------------
Geometry Convergence after Step   5       (Hartree/Angstrom,Angstrom)
----------------------------------------------------------------------
current energy                               -1.73542275 Hartree
energy change                      -0.00001356     0.00007000    T
constrained gradient max            0.00250651     0.00100000    F
constrained gradient rms            0.00081679     0.00066667    F
gradient max                        0.00250651
gradient rms                        0.00081679
cart. step max                      0.00117201     0.00100000    F
cart. step rms                      0.00051096     0.00066667    T
 
 
--------
Geometry
--------
Atoms
  Index Symbol   x (angstrom)   y (angstrom)   z (angstrom)
      1      C     0.66438619     0.00791608     0.00000000       adf.R=1.700
      2      N    -0.82597286     0.01629320     0.00000000       adf.R=1.608
      3      O    -1.40154804     0.00578486     1.07967043       adf.R=1.517
      4      O    -1.40154804     0.00578486    -1.07967043       adf.R=1.517
      5      H     1.00207261     0.50136002     0.90284184       adf.R=1.350
      6      H     1.00207261     0.50136002    -0.90284184       adf.R=1.350
      7      H     0.96053753    -1.03849902     0.00000000       adf.R=1.350
 
Total System Charge             0.00000
Bonding info available!
 
 *** GOStep6 ***

 SOLVATION
-------------------------------------------

  The Delley construction of COSMO surface surface is calculated

       Division Level for Surface Triangles (NDIV)                  3
       Final Division Level for Triangles (NFDIV)                   1
       Radius of the Solvent (RSOL)                           1.93000 angstr
  Dielectric Constant (EPSL)                                 78.39000

       COSMO equation is solved iteratively-               conjugate-gradient

       Maximun of Iterations for Charges (NCIX)                  1000
       Criterion for Charge convergence (CCNV)                1.0E-08

  COSMO charges included variationally in SCF

       COSMO included at every SCF cycle

  Geometry-dependent empirical factor                         0.00000

  C-Matrix calculated in cspmtx

  In cspmtx, C-Matrix calculated using fitted potential

-------------------------------------------



 -------------------------------------------
  COSMO surface
  Area             =          293.916
  Volume           =          404.588
  Number of Points =          869
 -------------------------------------------



 ======================
 RI Hartree-Fock Scheme
 ======================
  
 Fit Set Quality     : GOOD
 Integration Quality : GOOD
 Threshold Quality   : GOOD
 Response Quality    : DEFAULT
 Is Range Separated  :  F
 
 RIHartreeFock Dependency: number of modified vectors:           3
 cosmo_calcen: 0.5 (esolb+esolc) (Hartrees) =   -0.016702

 Solvation energy (screening term,uncorrected) =    -10.480758 kcal/mol

 Solvation energy (dispersion and cavitation terms) =      0.549600 kcal/mol
 Solvation Energy Contributions (Hartrees)
          esola   esolb+esolc
     0.01670215   -0.03340430
 esol last cycle   -0.01670215
  
 Hartree-Fock exchange energy:   -29.1516813122334     
 cosmo_calcen: 0.5 (esolb+esolc) (Hartrees) =   -0.016702

 Solvation energy (screening term,uncorrected) =    -10.480758 kcal/mol

 Solvation energy (dispersion and cavitation terms) =      0.549600 kcal/mol
 Solvation Energy Contributions (Hartrees)
          esola   esolb+esolc
     0.01670215   -0.03340430
 esol last cycle   -0.01670215
  pauli hf:                              0.656284110392327         17.8584           411.82          1723.07
  elstat hf:                            -0.583504762822692        -15.8780          -366.15         -1531.99

 Energy gradients wrt nuclear displacements
 ==========================================

     Atom      Cartesian (a.u./angstrom)
                 X         Y         Z
 ----------------------------------------
     1 C    -0.000278  0.000172  0.000000
     2 N     0.000714 -0.000303  0.000000
     3 O    -0.000308  0.000035  0.000117
     4 O    -0.000308  0.000035 -0.000117
     5 H     0.000050  0.000012 -0.000016
     6 H     0.000050  0.000012  0.000016
     7 H     0.000079  0.000038  0.000000
 ----------------------------------------
 Mulliken charges used for AMS results%charges...
 
---------------------------------------------------------
Geometry Convergence after Step   6       ** CONVERGED **
---------------------------------------------------------
current energy                               -1.73542365 Hartree
energy change                      -0.00000090     0.00007000    T
constrained gradient max            0.00071476     0.00100000    T
constrained gradient rms            0.00021025     0.00066667    T
gradient max                        0.00071476
gradient rms                        0.00021025
cart. step max                      0.00025982     0.00100000    T
cart. step rms                      0.00013310     0.00066667    T
 
Geometry optimization converged

Optimized geometry:
 
--------
Geometry
--------
Atoms
  Index Symbol   x (angstrom)   y (angstrom)   z (angstrom)
      1      C     0.66438619     0.00791608     0.00000000       adf.R=1.700
      2      N    -0.82597286     0.01629320     0.00000000       adf.R=1.608
      3      O    -1.40154804     0.00578486     1.07967043       adf.R=1.517
      4      O    -1.40154804     0.00578486    -1.07967043       adf.R=1.517
      5      H     1.00207261     0.50136002     0.90284184       adf.R=1.350
      6      H     1.00207261     0.50136002    -0.90284184       adf.R=1.350
      7      H     0.96053753    -1.03849902     0.00000000       adf.R=1.350
 
Total System Charge             0.00000
Bonding info available!
 
Performing a single point calculation on the final geometry ...

 *** adf ***



 ===========================
 A T T A C H E D   F I L E S
 ===========================
  
 Restart/tmp/amstmp_ams_kid0.611039301/GOStep6.rkf*** GOStep6 ***



 ===============================
 M O D E L   P A R A M E T E R S
 ===============================
  
 DENSITY FUNCTIONAL POTENTIAL (scf)
    Hybrid:                            B3LYP                                   == Not Default ==

 SPIN  (restricted / unrestr.)
    Molecule:                          Restricted                               
    Fragments:                         Restricted                               

 OTHER ASPECTS
    Relativistic Corrections:          ---                                     == Not Default ==

    Nuclear Charge Density Model:      Point Charge Nuclei                      
    Core Treatment:                    Frozen Orbital(s)                        

    Hyperfine or Zeeman Interaction:   ---                                      

 SOLVATION
-------------------------------------------

  The Delley construction of COSMO surface surface is calculated

       Division Level for Surface Triangles (NDIV)                  3
       Final Division Level for Triangles (NFDIV)                   1
       Radius of the Solvent (RSOL)                           1.93000 angstr
  Dielectric Constant (EPSL)                                 78.39000

       COSMO equation is solved iteratively-               conjugate-gradient

       Maximun of Iterations for Charges (NCIX)                  1000
       Criterion for Charge convergence (CCNV)                1.0E-08

  COSMO charges included variationally in SCF

       COSMO included at every SCF cycle

  Geometry-dependent empirical factor                         0.00000

  C-Matrix calculated in cspmtx

  In cspmtx, C-Matrix calculated using fitted potential

-------------------------------------------




 ===============
 G E O M E T R Y  ***  3D  Molecule  ***
 ===============
  

 ATOMS
 =====                            X Y Z                    CHARGE                     RADIUS
                                (Angstrom)             Nucl     +Core       At.Mass (Angstrom)
                       --------------------------    ----------------       ------- ----------
    1  C               0.6644    0.0079    0.0000      6.00      6.00       12.0000    1.7000
    2  N              -0.8260    0.0163    0.0000      7.00      7.00       14.0031    1.6080
    3  O              -1.4015    0.0058    1.0797      8.00      8.00       15.9949    1.5170
    4  O              -1.4015    0.0058   -1.0797      8.00      8.00       15.9949    1.5170
    5  H               1.0021    0.5014    0.9028      1.00      1.00        1.0078    1.3500
    6  H               1.0021    0.5014   -0.9028      1.00      1.00        1.0078    1.3500
    7  H               0.9605   -1.0385    0.0000      1.00      1.00        1.0078    1.3500


 FRAGMENTS
 =========                                     Atoms in this Fragment     Cart. coord.s (Angstrom)
                                               -------------------------------------------------------
    1  C                                                 1  C            0.6644    0.0079    0.0000
    2  N                                                 2  N           -0.8260    0.0163    0.0000
    3  O                                                 3  O           -1.4015    0.0058    1.0797
    4  O                                                 4  O           -1.4015    0.0058   -1.0797
    5  H                                                 5  H            1.0021    0.5014    0.9028
    6  H                                                 6  H            1.0021    0.5014   -0.9028
    7  H                                                 7  H            0.9605   -1.0385    0.0000


 Interatomic Distance Matrix (Angstrom)
 --------------------------------------

   1)     0.000
   2)     1.490   0.000
   3)     2.331   1.224   0.000
   4)     2.331   1.224   2.159   0.000
   5)     1.083   2.096   2.461   3.155   0.000
   6)     1.083   2.096   3.155   2.461   1.806   0.000
   7)     1.088   2.075   2.799   2.799   1.786   1.786   0.000

 Min. Distance =    1.0829
 Max. Distance =    3.1549



 =====================================
 S Y M M E T R Y ,   E L E C T R O N S
 =====================================
  
 Symmetry: C(S)

 Irreducible Representations, including subspecies
 -------------------------------------------------
 AA
 AAA

 Symmetry is NOT used when fitting density


 Configuration of Valence Electrons
 ==================================
 ( determined in the SCF procedure )

 Total:   32

 Net Charge: 0 (Nuclei minus Electrons)

 Aufbau principle for MO occupations will be applied through SCF cycle no.     150
 Thereafter, the program will assign electrons to MOs that are spatially
 similar to the occupied MOs in a "reference" cycle ("KeepOrbitals").
 The reference cycle is always the PREVIOUS cycle: it will evolve with
 the SCF procedure.
1
 ***************************************************************************************************



                                      ****************************************
                                      *  B U I L D : (Fragments, Functions)  *
                                      ****************************************
  



 =======
 S F O s  ***  (Symmetrized Fragment Orbitals)  ***
 =======
  
 SFOs are linear combinations of (valence) Fragment Orbitals (FOs), such that the SFOs transform as the
 irreducible representations of the (molecular) symmetry group. Each SFO is therefore characterized by
 an irrep of the molecule and by a few (or only one) generating FOs.
 The SFOs constitute a symmetry-adapted basis for the Fock matrix. The MO eigenvector coefficients in
 this basis provide a direct interpretation of the MOs in terms of Frontier Orbital Theory.

 The SFOs are combined with auxiliary Core Functions (CFs) to ensure orthogonalization on the (frozen)
 Core Orbitals (COs). The Core-orthogonalized SFOs (CSFOs) constitute the true Fock basis.

 The FOs, and hence also the (C)SFOs are combinations of the elementary basis functions (BAS). The basis
 functions that participate in the description of the SFOs depend on the irrep. The indices of the
 involved functions are printed below for each irrep.
 (The complete list of primitive basis functions is printed in another section)

 Total nr. of (C)SFOs (summation over all irreps) :   137

 NOTE: a (C)SFO that is defined as a combination of more than one FO is usually NOT normalized.



                                       === AA ===
 Nr. of SFOs :   81
 Cartesian basis functions that participate in this irrep (total number =   135) :
      1     2     3     4     5     6     7     9    10    12
     13    20    15    16    18    26    29    21    22    24
     27    31    32    33    34    35    36    37    39    40
     42    43    50    45    46    48    56    59    51    52
     54    57    61    91    62    92    63    93    64    94
     65    95    68    98    71   101    74   104    66    67
     96    97    69    70    99   100    72    73   102   103
     80   110    77    79   107   109    75    76    78   105
    106   108    90   120    86    89   116   119    83    85
     88   113   115   118    81    82    84    87   111   112
    114   117   121   133   122   134   123   135   126   138
    124   125   136   137   132   144   129   131   141   143
    127   128   130   139   140   142   145   146   147   148
    149   156   151   152   154

    SFO  (index         Fragment          Generating    Expansion in Fragment Orbitals
  indx  incl.CFs)   Occup   Orb.Energy   FragmentType  Coeff.   Orbital     on Fragment
 --------------------------------------------------------------------------------------
     1       1      2.000     -10.347 au  C             1.00      1 S               1
                        (    -281.545 eV)
     2       2      2.000      -0.564 au  C             1.00      2 S               1
                        (     -15.345 eV)
     3       3       --         0.402 au  C             1.00      3 S               1
                        (      10.943 eV)
     4       4       --         5.509 au  C             1.00      4 S               1
                        (     149.900 eV)
     5       5       --        50.546 au  C             1.00      5 S               1
                        (    1375.418 eV)
     6       6      0.667      -0.188 au  C             1.00      1 P:x             1
                        (      -5.110 eV)
     7       7       --         0.191 au  C             1.00      2 P:x             1
                        (       5.204 eV)
     8       8       --         2.089 au  C             1.00      3 P:x             1
                        (      56.851 eV)
     9       9      0.667      -0.188 au  C             1.00      1 P:y             1
                        (      -5.110 eV)
    10      10       --         0.191 au  C             1.00      2 P:y             1
                        (       5.204 eV)
    11      11       --         2.089 au  C             1.00      3 P:y             1
                        (      56.851 eV)
    12      12       --         1.292 au  C             1.00      1 D:z2            1
                        (      35.150 eV)
    13      13       --         1.292 au  C             1.00      1 D:x2-y2         1
                        (      35.150 eV)
    14      14       --         1.292 au  C             1.00      1 D:xy            1
                        (      35.150 eV)
    15      15       --         4.084 au  C             1.00      1 F:z2x           1
                        (     111.144 eV)
    16      16       --         4.084 au  C             1.00      1 F:z2y           1
                        (     111.144 eV)
    17      17       --         4.084 au  C             1.00      1 F:x             1
                        (     111.144 eV)
    18      18       --         4.084 au  C             1.00      1 F:y             1
                        (     111.144 eV)
    19      19      2.000     -14.485 au  N             1.00      1 S               2
                        (    -394.151 eV)
    20      20      2.000      -0.757 au  N             1.00      2 S               2
                        (     -20.602 eV)
    21      21       --         0.554 au  N             1.00      3 S               2
                        (      15.062 eV)
    22      22       --         6.997 au  N             1.00      4 S               2
                        (     190.406 eV)
    23      23       --        64.402 au  N             1.00      5 S               2
                        (    1752.467 eV)
    24      24      1.000      -0.270 au  N             1.00      1 P:x             2
                        (      -7.335 eV)
    25      25       --         0.311 au  N             1.00      2 P:x             2
                        (       8.457 eV)
    26      26       --         3.375 au  N             1.00      3 P:x             2
                        (      91.843 eV)
    27      27      1.000      -0.270 au  N             1.00      1 P:y             2
                        (      -7.335 eV)
    28      28       --         0.311 au  N             1.00      2 P:y             2
                        (       8.457 eV)
    29      29       --         3.375 au  N             1.00      3 P:y             2
                        (      91.843 eV)
    30      30       --         1.299 au  N             1.00      1 D:z2            2
                        (      35.360 eV)
    31      31       --         1.299 au  N             1.00      1 D:x2-y2         2
                        (      35.360 eV)
    32      32       --         1.299 au  N             1.00      1 D:xy            2
                        (      35.360 eV)
    33      33       --         4.088 au  N             1.00      1 F:z2x           2
                        (     111.240 eV)
    34      34       --         4.088 au  N             1.00      1 F:z2y           2
                        (     111.240 eV)
    35      35       --         4.088 au  N             1.00      1 F:x             2
                        (     111.240 eV)
    36      36       --         4.088 au  N             1.00      1 F:y             2
                        (     111.240 eV)
    37      37      2.000     -19.301 au  O             0.71      1 S               3
                        (    -525.210 eV)               0.71      1 S               4
    38      38      2.000      -0.971 au  O             0.71      2 S               3
                        (     -26.409 eV)               0.71      2 S               4
    39      39       --         0.840 au  O             0.71      3 S               3
                        (      22.860 eV)               0.71      3 S               4
    40      40       --        13.636 au  O             0.71      4 S               3
                        (     371.062 eV)               0.71      4 S               4
    41      41       --       123.736 au  O             0.71      5 S               3
                        (    3367.024 eV)               0.71      5 S               4
    42      42      1.333      -0.361 au  O             0.71      1 P:x             3
                        (      -9.826 eV)               0.71      1 P:x             4
    43      43       --         0.380 au  O             0.71      2 P:x             3
                        (      10.335 eV)               0.71      2 P:x             4
    44      44       --         3.936 au  O             0.71      3 P:x             3
                        (     107.096 eV)               0.71      3 P:x             4
    45      45      1.333      -0.361 au  O             0.71      1 P:y             3
                        (      -9.826 eV)               0.71      1 P:y             4
    46      46       --         0.380 au  O             0.71      2 P:y             3
                        (      10.335 eV)               0.71      2 P:y             4
    47      47       --         3.936 au  O             0.71      3 P:y             3
                        (     107.096 eV)               0.71      3 P:y             4
    48      48      1.333      -0.361 au  O             0.71      1 P:z             3
                        (      -9.826 eV)              -0.71      1 P:z             4
    49      49       --         0.380 au  O             0.71      2 P:z             3
                        (      10.335 eV)              -0.71      2 P:z             4
    50      50       --         3.936 au  O             0.71      3 P:z             3
                        (     107.096 eV)              -0.71      3 P:z             4
    51      51       --         1.117 au  O             0.71      1 D:z2            3
                        (      30.395 eV)               0.71      1 D:z2            4
    52      52       --         1.117 au  O             0.71      1 D:x2-y2         3
                        (      30.395 eV)               0.71      1 D:x2-y2         4
    53      53       --         1.117 au  O             0.71      1 D:xy            3
                        (      30.395 eV)               0.71      1 D:xy            4
    54      54       --         1.117 au  O             0.71      1 D:xz            3
                        (      30.395 eV)              -0.71      1 D:xz            4
    55      55       --         1.117 au  O             0.71      1 D:yz            3
                        (      30.395 eV)              -0.71      1 D:yz            4
    56      56       --         3.432 au  O             0.71      1 F:z3            3
                        (      93.388 eV)              -0.71      1 F:z3            4
    57      57       --         3.432 au  O             0.71      1 F:z             3
                        (      93.388 eV)              -0.71      1 F:z             4
    58      58       --         3.432 au  O             0.71      1 F:xyz           3
                        (      93.388 eV)              -0.71      1 F:xyz           4
    59      59       --         3.432 au  O             0.71      1 F:z2x           3
                        (      93.388 eV)               0.71      1 F:z2x           4
    60      60       --         3.432 au  O             0.71      1 F:z2y           3
                        (      93.388 eV)               0.71      1 F:z2y           4
    61      61       --         3.432 au  O             0.71      1 F:x             3
                        (      93.388 eV)               0.71      1 F:x             4
    62      62       --         3.432 au  O             0.71      1 F:y             3
                        (      93.388 eV)               0.71      1 F:y             4
    63      63      1.000      -0.244 au  H             0.71      1 S               5
                        (      -6.641 eV)               0.71      1 S               6
    64      64       --         0.104 au  H             0.71      2 S               5
                        (       2.836 eV)               0.71      2 S               6
    65      65       --         1.564 au  H             0.71      3 S               5
                        (      42.568 eV)               0.71      3 S               6
    66      66       --         0.436 au  H             0.71      1 P:x             5
                        (      11.864 eV)               0.71      1 P:x             6
    67      67       --         0.436 au  H             0.71      1 P:y             5
                        (      11.864 eV)               0.71      1 P:y             6
    68      68       --         0.436 au  H             0.71      1 P:z             5
                        (      11.864 eV)              -0.71      1 P:z             6
    69      69       --         2.618 au  H             0.71      1 D:z2            5
                        (      71.229 eV)               0.71      1 D:z2            6
    70      70       --         2.618 au  H             0.71      1 D:x2-y2         5
                        (      71.229 eV)               0.71      1 D:x2-y2         6
    71      71       --         2.618 au  H             0.71      1 D:xy            5
                        (      71.229 eV)               0.71      1 D:xy            6
    72      72       --         2.618 au  H             0.71      1 D:xz            5
                        (      71.229 eV)              -0.71      1 D:xz            6
    73      73       --         2.618 au  H             0.71      1 D:yz            5
                        (      71.229 eV)              -0.71      1 D:yz            6
    74      74      1.000      -0.244 au  H             1.00      1 S               7
                        (      -6.641 eV)
    75      75       --         0.104 au  H             1.00      2 S               7
                        (       2.836 eV)
    76      76       --         1.564 au  H             1.00      3 S               7
                        (      42.568 eV)
    77      77       --         0.436 au  H             1.00      1 P:x             7
                        (      11.864 eV)
    78      78       --         0.436 au  H             1.00      1 P:y             7
                        (      11.864 eV)
    79      79       --         2.618 au  H             1.00      1 D:z2            7
                        (      71.229 eV)
    80      80       --         2.618 au  H             1.00      1 D:x2-y2         7
                        (      71.229 eV)
    81      81       --         2.618 au  H             1.00      1 D:xy            7
                        (      71.229 eV)



                                       === AAA ===
 Nr. of SFOs :   56
 Cartesian basis functions that participate in this irrep (total number =   105) :
      8    11    14    17    19    30    23    25    28    38
     41    44    47    49    60    53    55    58    61    91
     62    92    63    93    64    94    65    95    68    98
     71   101    74   104    66    67    96    97    69    70
     99   100    72    73   102   103    80   110    77    79
    107   109    75    76    78   105   106   108    90   120
     86    89   116   119    83    85    88   113   115   118
     81    82    84    87   111   112   114   117   121   133
    122   134   123   135   126   138   124   125   136   137
    132   144   129   131   141   143   127   128   130   139
    140   142   150   153   155

    SFO  (index         Fragment          Generating    Expansion in Fragment Orbitals
  indx  incl.CFs)   Occup   Orb.Energy   FragmentType  Coeff.   Orbital     on Fragment
 --------------------------------------------------------------------------------------
     1       1      0.667      -0.188 au  C             1.00      1 P:z             1
                        (      -5.110 eV)
     2       2       --         0.191 au  C             1.00      2 P:z             1
                        (       5.204 eV)
     3       3       --         2.089 au  C             1.00      3 P:z             1
                        (      56.851 eV)
     4       4       --         1.292 au  C             1.00      1 D:xz            1
                        (      35.150 eV)
     5       5       --         1.292 au  C             1.00      1 D:yz            1
                        (      35.150 eV)
     6       6       --         4.084 au  C             1.00      1 F:z3            1
                        (     111.144 eV)
     7       7       --         4.084 au  C             1.00      1 F:z             1
                        (     111.144 eV)
     8       8       --         4.084 au  C             1.00      1 F:xyz           1
                        (     111.144 eV)
     9       9      1.000      -0.270 au  N             1.00      1 P:z             2
                        (      -7.335 eV)
    10      10       --         0.311 au  N             1.00      2 P:z             2
                        (       8.457 eV)
    11      11       --         3.375 au  N             1.00      3 P:z             2
                        (      91.843 eV)
    12      12       --         1.299 au  N             1.00      1 D:xz            2
                        (      35.360 eV)
    13      13       --         1.299 au  N             1.00      1 D:yz            2
                        (      35.360 eV)
    14      14       --         4.088 au  N             1.00      1 F:z3            2
                        (     111.240 eV)
    15      15       --         4.088 au  N             1.00      1 F:z             2
                        (     111.240 eV)
    16      16       --         4.088 au  N             1.00      1 F:xyz           2
                        (     111.240 eV)
    17      17      2.000     -19.301 au  O             0.71      1 S               3
                        (    -525.210 eV)              -0.71      1 S               4
    18      18      2.000      -0.971 au  O             0.71      2 S               3
                        (     -26.409 eV)              -0.71      2 S               4
    19      19       --         0.840 au  O             0.71      3 S               3
                        (      22.860 eV)              -0.71      3 S               4
    20      20       --        13.636 au  O             0.71      4 S               3
                        (     371.062 eV)              -0.71      4 S               4
    21      21       --       123.736 au  O             0.71      5 S               3
                        (    3367.024 eV)              -0.71      5 S               4
    22      22      1.333      -0.361 au  O             0.71      1 P:x             3
                        (      -9.826 eV)              -0.71      1 P:x             4
    23      23       --         0.380 au  O             0.71      2 P:x             3
                        (      10.335 eV)              -0.71      2 P:x             4
    24      24       --         3.936 au  O             0.71      3 P:x             3
                        (     107.096 eV)              -0.71      3 P:x             4
    25      25      1.333      -0.361 au  O             0.71      1 P:y             3
                        (      -9.826 eV)              -0.71      1 P:y             4
    26      26       --         0.380 au  O             0.71      2 P:y             3
                        (      10.335 eV)              -0.71      2 P:y             4
    27      27       --         3.936 au  O             0.71      3 P:y             3
                        (     107.096 eV)              -0.71      3 P:y             4
    28      28      1.333      -0.361 au  O             0.71      1 P:z             3
                        (      -9.826 eV)               0.71      1 P:z             4
    29      29       --         0.380 au  O             0.71      2 P:z             3
                        (      10.335 eV)               0.71      2 P:z             4
    30      30       --         3.936 au  O             0.71      3 P:z             3
                        (     107.096 eV)               0.71      3 P:z             4
    31      31       --         1.117 au  O             0.71      1 D:z2            3
                        (      30.395 eV)              -0.71      1 D:z2            4
    32      32       --         1.117 au  O             0.71      1 D:x2-y2         3
                        (      30.395 eV)              -0.71      1 D:x2-y2         4
    33      33       --         1.117 au  O             0.71      1 D:xy            3
                        (      30.395 eV)              -0.71      1 D:xy            4
    34      34       --         1.117 au  O             0.71      1 D:xz            3
                        (      30.395 eV)               0.71      1 D:xz            4
    35      35       --         1.117 au  O             0.71      1 D:yz            3
                        (      30.395 eV)               0.71      1 D:yz            4
    36      36       --         3.432 au  O             0.71      1 F:z3            3
                        (      93.388 eV)               0.71      1 F:z3            4
    37      37       --         3.432 au  O             0.71      1 F:z             3
                        (      93.388 eV)               0.71      1 F:z             4
    38      38       --         3.432 au  O             0.71      1 F:xyz           3
                        (      93.388 eV)               0.71      1 F:xyz           4
    39      39       --         3.432 au  O             0.71      1 F:z2x           3
                        (      93.388 eV)              -0.71      1 F:z2x           4
    40      40       --         3.432 au  O             0.71      1 F:z2y           3
                        (      93.388 eV)              -0.71      1 F:z2y           4
    41      41       --         3.432 au  O             0.71      1 F:x             3
                        (      93.388 eV)              -0.71      1 F:x             4
    42      42       --         3.432 au  O             0.71      1 F:y             3
                        (      93.388 eV)              -0.71      1 F:y             4
    43      43      1.000      -0.244 au  H             0.71      1 S               5
                        (      -6.641 eV)              -0.71      1 S               6
    44      44       --         0.104 au  H             0.71      2 S               5
                        (       2.836 eV)              -0.71      2 S               6
    45      45       --         1.564 au  H             0.71      3 S               5
                        (      42.568 eV)              -0.71      3 S               6
    46      46       --         0.436 au  H             0.71      1 P:x             5
                        (      11.864 eV)              -0.71      1 P:x             6
    47      47       --         0.436 au  H             0.71      1 P:y             5
                        (      11.864 eV)              -0.71      1 P:y             6
    48      48       --         0.436 au  H             0.71      1 P:z             5
                        (      11.864 eV)               0.71      1 P:z             6
    49      49       --         2.618 au  H             0.71      1 D:z2            5
                        (      71.229 eV)              -0.71      1 D:z2            6
    50      50       --         2.618 au  H             0.71      1 D:x2-y2         5
                        (      71.229 eV)              -0.71      1 D:x2-y2         6
    51      51       --         2.618 au  H             0.71      1 D:xy            5
                        (      71.229 eV)              -0.71      1 D:xy            6
    52      52       --         2.618 au  H             0.71      1 D:xz            5
                        (      71.229 eV)               0.71      1 D:xz            6
    53      53       --         2.618 au  H             0.71      1 D:yz            5
                        (      71.229 eV)               0.71      1 D:yz            6
    54      54       --         0.436 au  H             1.00      1 P:z             7
                        (      11.864 eV)
    55      55       --         2.618 au  H             1.00      1 D:xz            7
                        (      71.229 eV)
    56      56       --         2.618 au  H             1.00      1 D:yz            7
                        (      71.229 eV)



 ================================
 (Slater-type)  F U N C T I O N S  ***  (Basis and Fit)  ***
 ================================
  

 Atom Type    1  (C)
 ==============

 Valence Basis Sets:  10
 -----------------------
   1 S    7.680000
   1 S    5.000000
   2 S    1.280000
   2 S    2.100000
   2 S    4.600000
   2 P    0.820000
   2 P    1.480000
   2 P    2.940000
   3 D    2.200000
   4 F    3.300000

 Charge Fitting Sets (for the computation of the Coulomb Potential):  22
 -----------------------------------------------------------------------
   1 S   15.360000
   2 S   17.530000
   2 S   12.070000
   2 S    8.310000
   2 S    5.730000
   3 S    5.780000
   3 S    4.220000
   3 S    3.080000
   3 S    2.250000
   3 S    1.640000
   2 P    9.880000
   2 P    5.800000
   3 P    5.050000
   3 P    3.230000
   3 P    2.060000
   3 D    7.200000
   3 D    4.400000
   3 D    2.690000
   3 D    1.640000
   4 F    5.400000
   4 F    3.550000
   5 G    4.500000

 Atom Type    2  (N)
 ==============

 Valence Basis Sets:  10
 -----------------------
   1 S    8.740000
   1 S    5.900000
   2 S    5.150000
   2 S    2.500000
   2 S    1.500000
   2 P    3.680000
   2 P    1.880000
   2 P    1.000000
   3 D    2.200000
   4 F    3.300000

 Charge Fitting Sets (for the computation of the Coulomb Potential):  22
 -----------------------------------------------------------------------
   1 S   17.480000
   2 S   20.150000
   2 S   13.990000
   2 S    9.710000
   2 S    6.740000
   3 S    6.860000
   3 S    5.040000
   3 S    3.700000
   3 S    2.720000
   3 S    2.000000
   2 P   11.320000
   2 P    6.730000
   3 P    5.920000
   3 P    3.820000
   3 P    2.460000
   3 D    8.100000
   3 D    5.080000
   3 D    3.190000
   3 D    2.000000
   4 F    5.800000
   4 F    3.600000
   5 G    4.500000

 Atom Type    3  (O)
 ==============

 Valence Basis Sets:  10
 -----------------------
   1 S    9.800000
   1 S    6.800000
   2 S    7.580000
   2 S    2.880000
   2 S    1.720000
   2 P    4.080000
   2 P    2.080000
   2 P    1.120000
   3 D    2.000000
   4 F    3.000000

 Charge Fitting Sets (for the computation of the Coulomb Potential):  22
 -----------------------------------------------------------------------
   1 S   19.600000
   2 S   22.600000
   2 S   15.680000
   2 S   10.890000
   2 S    7.560000
   3 S    7.690000
   3 S    5.650000
   3 S    4.150000
   3 S    3.050000
   3 S    2.240000
   2 P   12.860000
   2 P    7.680000
   3 P    6.780000
   3 P    4.390000
   3 P    2.840000
   3 D    8.800000
   3 D    5.580000
   3 D    3.530000
   3 D    2.240000
   4 F    6.200000
   4 F    3.700000
   5 G    4.500000

 Atom Type    4  (H)
 ==============

 Valence Basis Sets:   5
 -----------------------
   1 S    0.690000
   1 S    0.920000
   1 S    1.580000
   2 P    1.250000
   3 D    2.500000

 Charge Fitting Sets (for the computation of the Coulomb Potential):  11
 -----------------------------------------------------------------------
   1 S    3.160000
   1 S    2.090000
   1 S    1.380000
   2 S    1.500000
   2 P    4.000000
   2 P    2.650000
   2 P    1.750000
   3 D    4.000000
   3 D    2.500000
   4 F    3.000000
   5 G    4.000000


 BAS: List of all Elementary Cartesian Basis Functions
 =====================================================

 The numbering in the list below (to the right of the function characteristics) is referred
 to in print-outs of MO eigenvectors and Mulliken populations in the BAS representation
 (as contrasted to the SFO representation).

 Notes:
 1. The functions are characterized by a polynomial prefactor (powers of x,y,z and r) and
    an exponential decay factor alpha.
 2. Since the basis sets are specific for an atom TYPE, the individual functions occur on
    all atoms of that type.
 3. The word 'Core' in the left margin signals that it is a Core Function (CF) : not a
    degree of freedom in the valence set, but only used to ensure orthogonalization of
    the other valence basis functions on the frozen Core Orbitals.


 (power of) X  Y  Z  R     Alpha  on Atom
            ==========     =====     ==========

 C                                    1
                                  ---------------------------------------------------------------------------
            0  0  0  0     7.680      1
            0  0  0  0     5.000      2
            0  0  0  1     1.280      3
            0  0  0  1     2.100      4
            0  0  0  1     4.600      5
            1  0  0  0     0.820      6
            0  1  0  0     0.820      7
            0  0  1  0     0.820      8
            1  0  0  0     1.480      9
            0  1  0  0     1.480     10
            0  0  1  0     1.480     11
            1  0  0  0     2.940     12
            0  1  0  0     2.940     13
            0  0  1  0     2.940     14
            2  0  0  0     2.200     15
            1  1  0  0     2.200     16
            1  0  1  0     2.200     17
            0  2  0  0     2.200     18
            0  1  1  0     2.200     19
            0  0  2  0     2.200     20
            3  0  0  0     3.300     21
            2  1  0  0     3.300     22
            2  0  1  0     3.300     23
            1  2  0  0     3.300     24
            1  1  1  0     3.300     25
            1  0  2  0     3.300     26
            0  3  0  0     3.300     27
            0  2  1  0     3.300     28
            0  1  2  0     3.300     29
            0  0  3  0     3.300     30

 N                                    2
                                  ---------------------------------------------------------------------------
            0  0  0  0     8.740     31
            0  0  0  0     5.900     32
            0  0  0  1     5.150     33
            0  0  0  1     2.500     34
            0  0  0  1     1.500     35
            1  0  0  0     3.680     36
            0  1  0  0     3.680     37
            0  0  1  0     3.680     38
            1  0  0  0     1.880     39
            0  1  0  0     1.880     40
            0  0  1  0     1.880     41
            1  0  0  0     1.000     42
            0  1  0  0     1.000     43
            0  0  1  0     1.000     44
            2  0  0  0     2.200     45
            1  1  0  0     2.200     46
            1  0  1  0     2.200     47
            0  2  0  0     2.200     48
            0  1  1  0     2.200     49
            0  0  2  0     2.200     50
            3  0  0  0     3.300     51
            2  1  0  0     3.300     52
            2  0  1  0     3.300     53
            1  2  0  0     3.300     54
            1  1  1  0     3.300     55
            1  0  2  0     3.300     56
            0  3  0  0     3.300     57
            0  2  1  0     3.300     58
            0  1  2  0     3.300     59
            0  0  3  0     3.300     60

 O                                    3    4
                                  ---------------------------------------------------------------------------
            0  0  0  0     9.800     61   91
            0  0  0  0     6.800     62   92
            0  0  0  1     7.580     63   93
            0  0  0  1     2.880     64   94
            0  0  0  1     1.720     65   95
            1  0  0  0     4.080     66   96
            0  1  0  0     4.080     67   97
            0  0  1  0     4.080     68   98
            1  0  0  0     2.080     69   99
            0  1  0  0     2.080     70  100
            0  0  1  0     2.080     71  101
            1  0  0  0     1.120     72  102
            0  1  0  0     1.120     73  103
            0  0  1  0     1.120     74  104
            2  0  0  0     2.000     75  105
            1  1  0  0     2.000     76  106
            1  0  1  0     2.000     77  107
            0  2  0  0     2.000     78  108
            0  1  1  0     2.000     79  109
            0  0  2  0     2.000     80  110
            3  0  0  0     3.000     81  111
            2  1  0  0     3.000     82  112
            2  0  1  0     3.000     83  113
            1  2  0  0     3.000     84  114
            1  1  1  0     3.000     85  115
            1  0  2  0     3.000     86  116
            0  3  0  0     3.000     87  117
            0  2  1  0     3.000     88  118
            0  1  2  0     3.000     89  119
            0  0  3  0     3.000     90  120

 H                                    5    6    7
                                  ---------------------------------------------------------------------------
            0  0  0  0     0.690    121  133  145
            0  0  0  0     0.920    122  134  146
            0  0  0  0     1.580    123  135  147
            1  0  0  0     1.250    124  136  148
            0  1  0  0     1.250    125  137  149
            0  0  1  0     1.250    126  138  150
            2  0  0  0     2.500    127  139  151
            1  1  0  0     2.500    128  140  152
            1  0  1  0     2.500    129  141  153
            0  2  0  0     2.500    130  142  154
            0  1  1  0     2.500    131  143  155
            0  0  2  0     2.500    132  144  156

 Total number of charge fitting functions (nprimf)       486
 Total number of Cartesian basis functions (naos)        156
 Total number of Cartesian core functions  (ncos)          0

1
 ***************************************************************************************************



                                              ***********************
                                              *  T E C H N I C A L  *
                                              ***********************
  



 =============================================================
 P A R A L L E L I Z A T I O N  and  V E C T O R I Z A T I O N
 =============================================================
  
 Nr of parallel processes:                                4
 Maximum vector length in NumInt loops:                 128



 =====================
 S C F   U P D A T E S
 =====================
  
 Max. nr. of cycles:                               300
 Convergence criterion:                              0.0000010000
   secondary criterion:                              0.0010000000

 Mix parameter (when DIIS does not apply):           0.2000000000
 Mixed ADIIS+SDIIS will be used                  
    Max number of expansion vectors:                10
    Pure ADIIS when Max([F,P]) is above              0.1000000000
    Pure SDIIS when Max([F,P]) is below              0.0010000000
 Automatic ElectronSmearing (in case of problematic SCF convergence) disabled



 =================
 P R E C I S I O N  ***  (General: NumInt, NeglectFunctionTails, ...)  ***
 =================
  

 NumInt:           Target precision:                 6.0000000000
 -------           Initial precision:                6.0000000000
                   Min. precision (optimization):    6.0000000000

 Neglect Functions:          Basis functions:        0.1000000000E-07
 ------------------          Fit functions:          0.1000000000E-07



 ===========================
 L I N E A R   S C A L I N G
 ===========================
  

 Cut-off radii density fit:                        0.1000000000E-09
 Overlap cut-off criterion AO matrix elements:     0.1000000000E-07
 Cut-offs for Coulomb potential and fitted density:0.1000000000E-09
 Cut-off criterion for Coulomb multipole terms:    0.1000000000E-09
 Progressive Convergence parameter:                 0.000000000    

 Number of elements of the density matrix on this node (used, total):      3270     12246



 ===========================================
 Numerical Integration : Fuzzy Cells (Becke)
 ===========================================
  
 Becke grid quality: GOOD           
  
 Lebedev angular grid order:             min:  11 max:  31
 Nr. of radial points:                   min:  54 max:  61

 Total nr. of points:      89392
 Nr. of blocks:              700
 Block length:               128
 Nr. of dummy points:        208


 Test of Precision of the Numerical Integration Grid
 ===================================================

 Integral of the Total Core Density:                   0.00000000000000


 -------------------------------------------
  COSMO surface
  Area             =          293.916
  Volume           =          404.588
  Number of Points =          869
 -------------------------------------------



 ========================
 Density Fitting (zlmFit)
 ========================
  
 ZlmFit Fit Quality: GOOD           
  
 Max L-expansion:                        min:   8 max:   9
 Nr. of radial interpolation points:     min:  78 max: 108



 ======================
 RI Hartree-Fock Scheme
 ======================
  
 Fit Set Quality     : GOOD
 Integration Quality : GOOD
 Threshold Quality   : GOOD
 Response Quality    : DEFAULT
 Is Range Separated  :  F
 
 RIHartreeFock Dependency: number of modified vectors:           3



 =====
 S C F  ***  ScaSCF  ***
 =====
  
 Initial density matrix is taken from previous geometry

 CYCLE    1
  ***********************************************************
  ** : orbital data taken from :/tmp/amstmp_ams_kid0.611039301/GOStep6.rkf
  ***********************************************************
 SCF Error: norm([F,P])=      0.077526074749, max([F,P])=      0.026529533955
 orbitals (Q,E):
 ---------------
 AA :1...20          ( 2.00   -19.1571)  ( 2.00   -14.5715)  ( 2.00   -10.2613)  ( 2.00    -1.2403)
                     ( 2.00    -0.8383)  ( 2.00    -0.6370)  ( 2.00    -0.5638)  ( 2.00    -0.5489)
                     ( 2.00    -0.4539)  ( 2.00    -0.3176)  ( 0.00    -0.0820)  ( 0.00    -0.0044)
                     ( 0.00     0.0512)  ( 0.00     0.0565)  ( 0.00     0.1366)  ( 0.00     0.1583)
                     ( 0.00     0.2795)  ( 0.00     0.2996)  ( 0.00     0.3238)  ( 0.00     0.3583)
 AAA :1...16         ( 2.00   -19.1571)  ( 2.00    -1.0622)  ( 2.00    -0.5262)  ( 2.00    -0.4701)
                     ( 2.00    -0.3196)  ( 2.00    -0.2974)  ( 0.00     0.0507)  ( 0.00     0.1484)
                     ( 0.00     0.2315)  ( 0.00     0.3575)  ( 0.00     0.4189)  ( 0.00     0.4545)
                     ( 0.00     0.5377)  ( 0.00     0.6373)  ( 0.00     0.8047)  ( 0.00     0.8374)

 CYCLE    2
  SDIIS (wt  0.000):  0.6454  0.3546
 A-DIIS (wt  1.000):  0.6476  0.3524
  DIIS coefficients:  0.6476  0.3524
 SCF Error: norm([F,P])=      0.133434218818, max([F,P])=      0.056288664598
 orbitals (Q,E):
 ---------------
 AA :1...11          ( 2.00   -19.1771)  ( 2.00   -14.5553)  ( 2.00   -10.2387)  ( 2.00    -1.2410)
                     ( 2.00    -0.8252)  ( 2.00    -0.6321)  ( 2.00    -0.5578)  ( 2.00    -0.5495)
                     ( 2.00    -0.4398)  ( 2.00    -0.3255)  ( 0.00    -0.0835)
 AAA :1...7          ( 2.00   -19.1771)  ( 2.00    -1.0674)  ( 2.00    -0.5326)  ( 2.00    -0.4574)
                     ( 2.00    -0.3305)  ( 2.00    -0.3088)  ( 0.00     0.0620)

 CYCLE    3
  SDIIS (wt  0.000):  0.4326  0.1613  0.4061
 A-DIIS (wt  1.000):  0.3147  0.0000  0.6853
  DIIS coefficients:  0.3147  0.0000  0.6853
 SCF Error: norm([F,P])=      0.050139773212, max([F,P])=      0.012896236141
 orbitals (Q,E):
 ---------------
 AA :1...11          ( 2.00   -19.1688)  ( 2.00   -14.5724)  ( 2.00   -10.2336)  ( 2.00    -1.2448)
                     ( 2.00    -0.8225)  ( 2.00    -0.6298)  ( 2.00    -0.5586)  ( 2.00    -0.5492)
                     ( 2.00    -0.4310)  ( 2.00    -0.3271)  ( 0.00    -0.0861)
 AAA :1...7          ( 2.00   -19.1688)  ( 2.00    -1.0696)  ( 2.00    -0.5356)  ( 2.00    -0.4489)
                     ( 2.00    -0.3317)  ( 2.00    -0.3099)  ( 0.00     0.0711)

 CYCLE    4
  SDIIS (wt  0.792): -0.4284  0.2251  1.2034
 A-DIIS (wt  0.208):  0.0000  0.0000  1.0000
  DIIS coefficients: -0.3394  0.1783  1.1611
 SCF Error: norm([F,P])=      0.047441159540, max([F,P])=      0.021573869568
 orbitals (Q,E):
 ---------------
 AA :1...11          ( 2.00   -19.1785)  ( 2.00   -14.5596)  ( 2.00   -10.2248)  ( 2.00    -1.2446)
                     ( 2.00    -0.8156)  ( 2.00    -0.6289)  ( 2.00    -0.5555)  ( 2.00    -0.5470)
                     ( 2.00    -0.4225)  ( 2.00    -0.3311)  ( 0.00    -0.0860)
 AAA :1...7          ( 2.00   -19.1785)  ( 2.00    -1.0720)  ( 2.00    -0.5399)  ( 2.00    -0.4408)
                     ( 2.00    -0.3374)  ( 2.00    -0.3155)  ( 0.00     0.0800)

 CYCLE    5
  SDIIS (wt  0.926): -0.1288 -0.0675  0.5989  0.5975
 A-DIIS (wt  0.074):  0.0000  0.0000  0.0000  1.0000
  DIIS coefficients: -0.1193 -0.0625  0.5545  0.6273
 SCF Error: norm([F,P])=      0.022475416734, max([F,P])=      0.008331785643
 orbitals (Q,E):
 ---------------
[...]
 
NMR
    out    iso    tens
    adfgui
    Atoms 2
    u1k best
    calc all
End

 *******************************************************************************
 *                                                                             *
 *  --------------------------------                                           *
 *   Amsterdam Modeling Suite (AMS)              2020.202                      *
 *  --------------------------------                                           *
 *                                               r90167 2020-12-05             *
 *                                                                             *
 *                                                                             *
 *                              =================                              *
 *                              |               |                              *
 *                              |     N M R     |                              *
 *                              |               |                              *
 *                              =================                              *
 *                                                                             *
 *                                                                             *
 *   Online information and documentation:  https://www.scm.com/support/       *
 *   E-mail:  support@scm.com   info@scm.com                                   *
 *                                                                             *
 *   Scientific publications using AMS results must be properly referenced     *
 *   See the User Manuals (or the web site) for recommended citations          *
 *   The terms and conditions of the End User License Agreement apply to       *
 *   the use of AMS, https://www.scm.com/license-terms/                        *
 *                                                                             *
 **********************  x86_64_linux_intel / intelmpi  ************************
 
 Licensed to: Dr. Miroslav Ilias / Matej Bel University, Department Chemistry, Fac. Natural Sciences / Banska Bystrica / SLOVAKIA
 SCM User ID: u17848
  
 NMR 2020.202  RunTime: Mar08-2021 18:50:41  Nodes: 1  Procs: 4

 Temporary files are created in /tmp/kid_0.152376436 (0xEF53)


 Communication costs MPI_COMM_WORLD:      0.290 usec per message,   0.0034 usec per 8-byte item
 Communication costs for intra-node:      0.276 usec per message,   0.0034 usec per 8-byte item




 ======================
 RI Hartree-Fock Scheme
 ======================
  
 Fit Set Quality     : GOOD
 Integration Quality : GOOD
 Threshold Quality   : GOOD
 Response Quality    : DEFAULT
 Is Range Separated  :  F
 
 RIHartreeFock Dependency: number of modified vectors:           0
                    
                      **********************************    
                      ||******************************||    
                      ||                              ||    
                      ||  ##   ##  ###  ###  ######   ||    
                      ||  ###  ##  ########  ##   ##  ||    
                      ||  #### ##  ## ## ##  ######   ||    
                      ||  ## ####  ##    ##  ## ##    ||    
                      ||  ##  ###  ##    ##  ##  ##   ||    
                      ||  ##   ##  ##    ##  ##   ##  ||    
                      ||                              ||    
                      | ****************************** |    
                      **********************************    
                    
                            Written for ADF by              
                    
                    Stephen K. Wolff & Georg Schreckenbach  
                    
                      The research group of Tom Ziegler     
                            University of Calgary           
                               Alberta, Canada              
                    
                      Speedups, NBO analysis, g-tensors,    
                       full ZORA SO, and other goodies by   
                         Jochen Autschbach, SUNY Buffalo
                    
 =============================
 NMR Chemical shift References
 =============================
  
 Lead:
 G. Schreckenbach, T. Ziegler, J. Phys. Chem. 99 (1995) 606
  
 Speed-ups:
 J. Autschbach, E. Zurek, J. Phys. Chem. A 107 (2003), 4967
  
 Hybrids:
 M. Krykunov, T. Ziegler, E. van Lenthe, Int. J. of Quantum Chem. 109, 1676 (2009)
  
 Spin-orbit coupling:
 S.K. Wolff, T. Ziegler, E. van Lenthe, E.J. Baerends, J. Chem. Phys. 110, 7689 (1999)
 J. Autschbach, Mol. Phys. 111 (2013), 2544
  
 Paramagnetic:
 J. Autschbach, S. Patchkovskii, B. Pritchard, J. Chem. Theory Comput. 7, 2175 (2011)
  
 NBO analysis:
 J. Autschbach, J. Chem. Phys. 128 (2008), 164112
 J. Autschbach, S. Zheng, Magn. Reson. Chem. 46 (2008), S48
  
 Suggested:
 G. Schreckenbach, T. Ziegler, Int. J. Quantum Chem. 60, 753 (1996)
 G. Schreckenbach, T. Ziegler, Int. J. Quantum Chem. 61 (1997) 899
 S.K. Wolff, T. Ziegler, J. Chem. Phys. 109 (1998) 895
  
 =======================
 ESR g-tensor References
 =======================
  
 Lead:
 J. Autschbach, B. Pritchard, Theor. Chem. Acc. 129 (2011), 453
  
 Suggested:
 G. Schreckenbach, T. Ziegler, J. Phys. Chem. A 101, 3388 (1997)
 
################################################################################
 
 
################################################################################
 
 
              <><><><><><><><><><><><><><><><><><><><><><><><><>
 
                 GENERAL ADF INFORMATION:
                 ------------------------
 
                 TITLE:    *** adf ***                                  
 JOB ID:      611039301
                 NONLXC:                                                
                 SYMMETRY: C(S)                                         
                  
                 IOPREL:   0
                 ------>  non-rel. (Re MOs)
 
              <><><><><><><><><><><><><><><><><><><><><><><><><>
 
              ==================================================
 
                 NUCLEAR COORDINATES (ANGSTROMS):
                 --------------------------------
 
                 C  (  1):       0.6644      0.0079      0.0000
                 N  (  2):      -0.8260      0.0163      0.0000
                 O  (  3):      -1.4015      0.0058      1.0797
                 O  (  4):      -1.4015      0.0058     -1.0797
                 H  (  5):       1.0021      0.5014      0.9028
                 H  (  6):       1.0021      0.5014     -0.9028
                 H  (  7):       0.9605     -1.0385      0.0000
 
              ==================================================
 
              <><><><><><><><><><><><><><><><><><><><><><><><><>
 
                 NUMBERS:
                 --------
 
                 number of electrons:     32.00
 
                 ---   AOs   ---          ---   MOs   ---
                 ncor =     0             nocc =    16
                 nval =   156             nvir =   121
                 nbas =   156             nmo  =   137
                 naos =   156             nsot =   137
              ==================================================
                  
                 --------------------------
                     ATOM TYPE: C                        
                 --------------------------
                 === BASIS
                   1S    7.68     VALENCE
                   1S    5.00     VALENCE
                   2S    1.28     VALENCE
                   2S    2.10     VALENCE
                   2S    4.60     VALENCE
                   2P    0.82     VALENCE
                   2P    1.48     VALENCE
                   2P    2.94     VALENCE
                   3D    2.20     VALENCE
                   4F    3.30     VALENCE
                  
                 --------------------------
                     ATOM TYPE: N                        
                 --------------------------
                 === BASIS
                   1S    8.74     VALENCE
                   1S    5.90     VALENCE
                   2S    5.15     VALENCE
                   2S    2.50     VALENCE
                   2S    1.50     VALENCE
                   2P    3.68     VALENCE
                   2P    1.88     VALENCE
                   2P    1.00     VALENCE
                   3D    2.20     VALENCE
                   4F    3.30     VALENCE
                  
                 --------------------------
                     ATOM TYPE: O                        
                 --------------------------
                 === BASIS
                   1S    9.80     VALENCE
                   1S    6.80     VALENCE
                   2S    7.58     VALENCE
                   2S    2.88     VALENCE
                   2S    1.72     VALENCE
                   2P    4.08     VALENCE
                   2P    2.08     VALENCE
                   2P    1.12     VALENCE
                   3D    2.00     VALENCE
                   4F    3.00     VALENCE
                  
                 --------------------------
                     ATOM TYPE: H                        
                 --------------------------
                 === BASIS
                   1S    0.69     VALENCE
                   1S    0.92     VALENCE
                   1S    1.58     VALENCE
                   2P    1.25     VALENCE
                   3D    2.50     VALENCE
                  
              ==================================================
              <><><><><><><><><><><><><><><><><><><><><><><><><>
 
                 TENSOR INFORMATION:
                 -------------------
 
                              CALC                   U1K
 
                 paramagnetic  = T     mass-velocity = F
                 diamagnetic   = T     Darwin        = F
                 Fermi-cont.   = F     Zeeman        = F
                 ZORA SO       = F     ZORA SO       = F
                 ZORA SCALE    = F     ZORA SO FULL  = F
                 ZORA SO 1C    = F     E IN U1 SCL   = F
 
              <><><><><><><><><><><><><><><><><><><><><><><><><>
 
              <><><><><><><><><><><><><><><><><><><><><><><><><>
 
                 OUTPUT SWITCHES:
                 ----------------
 
                           ISO = T                F1 = F
                          TENS = T                S1 = F
                           EIG = F                U1 = F
                           AOP = F                B1 = F
                           AOD = F                F  = F
                           AOF = F                 S = F
                          INFO = F              REFS = F
 
              <><><><><><><><><><><><><><><><><><><><><><><><><>
 
              --------------------------------------------------
 
                 CALCULATE THE POTENTIAL? F
                  
                 ---> Potential is already on TAPE10.
                      It will not be re-calculated.
 
              --------------------------------------------------



 ===========================
 L I N E A R   S C A L I N G
 ===========================
  

 Overlap cut-off criterion AO matrix elements:     0.1000000000E-07
 ========================
 STARTING A NEW SCF. Step            1
 CRIT   1.00000000000000     
 CRIT   1.00000000000000     
 CRIT   1.00000000000000     
 ========================
 STARTING A NEW SCF. Step            2
 CRIT   4.11668051671297     
 CRIT   2.25270462969324     
 CRIT   5.40435575519643     
 ========================
 STARTING A NEW SCF. Step            3
 CRIT  0.533879029659808     
 CRIT  0.229017794188209     
 CRIT  0.362926493740252     
 ========================
 STARTING A NEW SCF. Step            4
 CRIT  4.469882584316531E-002
 CRIT  1.864570407737031E-002
 CRIT  2.294141403557335E-002
 ========================
 STARTING A NEW SCF. Step            5
 CRIT  1.635570109815551E-003
 CRIT  3.350457110863581E-003
 CRIT  1.290415445241137E-003
 ========================
 STARTING A NEW SCF. Step            6
 CRIT  8.459474174698591E-005
 CRIT  2.589457250555494E-004
 CRIT  5.503612726623947E-005
 ========================
 STARTING A NEW SCF. Step            7
 CRIT  6.261273545769122E-006
 CRIT  1.493649078411040E-005
 CRIT  2.518301277018275E-006
 ========================
 STARTING A NEW SCF. Step            8
 CRIT  5.118974694731442E-007
 CRIT  7.599129416218642E-007
 CRIT  1.087832407429061E-007
################################################################################
********************************************************************************
****  N U C L E U S : N(2)
 
 ADF-GUI atom: N(2)
 Internal NMR numbering of atoms: N(2)
 
 
================================================================================
 
 
===  PARAMAGNETIC NMR SHIELDING TENSORS (ppm)
 
    ===     paramagnetic b^(1) tensor       ===     paramagnetic u^(1) tensor
    -----------------------------------     -----------------------------------
           0.000     0.000     0.000            -665.763    -3.256    -0.028
           0.000     0.000     0.000              -3.256  -338.203    -0.017
           0.000     0.000     0.000              -0.028    -0.017  -673.803
    -----------------------------------     -----------------------------------
              isotropic =      0.000                  isotropic =   -559.256

    ===     paramagnetic s^(1) tensor       ===     paramagnetic gauge tensor
    -----------------------------------     -----------------------------------
          59.106    -0.673    -0.002              -0.396     0.077    -0.000
          -0.673   119.784     0.000               0.077    -4.724    -0.000
          -0.002     0.000    84.578              -0.000    -0.000    -0.506
    -----------------------------------     -----------------------------------
              isotropic =     87.823                  isotropic =     -1.875

                        ***********************************
                        CARTESIAN AXIS REPRESENTATION

                        ==== total paramagnetic tensor
                        -----------------------------------
                            -607.052    -3.852    -0.030
                              -3.852  -223.143    -0.017
                              -0.030    -0.017  -589.731
                        -----------------------------------
                                  isotropic =   -473.309

                        ***********************************
                        -----------------------------------
                        PRINCIPAL AXIS REPRESENTATION

                        ==== Principal components:

                            -607.091  -589.731  -223.104
 
                        ==== Principal Axis System:

                              -1.000    -0.002     0.010
                              -0.010     0.000    -1.000
                              -0.002     1.000     0.000
                        -----------------------------------
 
================================================================================
 
 
===  DIAMAGNETIC NMR SHIELDING TENSORS (ppm)
 
    ===       diamagnetic core tensor       ===    diamagnetic valence tensor
    -----------------------------------     -----------------------------------
           0.000     0.000     0.000             304.455     0.057    -0.001
           0.000     0.000     0.000               0.057   271.231    -0.000
           0.000     0.000     0.000              -0.001    -0.000   317.612
    -----------------------------------     -----------------------------------
              isotropic =      0.000                  isotropic =    297.766

                        ***********************************
                        CARTESIAN AXIS REPRESENTATION

                        ==== total diamagnetic tensor
                        -----------------------------------
                             304.455     0.057    -0.001
                               0.057   271.231    -0.000
                              -0.001    -0.000   317.612
                        -----------------------------------
                                  isotropic =    297.766

                        ***********************************
                        -----------------------------------
                        PRINCIPAL AXIS REPRESENTATION

                        ==== Principal components:

                             271.231   304.455   317.612
 
                        ==== Principal Axis System:

                               0.002    -1.000    -0.000
                              -1.000    -0.002    -0.000
                              -0.000    -0.000     1.000
                        -----------------------------------
 
================================================================================
 
 
===  TOTAL NMR SHIELDING TENSOR (ppm)
 
                        ***********************************
                        CARTESIAN AXIS REPRESENTATION

                        ==== total shielding tensor
                        -----------------------------------
                            -302.597    -3.796    -0.031
                              -3.796    48.088    -0.017
                              -0.031    -0.017  -272.119
                        -----------------------------------
                                  isotropic =   -175.543

                        ***********************************
                        -----------------------------------
                        PRINCIPAL AXIS REPRESENTATION

                        ==== Principal components:

                            -302.639  -272.119    48.129
 
                        ==== Principal Axis System:

                              -1.000    -0.001     0.011
                              -0.011     0.000    -1.000
                              -0.001     1.000     0.000
                        -----------------------------------
 *******************************************************************************

                             N M R   E X I T
 NORMAL TERMINATION



 =================
 Timing Statistics
 =================
  
 Total Used :                     CPU=       16.52      System=        0.47     Elapsed=       19.45

 Calls  Section                     ( Mean, Percentage )
 ---------------------------------------------------------------------------------------------------
     3  ><      ................      0.00    0.06             0.00    1.10             0.01    0.08
     1  INIT    ................      0.41    2.51             0.00    0.00             0.42    2.18
     1  RDEIGX  ................      9.64   58.35             0.14   29.66            11.34   58.30
     1  AOF1K   ................      0.49    2.96             0.01    1.69             0.51    2.63
     1  AOPKK   ................      5.36   32.45             0.31   66.71             6.46   33.22
     1  XSIGP   ................      0.00    0.00             0.00    0.00             0.00    0.00
     1  AODKKK  ................      0.60    3.66             0.00    0.00             0.69    3.55
     1  XDV     ................      0.00    0.00             0.00    0.00             0.00    0.00
     1  XSIGD   ................      0.00    0.00             0.00    0.00             0.00    0.00
     1  EXIT PROCEDURE .........      0.00    0.01             0.00    0.84             0.01    0.04


 Currently Open Files (EXIT00)
 ====================

 Unit    Access Format  Status   Type       Ident (file)
 -------------------------------------------------------
   3      SEQ    FORM   TRANSP  NORMAL      LOGFILE
                                          ( /home/milias/work/projects/open-collection/theoretical_chemistry/projects/nmr_diplomovky/reference_compounds/nitromethane/ams/b3lyp_tz2p_good/cosmo-h2o/nitromethane.geopt_freq_nmr_shield_b3lyp_tz2p_good_cosmo-h2o.logfile )
