

 Parallel Execution: Process Information
 ==============================================================================
 Rank   Node Name                              NodeID   MyNodeRank  NodeMaster
    0   adf1                                      0          0          0
    1   adf1                                      0          1         -1
    2   adf1                                      0          2         -1
    3   adf1                                      0          3         -1
    4   adf1                                      0          4         -1
    5   adf1                                      0          5         -1
    6   adf1                                      0          6         -1
    7   adf1                                      0          7         -1
    8   adf1                                      0          8         -1
    9   adf1                                      0          9         -1
   10   adf1                                      0         10         -1
   11   adf1                                      0         11         -1
 ==============================================================================


May use up to 22932MB of RAM as shared memory on node 0

 *******************************************************************************
 *                                                                             *
 *  --------------------------------                                           *
 *   Amsterdam Modeling Suite (AMS)              2020.202                      *
 *  --------------------------------                                           *
 *                                               r90167 2020-12-05             *
 *                                                                             *
 *                                                                             *
 *                              =================                              *
 *                              |               |                              *
 *                              |     A M S     |                              *
 *                              |               |                              *
 *                              =================                              *
 *                                                                             *
 *                                                                             *
 *   Online information and documentation:  https://www.scm.com/support/       *
 *   E-mail:  support@scm.com   info@scm.com                                   *
 *                                                                             *
 *   Scientific publications using AMS results must be properly referenced     *
 *   See the User Manuals (or the web site) for recommended citations          *
 *   The terms and conditions of the End User License Agreement apply to       *
 *   the use of AMS, https://www.scm.com/license-terms/                        *
 *                                                                             *
 **********************  x86_64_linux_intel / intelmpi  ************************
 
 Licensed to: Dr. Miroslav Ilias / Matej Bel University, Department Chemistry, Fac. Natural Sciences / Banska Bystrica / SLOVAKIA
 SCM User ID: u17848
  
 AMS 2020.202  RunTime: Jan21-2021 10:18:38  Nodes: 1  Procs: 12

 AMS jobname: ams
 AMS jobid  : 1042123357

 Start   directory: /home/milias/Work/projects/open-collection/theoretical_chemistry/projects/nmr_diplomovky/reference_compounds/tetramethylsilane/ams/geom_optimiz/solvent_chcl3/tmp.milias.23610.0.noindex/
 Results directory: /home/milias/Work/projects/open-collection/theoretical_chemistry/projects/nmr_diplomovky/reference_compounds/tetramethylsilane/ams/geom_optimiz/solvent_chcl3/TMS.geopt_freq_blyp_tz2p_cosmo-chcl3.results/
 Scratch directory: /tmp/amstmp_ams_kid0.1042123357/


 Communication costs MPI_COMM_WORLD:      2.777 usec per message,   0.0274 usec per 8-byte item
 Communication costs for intra-node:      2.698 usec per message,   0.0278 usec per 8-byte item

 RNG seed: 2090206789 935560625 1197825498 -1039772746 -178929692 -1021792067 275471307 582482642



                       *********************************************************************
                       *  ADF 2020.202  RunTime: Jan21-2021 10:18:39  Nodes: 1  Procs: 12  *
                       *********************************************************************
  
       ***************************
       *  GEOMETRY OPTIMIZATION  *
       ***************************

Optimization Method                    Quasi Newton
Optimization Coordinates               Delocalized Coordinates
Optimize lattice                       F
 
 ------------------------------------------------------
 Convergence criteria (Hartree,Angstrom)
 ------------------------------------------------------
 Maximum gradient               0.001000000000
 Maximum rms gradient           0.000666666667
 Maximum step allowed           0.010000000000
 Maximum rms step allowed       0.006666666667
 Maximum energy change allowe   0.000170000000
 Maximum stress energy allowe   0.000500000000
 
Initial model Hessian                  Automatic Hessian
 
------------------------------------
Quasi-Newton Optimizer Parameters
------------------------------------
Hessian Update Method                  BFGS
Maximum number of steps                  250
First GDIIS cycle                          0
Maximum GDIIS vectors                      0
Trust radius (bohr)                        0.200000
Trust radius varies                        T
Constraints converged at all steps         T
Use projector                              T
 
 Rigid motions settings for: old optimizer
 Atomic rotations (x,y,z):     T T T
 Atomic translations (x,y,z):  T T T
 Tolerance:                   1.000000000000000E-006
 
--------
Geometry
--------
Atoms
  Index Symbol   x (angstrom)   y (angstrom)   z (angstrom)
      1     Si     0.00010000    -0.00010000     0.00010000       adf.R=2.10
      2      C    -0.92310000    -0.17140000    -1.62330000       adf.R=1.700
      3      C     0.88830000     1.65100000     0.04270000       adf.R=1.700
      4      C     1.25190000    -1.38740000     0.15680000       adf.R=1.700
      5      C    -1.21720000    -0.09220000     1.42360000       adf.R=1.700
      6      H    -1.44950000    -1.12940000    -1.66920000       adf.R=1.350
      7      H    -1.65980000     0.62960000    -1.73510000       adf.R=1.350
      8      H    -0.23080000    -0.12030000    -2.46880000       adf.R=1.350
      9      H     1.60440000     1.72600000    -0.78090000       adf.R=1.350
     10      H     0.17520000     2.47580000    -0.04760000       adf.R=1.350
     11      H     1.43420000     1.77200000     0.98310000       adf.R=1.350
     12      H     1.80260000    -1.30640000     1.09860000       adf.R=1.350
     13      H     0.75430000    -2.36140000     0.13400000       adf.R=1.350
     14      H     1.97290000    -1.35210000    -0.66530000       adf.R=1.350
     15      H    -0.69900000     0.00580000     2.38220000       adf.R=1.350
     16      H    -1.95780000     0.70990000     1.35130000       adf.R=1.350
     17      H    -1.74730000    -1.04910000     1.41750000       adf.R=1.350
 
Total System Charge             0.00000
Bonding info available!
 
 
----------------
ADF Engine Input
----------------
 
 Basis
 Type TZ2P
 Core None
 End
 XC
 GGA BLYP
 End
 Relativity
 Level None
 End
 Solvation
 Surf Delley
 Solv name=Chloroform cav0=0.0 cav1=0.0067639
 Charged method=CONJ
 C-Mat POT
 SCF VAR ALL
 CSMRSP
 End
 

 Title: *** (NO TITLE) ***

 Using automatic Hessian for delocalized coordinates.
 *** GOStep1 ***

 SOLVATION
-------------------------------------------

  The Delley construction of COSMO surface surface is calculated

       Division Level for Surface Triangles (NDIV)                  3
       Final Division Level for Triangles (NFDIV)                   1
       Radius of the Solvent (RSOL)                           3.17000 angstr
  Dielectric Constant (EPSL)                                  4.80000

       COSMO equation is solved iteratively-               conjugate-gradient

       Maximun of Iterations for Charges (NCIX)                  1000
       Criterion for Charge convergence (CCNV)                1.0E-08

  COSMO charges included variationally in SCF

       COSMO included at every SCF cycle

  Geometry-dependent empirical factor                         0.00000

  C-Matrix calculated in cspmtx

  In cspmtx, C-Matrix calculated using fitted potential

-------------------------------------------



 -------------------------------------------
  COSMO surface
  Area             =          530.782
  Volume           =          990.000
  Number of Points =         1222
 -------------------------------------------
 cosmo_calcen: 0.5 (esolb+esolc) (Hartrees) =   -0.001214

 Solvation energy (screening term,uncorrected) =     -0.761563 kcal/mol

 Solvation energy (dispersion and cavitation terms) =      0.795899 kcal/mol
 Solvation Energy Contributions (Hartrees)
          esola   esolb+esolc
     0.00121363   -0.00242725
 esol last cycle   -0.00121363
 cosmo_calcen: 0.5 (esolb+esolc) (Hartrees) =   -0.001214

 Solvation energy (screening term,uncorrected) =     -0.761562 kcal/mol

 Solvation energy (dispersion and cavitation terms) =      0.795899 kcal/mol
 Solvation Energy Contributions (Hartrees)
          esola   esolb+esolc
     0.00121363   -0.00242725
 esol last cycle   -0.00121363

 Energy gradients wrt nuclear displacements
 ==========================================

     Atom      Cartesian (a.u./angstrom)
                 X         Y         Z
 ----------------------------------------
     1 Si    0.000262 -0.000230  0.000342
     2 C     0.002001  0.000528  0.003634
     3 C    -0.002047 -0.003582 -0.000355
     4 C    -0.003070  0.003251 -0.000206
     5 C     0.002687 -0.000107 -0.003237
     6 H     0.003472  0.004263  0.002366
     7 H     0.004467 -0.003241  0.002713
     8 H    -0.001725  0.000068  0.005795
     9 H    -0.004312 -0.002557  0.003466
    10 H     0.001850 -0.005743  0.000285
    11 H    -0.003456 -0.002764 -0.004031
    12 H    -0.004067  0.001557 -0.004285
    13 H     0.000393  0.006034 -0.000170
    14 H    -0.004708  0.001800  0.003225
    15 H    -0.000487 -0.000336 -0.005931
    16 H     0.004762 -0.003224 -0.001679
    17 H     0.003978  0.004283 -0.001934
 ----------------------------------------
 Mulliken charges used for AMS results%charges...
 
----------------------------------------------------------------------
Geometry Convergence after Step   1       (Hartree/Angstrom,Angstrom)
----------------------------------------------------------------------
current energy                               -3.04573316 Hartree
energy change                      -3.04573316     0.00017000    F
constrained gradient max            0.00603095     0.00100000    F
constrained gradient rms            0.00316634     0.00066667    F
gradient max                        0.00603095
gradient rms                        0.00316634
cart. step max                      0.01560291     0.01000000    F
cart. step rms                      0.00866584     0.00666667    F
 
 
--------
Geometry
--------
Atoms
  Index Symbol   x (angstrom)   y (angstrom)   z (angstrom)
      1     Si    -0.00011643    -0.00017650    -0.00057610       adf.R=2.10
      2      C    -0.92798663    -0.17290804    -1.63197987       adf.R=1.700
      3      C     0.89260890     1.65902089     0.04403307       adf.R=1.700
      4      C     1.25839103    -1.39426567     0.15686295       adf.R=1.700
      5      C    -1.22312064    -0.09179364     1.43046463       adf.R=1.700
      6      H    -1.45844956    -1.13191760    -1.68353407       adf.R=1.350
      7      H    -1.66854733     0.62789149    -1.75070291       adf.R=1.350
      8      H    -0.23891873    -0.12328693    -2.48422930       adf.R=1.350
      9      H     1.61310346     1.74124198    -0.77923352       adf.R=1.350
     10      H     0.18261325     2.49068261    -0.04575603       adf.R=1.350
     11      H     1.44146764     1.78576422     0.98555110       adf.R=1.350
     12      H     1.81477461    -1.31814517     1.09940029       adf.R=1.350
     13      H     0.76565321    -2.37425503     0.13553361       adf.R=1.350
     14      H     1.98412902    -1.36481922    -0.66540550       adf.R=1.350
     15      H    -0.70910167     0.00658696     2.39477159       adf.R=1.350
     16      H    -1.96883801     0.71023406     1.36364272       adf.R=1.350
     17      H    -1.75826211    -1.04955441     1.43085735       adf.R=1.350
 
Total System Charge             0.00000
Bonding info available!
 
 *** GOStep2 ***

 SOLVATION
-------------------------------------------

  The Delley construction of COSMO surface surface is calculated

       Division Level for Surface Triangles (NDIV)                  3
       Final Division Level for Triangles (NFDIV)                   1
       Radius of the Solvent (RSOL)                           3.17000 angstr
  Dielectric Constant (EPSL)                                  4.80000

       COSMO equation is solved iteratively-               conjugate-gradient

       Maximun of Iterations for Charges (NCIX)                  1000
       Criterion for Charge convergence (CCNV)                1.0E-08

  COSMO charges included variationally in SCF

       COSMO included at every SCF cycle

  Geometry-dependent empirical factor                         0.00000

  C-Matrix calculated in cspmtx

  In cspmtx, C-Matrix calculated using fitted potential

-------------------------------------------



 -------------------------------------------
  COSMO surface
  Area             =          532.387
  Volume           =          993.654
  Number of Points =         1224
 -------------------------------------------
 cosmo_calcen: 0.5 (esolb+esolc) (Hartrees) =   -0.001163

 Solvation energy (screening term,uncorrected) =     -0.730006 kcal/mol

 Solvation energy (dispersion and cavitation terms) =      0.798306 kcal/mol
 Solvation Energy Contributions (Hartrees)
          esola   esolb+esolc
     0.00116334   -0.00232668
 esol last cycle   -0.00116334
 cosmo_calcen: 0.5 (esolb+esolc) (Hartrees) =   -0.001163

 Solvation energy (screening term,uncorrected) =     -0.730006 kcal/mol

 Solvation energy (dispersion and cavitation terms) =      0.798306 kcal/mol
 Solvation Energy Contributions (Hartrees)
          esola   esolb+esolc
     0.00116334   -0.00232668
 esol last cycle   -0.00116334

 Energy gradients wrt nuclear displacements
 ==========================================

     Atom      Cartesian (a.u./angstrom)
                 X         Y         Z
 ----------------------------------------
     1 Si    0.000141 -0.000179  0.000132
     2 C     0.002308  0.000455  0.004010
     3 C    -0.002234 -0.004130 -0.000158
     4 C    -0.003273  0.003607 -0.000257
     5 C     0.003048  0.000109 -0.003542
     6 H     0.001322  0.001624  0.000885
     7 H     0.001664 -0.001190  0.001051
     8 H    -0.000647  0.000045  0.002191
     9 H    -0.001664 -0.001028  0.001277
    10 H     0.000660 -0.002163  0.000111
    11 H    -0.001298 -0.001018 -0.001542
    12 H    -0.001547  0.000600 -0.001632
    13 H     0.000122  0.002279 -0.000088
    14 H    -0.001759  0.000703  0.001187
    15 H    -0.000180 -0.000133 -0.002213
    16 H     0.001796 -0.001208 -0.000636
    17 H     0.001542  0.001625 -0.000777
 ----------------------------------------
 Mulliken charges used for AMS results%charges...

 dE(predicted):    -0.52046E-03, dE(actual):    -0.73343E-03, Trust radius:    0.200000, all in a.u.
 
----------------------------------------------------------------------
Geometry Convergence after Step   2       (Hartree/Angstrom,Angstrom)
----------------------------------------------------------------------
current energy                               -3.04646659 Hartree
energy change                      -0.00073343     0.00017000    F
constrained gradient max            0.00413306     0.00100000    F
constrained gradient rms            0.00172670     0.00066667    F
gradient max                        0.00413306
gradient rms                        0.00172670
cart. step max                      0.01579334     0.01000000    F
cart. step rms                      0.00867119     0.00666667    F
 
 
--------
Geometry
--------
Atoms
  Index Symbol   x (angstrom)   y (angstrom)   z (angstrom)
      1     Si    -0.00010022     0.00005506    -0.00128555       adf.R=2.10
      2      C    -0.93366825    -0.17480286    -1.64154987       adf.R=1.700
      3      C     0.89777505     1.66863925     0.04555378       adf.R=1.700
      4      C     1.26576661    -1.40217612     0.15669463       adf.R=1.700
      5      C    -1.22999668    -0.09147169     1.43802685       adf.R=1.700
      6      H    -1.46743478    -1.13456513    -1.69661693       adf.R=1.350
      7      H    -1.67707927     0.62582011    -1.76608655       adf.R=1.350
      8      H    -0.24724905    -0.12713274    -2.49916206       adf.R=1.350
      9      H     1.62240480     1.75703532    -0.77671780       adf.R=1.350
     10      H     0.19028901     2.50563329    -0.04393627       adf.R=1.350
     11      H     1.44813942     1.79931281     0.98847109       adf.R=1.350
     12      H     1.82691397    -1.32977736     1.09958404       adf.R=1.350
     13      H     0.77668475    -2.38671972     0.13694148       adf.R=1.350
     14      H     1.99483851    -1.37756371    -0.66594080       adf.R=1.350
     15      H    -0.71916462     0.00752155     2.40665039       adf.R=1.350
     16      H    -1.97970664     0.71041561     1.37524969       adf.R=1.350
     17      H    -1.76901260    -1.04992368     1.44382387       adf.R=1.350
 
Total System Charge             0.00000
Bonding info available!
 
 *** GOStep3 ***

 SOLVATION
-------------------------------------------

  The Delley construction of COSMO surface surface is calculated

       Division Level for Surface Triangles (NDIV)                  3
       Final Division Level for Triangles (NFDIV)                   1
       Radius of the Solvent (RSOL)                           3.17000 angstr
  Dielectric Constant (EPSL)                                  4.80000

       COSMO equation is solved iteratively-               conjugate-gradient

       Maximun of Iterations for Charges (NCIX)                  1000
       Criterion for Charge convergence (CCNV)                1.0E-08

  COSMO charges included variationally in SCF

       COSMO included at every SCF cycle

  Geometry-dependent empirical factor                         0.00000

  C-Matrix calculated in cspmtx

  In cspmtx, C-Matrix calculated using fitted potential

-------------------------------------------



 -------------------------------------------
  COSMO surface
  Area             =          534.562
  Volume           =          998.261
  Number of Points =         1227
 -------------------------------------------
 cosmo_calcen: 0.5 (esolb+esolc) (Hartrees) =   -0.001125

 Solvation energy (screening term,uncorrected) =     -0.705810 kcal/mol

 Solvation energy (dispersion and cavitation terms) =      0.801567 kcal/mol
 Solvation Energy Contributions (Hartrees)
          esola   esolb+esolc
     0.00112478   -0.00224956
 esol last cycle   -0.00112478
 cosmo_calcen: 0.5 (esolb+esolc) (Hartrees) =   -0.001125

 Solvation energy (screening term,uncorrected) =     -0.705810 kcal/mol

 Solvation energy (dispersion and cavitation terms) =      0.801567 kcal/mol
 Solvation Energy Contributions (Hartrees)
          esola   esolb+esolc
     0.00112478   -0.00224956
 esol last cycle   -0.00112478

 Energy gradients wrt nuclear displacements
 ==========================================

     Atom      Cartesian (a.u./angstrom)
                 X         Y         Z
 ----------------------------------------
     1 Si    0.000117 -0.000052  0.000030
     2 C     0.001673  0.000242  0.002942
     3 C    -0.001608 -0.003091  0.000033
     4 C    -0.002409  0.002635 -0.000254
     5 C     0.002295  0.000182 -0.002617
     6 H    -0.000409 -0.000393 -0.000395
     7 H    -0.000512  0.000307 -0.000362
     8 H     0.000087  0.000006 -0.000684
     9 H     0.000447  0.000347 -0.000351
    10 H    -0.000111  0.000679 -0.000011
    11 H     0.000400  0.000443  0.000339
    12 H     0.000472 -0.000251  0.000400
    13 H     0.000078 -0.000671  0.000006
    14 H     0.000564 -0.000276 -0.000315
    15 H    -0.000070  0.000013  0.000667
    16 H    -0.000555  0.000291  0.000288
    17 H    -0.000458 -0.000411  0.000285
 ----------------------------------------
 Mulliken charges used for AMS results%charges...

 dE(predicted):    -0.26552E-03, dE(actual):    -0.24236E-03, Trust radius:    0.200000, all in a.u.
 
----------------------------------------------------------------------
Geometry Convergence after Step   3       (Hartree/Angstrom,Angstrom)
----------------------------------------------------------------------
current energy                               -3.04670895 Hartree
energy change                      -0.00024236     0.00017000    F
constrained gradient max            0.00309175     0.00100000    F
constrained gradient rms            0.00103128     0.00066667    F
gradient max                        0.00309175
gradient rms                        0.00103128
cart. step max                      0.00166885     0.01000000    T
cart. step rms                      0.00077167     0.00666667    T
 
 
--------
Geometry
--------
Atoms
  Index Symbol   x (angstrom)   y (angstrom)   z (angstrom)
      1     Si    -0.00012292     0.00012030    -0.00133882       adf.R=2.10
      2      C    -0.93457790    -0.17510099    -1.64307434       adf.R=1.700
      3      C     0.89859105     1.67030810     0.04574736       adf.R=1.700
      4      C     1.26704121    -1.40350435     0.15656590       adf.R=1.700
      5      C    -1.23121209    -0.09143017     1.43934171       adf.R=1.700
      6      H    -1.46815794    -1.13484731    -1.69700264       adf.R=1.350
      7      H    -1.67753833     0.62573137    -1.76732268       adf.R=1.350
      8      H    -0.24770424    -0.12789258    -2.50012231       adf.R=1.350
      9      H     1.62341167     1.75823496    -0.77617422       adf.R=1.350
     10      H     0.19073748     2.50673914    -0.04393917       adf.R=1.350
     11      H     1.44815659     1.80002958     0.98908920       adf.R=1.350
     12      H     1.82801543    -1.33051878     1.09932367       adf.R=1.350
     13      H     0.77736317    -2.38757117     0.13696175       adf.R=1.350
     14      H     1.99543556    -1.37838836    -0.66640749       adf.R=1.350
     15      H    -0.71975275     0.00768816     2.40744146       adf.R=1.350
     16      H    -1.98044396     0.71061390     1.37590802       adf.R=1.350
     17      H    -1.76984202    -1.04991179     1.44470260       adf.R=1.350
 
Total System Charge             0.00000
Bonding info available!
 
 *** GOStep4 ***

 SOLVATION
-------------------------------------------

  The Delley construction of COSMO surface surface is calculated

       Division Level for Surface Triangles (NDIV)                  3
       Final Division Level for Triangles (NFDIV)                   1
       Radius of the Solvent (RSOL)                           3.17000 angstr
  Dielectric Constant (EPSL)                                  4.80000

       COSMO equation is solved iteratively-               conjugate-gradient

       Maximun of Iterations for Charges (NCIX)                  1000
       Criterion for Charge convergence (CCNV)                1.0E-08

  COSMO charges included variationally in SCF

       COSMO included at every SCF cycle

  Geometry-dependent empirical factor                         0.00000

  C-Matrix calculated in cspmtx

  In cspmtx, C-Matrix calculated using fitted potential

-------------------------------------------



 -------------------------------------------
  COSMO surface
  Area             =          535.180
  Volume           =          999.352
  Number of Points =         1228
 -------------------------------------------
 cosmo_calcen: 0.5 (esolb+esolc) (Hartrees) =   -0.001127

 Solvation energy (screening term,uncorrected) =     -0.707497 kcal/mol

 Solvation energy (dispersion and cavitation terms) =      0.802493 kcal/mol
 Solvation Energy Contributions (Hartrees)
          esola   esolb+esolc
     0.00112747   -0.00225494
 esol last cycle   -0.00112747
 cosmo_calcen: 0.5 (esolb+esolc) (Hartrees) =   -0.001127

 Solvation energy (screening term,uncorrected) =     -0.707497 kcal/mol

 Solvation energy (dispersion and cavitation terms) =      0.802493 kcal/mol
 Solvation Energy Contributions (Hartrees)
          esola   esolb+esolc
     0.00112747   -0.00225494
 esol last cycle   -0.00112747

 Energy gradients wrt nuclear displacements
 ==========================================

     Atom      Cartesian (a.u./angstrom)
                 X         Y         Z
 ----------------------------------------
     1 Si    0.000088 -0.000038  0.000034
     2 C     0.001009  0.000151  0.001762
     3 C    -0.000972 -0.001869  0.000020
     4 C    -0.001460  0.001592 -0.000178
     5 C     0.001375  0.000118 -0.001577
     6 H    -0.000315 -0.000291 -0.000317
     7 H    -0.000392  0.000219 -0.000298
     8 H     0.000040  0.000005 -0.000532
     9 H     0.000349  0.000302 -0.000254
    10 H    -0.000063  0.000530 -0.000008
    11 H     0.000314  0.000349  0.000254
    12 H     0.000375 -0.000215  0.000298
    13 H     0.000088 -0.000521  0.000008
    14 H     0.000432 -0.000232 -0.000215
    15 H    -0.000071  0.000006  0.000518
    16 H    -0.000430  0.000204  0.000243
    17 H    -0.000368 -0.000309  0.000243
 ----------------------------------------
 Mulliken charges used for AMS results%charges...

 dE(predicted):    -0.88914E-05, dE(actual):    -0.97908E-05, Trust radius:    0.200000, all in a.u.
 
----------------------------------------------------------------------
Geometry Convergence after Step   4       (Hartree/Angstrom,Angstrom)
----------------------------------------------------------------------
current energy                               -3.04671874 Hartree
energy change                      -0.00000979     0.00017000    T
constrained gradient max            0.00187017     0.00100000    F
constrained gradient rms            0.00064295     0.00066667    T
gradient max                        0.00187017
gradient rms                        0.00064295
cart. step max                      0.00161366     0.01000000    T
cart. step rms                      0.00061063     0.00666667    T
 
 
--------
Geometry
--------
Atoms
  Index Symbol   x (angstrom)   y (angstrom)   z (angstrom)
      1     Si    -0.00017510     0.00024027    -0.00143865       adf.R=2.10
      2      C    -0.93547743    -0.17545889    -1.64449158       adf.R=1.700
      3      C     0.89933778     1.67192175     0.04602104       adf.R=1.700
      4      C     1.26825978    -1.40468990     0.15633754       adf.R=1.700
      5      C    -1.23232583    -0.09136664     1.44055047       adf.R=1.700
      6      H    -1.46857244    -1.13511729    -1.69612828       adf.R=1.350
      7      H    -1.67739359     0.62586326    -1.76776709       adf.R=1.350
      8      H    -0.24753650    -0.12896790    -2.50015204       adf.R=1.350
      9      H     1.62421276     1.75840255    -0.77540442       adf.R=1.350
     10      H     0.19062040     2.50698886    -0.04409019       adf.R=1.350
     11      H     1.44735801     1.79969359     0.99005483       adf.R=1.350
     12      H     1.82853913    -1.33031496     1.09889345       adf.R=1.350
     13      H     0.77718108    -2.38758413     0.13686956       adf.R=1.350
     14      H     1.99522716    -1.37829572    -0.66726689       adf.R=1.350
     15      H    -0.71947535     0.00791077     2.40742177       adf.R=1.350
     16      H    -1.98045106     0.71099460     1.37564725       adf.R=1.350
     17      H    -1.76992882    -1.04992022     1.44464323       adf.R=1.350
 
Total System Charge             0.00000
Bonding info available!
 
 *** GOStep5 ***

 SOLVATION
-------------------------------------------

  The Delley construction of COSMO surface surface is calculated

       Division Level for Surface Triangles (NDIV)                  3
       Final Division Level for Triangles (NFDIV)                   1
       Radius of the Solvent (RSOL)                           3.17000 angstr
  Dielectric Constant (EPSL)                                  4.80000

       COSMO equation is solved iteratively-               conjugate-gradient

       Maximun of Iterations for Charges (NCIX)                  1000
       Criterion for Charge convergence (CCNV)                1.0E-08

  COSMO charges included variationally in SCF

       COSMO included at every SCF cycle

  Geometry-dependent empirical factor                         0.00000

  C-Matrix calculated in cspmtx

  In cspmtx, C-Matrix calculated using fitted potential

-------------------------------------------



 -------------------------------------------
  COSMO surface
  Area             =          535.720
  Volume           =         1000.406
  Number of Points =         1230
 -------------------------------------------
 cosmo_calcen: 0.5 (esolb+esolc) (Hartrees) =   -0.001137

 Solvation energy (screening term,uncorrected) =     -0.713198 kcal/mol

 Solvation energy (dispersion and cavitation terms) =      0.803304 kcal/mol
 Solvation Energy Contributions (Hartrees)
          esola   esolb+esolc
     0.00113655   -0.00227311
 esol last cycle   -0.00113655
 cosmo_calcen: 0.5 (esolb+esolc) (Hartrees) =   -0.001137

 Solvation energy (screening term,uncorrected) =     -0.713198 kcal/mol

 Solvation energy (dispersion and cavitation terms) =      0.803304 kcal/mol
 Solvation Energy Contributions (Hartrees)
          esola   esolb+esolc
     0.00113655   -0.00227311
 esol last cycle   -0.00113655

 Energy gradients wrt nuclear displacements
 ==========================================

     Atom      Cartesian (a.u./angstrom)
                 X         Y         Z
 ----------------------------------------
     1 Si    0.000034 -0.000014  0.000020
     2 C     0.000064  0.000018  0.000098
     3 C    -0.000071 -0.000131  0.000001
     4 C    -0.000114  0.000112 -0.000040
     5 C     0.000080  0.000015 -0.000103
     6 H    -0.000034 -0.000008 -0.000070
     7 H    -0.000044 -0.000001 -0.000052
     8 H    -0.000036  0.000013 -0.000061
     9 H     0.000031  0.000073 -0.000005
    10 H     0.000025  0.000065  0.000009
    11 H     0.000046  0.000064  0.000009
    12 H     0.000055 -0.000055  0.000009
    13 H     0.000053 -0.000060 -0.000004
    14 H     0.000050 -0.000048  0.000010
    15 H    -0.000038 -0.000013  0.000062
    16 H    -0.000047 -0.000010  0.000061
    17 H    -0.000052 -0.000018  0.000055
 ----------------------------------------
 Mulliken charges used for AMS results%charges...

 dE(predicted):    -0.69761E-05, dE(actual):    -0.59916E-05, Trust radius:    0.200000, all in a.u.
 
---------------------------------------------------------
Geometry Convergence after Step   5       ** CONVERGED **
---------------------------------------------------------
current energy                               -3.04672473 Hartree
energy change                      -0.00000599     0.00017000    T
constrained gradient max            0.00013193     0.00100000    T
constrained gradient rms            0.00005418     0.00066667    T
gradient max                        0.00013193
gradient rms                        0.00005418
cart. step max                      0.00051365     0.01000000    T
cart. step rms                      0.00019601     0.00666667    T
 
Geometry optimization converged

Optimized geometry:
 
--------
Geometry
--------
Atoms
  Index Symbol   x (angstrom)   y (angstrom)   z (angstrom)
      1     Si    -0.00017510     0.00024027    -0.00143865       adf.R=2.10
      2      C    -0.93547743    -0.17545889    -1.64449158       adf.R=1.700
      3      C     0.89933778     1.67192175     0.04602104       adf.R=1.700
      4      C     1.26825978    -1.40468990     0.15633754       adf.R=1.700
      5      C    -1.23232583    -0.09136664     1.44055047       adf.R=1.700
      6      H    -1.46857244    -1.13511729    -1.69612828       adf.R=1.350
      7      H    -1.67739359     0.62586326    -1.76776709       adf.R=1.350
      8      H    -0.24753650    -0.12896790    -2.50015204       adf.R=1.350
      9      H     1.62421276     1.75840255    -0.77540442       adf.R=1.350
     10      H     0.19062040     2.50698886    -0.04409019       adf.R=1.350
     11      H     1.44735801     1.79969359     0.99005483       adf.R=1.350
     12      H     1.82853913    -1.33031496     1.09889345       adf.R=1.350
     13      H     0.77718108    -2.38758413     0.13686956       adf.R=1.350
     14      H     1.99522716    -1.37829572    -0.66726689       adf.R=1.350
     15      H    -0.71947535     0.00791077     2.40742177       adf.R=1.350
     16      H    -1.98045106     0.71099460     1.37564725       adf.R=1.350
     17      H    -1.76992882    -1.04992022     1.44464323       adf.R=1.350
 
Total System Charge             0.00000
Bonding info available!
 
Performing a single point calculation on the final geometry ...

 *** adf ***



 ===========================
 A T T A C H E D   F I L E S
 ===========================
  
 Restart/tmp/amstmp_ams_kid0.1042123357/GOStep5.rkf*** GOStep5 ***



 ===============================
 M O D E L   P A R A M E T E R S
 ===============================
  
 DENSITY FUNCTIONAL POTENTIAL (scf)
    LDA:                               Exchange only                           == Not Default ==
    Gradient Corrections:              Becke88 LYP                             == Not Default ==

 SPIN  (restricted / unrestr.)
    Molecule:                          Restricted                               
    Fragments:                         Restricted                               

 OTHER ASPECTS
    Relativistic Corrections:          ---                                     == Not Default ==

    Nuclear Charge Density Model:      Point Charge Nuclei                      
    Core Treatment:                    Frozen Orbital(s)                        

    Hyperfine or Zeeman Interaction:   ---                                      

 SOLVATION
-------------------------------------------

  The Delley construction of COSMO surface surface is calculated

       Division Level for Surface Triangles (NDIV)                  3
       Final Division Level for Triangles (NFDIV)                   1
       Radius of the Solvent (RSOL)                           3.17000 angstr
  Dielectric Constant (EPSL)                                  4.80000

       COSMO equation is solved iteratively-               conjugate-gradient

       Maximun of Iterations for Charges (NCIX)                  1000
       Criterion for Charge convergence (CCNV)                1.0E-08

  COSMO charges included variationally in SCF

       COSMO included at every SCF cycle

  Geometry-dependent empirical factor                         0.00000

  C-Matrix calculated in cspmtx

  In cspmtx, C-Matrix calculated using fitted potential

-------------------------------------------




 ===============
 G E O M E T R Y  ***  3D  Molecule  ***
 ===============
  

 ATOMS
 =====                            X Y Z                    CHARGE                     RADIUS
                                (Angstrom)             Nucl     +Core       At.Mass (Angstrom)
                       --------------------------    ----------------       ------- ----------
    1  Si             -0.0002    0.0002   -0.0014     14.00     14.00       27.9769    2.1000
    2  C              -0.9355   -0.1755   -1.6445      6.00      6.00       12.0000    1.7000
    3  C               0.8993    1.6719    0.0460      6.00      6.00       12.0000    1.7000
    4  C               1.2683   -1.4047    0.1563      6.00      6.00       12.0000    1.7000
    5  C              -1.2323   -0.0914    1.4406      6.00      6.00       12.0000    1.7000
    6  H              -1.4686   -1.1351   -1.6961      1.00      1.00        1.0078    1.3500
    7  H              -1.6774    0.6259   -1.7678      1.00      1.00        1.0078    1.3500
    8  H              -0.2475   -0.1290   -2.5002      1.00      1.00        1.0078    1.3500
    9  H               1.6242    1.7584   -0.7754      1.00      1.00        1.0078    1.3500
   10  H               0.1906    2.5070   -0.0441      1.00      1.00        1.0078    1.3500
   11  H               1.4474    1.7997    0.9901      1.00      1.00        1.0078    1.3500
   12  H               1.8285   -1.3303    1.0989      1.00      1.00        1.0078    1.3500
   13  H               0.7772   -2.3876    0.1369      1.00      1.00        1.0078    1.3500
   14  H               1.9952   -1.3783   -0.6673      1.00      1.00        1.0078    1.3500
   15  H              -0.7195    0.0079    2.4074      1.00      1.00        1.0078    1.3500
   16  H              -1.9805    0.7110    1.3756      1.00      1.00        1.0078    1.3500
   17  H              -1.7699   -1.0499    1.4446      1.00      1.00        1.0078    1.3500


 FRAGMENTS
 =========                                     Atoms in this Fragment     Cart. coord.s (Angstrom)
                                               -------------------------------------------------------
    1  Si                                                1  Si          -0.0002    0.0002   -0.0014
    2  C                                                 2  C           -0.9355   -0.1755   -1.6445
    3  C                                                 3  C            0.8993    1.6719    0.0460
    4  C                                                 4  C            1.2683   -1.4047    0.1563
    5  C                                                 5  C           -1.2323   -0.0914    1.4406
    6  H                                                 6  H           -1.4686   -1.1351   -1.6961
    7  H                                                 7  H           -1.6774    0.6259   -1.7678
    8  H                                                 8  H           -0.2475   -0.1290   -2.5002
    9  H                                                 9  H            1.6242    1.7584   -0.7754
   10  H                                                10  H            0.1906    2.5070   -0.0441
   11  H                                                11  H            1.4474    1.7997    0.9901
   12  H                                                12  H            1.8285   -1.3303    1.0989
   13  H                                                13  H            0.7772   -2.3876    0.1369
   14  H                                                14  H            1.9952   -1.3783   -0.6673
   15  H                                                15  H           -0.7195    0.0079    2.4074
   16  H                                                16  H           -1.9805    0.7110    1.3756
   17  H                                                17  H           -1.7699   -1.0499    1.4446


 Interatomic Distance Matrix (Angstrom)
 --------------------------------------

   1)     0.000
   2)     1.899   0.000
   3)     1.899   3.104   0.000
   4)     1.899   3.100   3.101   0.000
   5)     1.899   3.100   3.098   3.103   0.000
   6)     2.513   1.099   4.065   3.316   3.314   0.000
   7)     2.515   1.099   3.320   4.062   3.317   1.775   0.000
   8)     2.514   1.099   3.323   3.314   4.062   1.775   1.775   0.000
   9)     2.516   3.324   1.099   3.317   4.061   4.334   3.629   3.169   0.000
  10)     2.514   3.320   1.099   4.062   3.314   4.330   3.162   3.629   1.775   0.000
  11)     2.513   4.064   1.099   3.316   3.311   4.933   4.330   4.333   1.775   1.775
          0.000
  12)     2.515   4.062   3.314   1.099   3.320   4.327   4.933   4.325   3.619   4.326
          3.155   0.000
  13)     2.515   3.317   4.062   1.099   3.318   3.158   4.328   3.620   4.329   4.933
          4.326   1.774   0.000
  14)     2.515   3.315   3.319   1.099   4.064   3.622   4.326   3.154   3.160   4.329
          3.626   1.775   1.775   0.000
  15)     2.514   4.062   3.311   3.319   1.099   4.325   4.328   4.932   4.323   3.617
          3.149   3.162   3.624   4.330   0.000
  16)     2.515   3.316   3.314   4.064   1.099   3.620   3.159   4.328   4.326   3.155
          3.617   4.330   4.329   4.934   1.775   0.000
  17)     2.515   3.317   4.061   3.319   1.099   3.156   3.624   4.327   4.933   4.326
          4.322   3.626   3.160   4.329   1.775   1.775   0.000

 Min. Distance =    1.0989
 Max. Distance =    4.9340



 =====================================
 S Y M M E T R Y ,   E L E C T R O N S
 =====================================
  
 Symmetry: NOSYM

 Irreducible Representations, including subspecies
 -------------------------------------------------
 A


 Configuration of Valence Electrons
 ==================================
 ( determined in the SCF procedure )

 Total:   50

 Net Charge: 0 (Nuclei minus Electrons)

 Aufbau principle for MO occupations will be applied through SCF cycle no.     150
 Thereafter, the program will assign electrons to MOs that are spatially
 similar to the occupied MOs in a "reference" cycle ("KeepOrbitals").
 The reference cycle is always the PREVIOUS cycle: it will evolve with
 the SCF procedure.
1
 ***************************************************************************************************



                                      ****************************************
                                      *  B U I L D : (Fragments, Functions)  *
                                      ****************************************
  



 =======
 S F O s  ***  (Symmetrized Fragment Orbitals)  ***
 =======
  
 SFOs are linear combinations of (valence) Fragment Orbitals (FOs), such that the SFOs transform as the
 irreducible representations of the (molecular) symmetry group. Each SFO is therefore characterized by
 an irrep of the molecule and by a few (or only one) generating FOs.
 The SFOs constitute a symmetry-adapted basis for the Fock matrix. The MO eigenvector coefficients in
 this basis provide a direct interpretation of the MOs in terms of Frontier Orbital Theory.

 The SFOs are combined with auxiliary Core Functions (CFs) to ensure orthogonalization on the (frozen)
 Core Orbitals (COs). The Core-orthogonalized SFOs (CSFOs) constitute the true Fock basis.

 The FOs, and hence also the (C)SFOs are combinations of the elementary basis functions (BAS). The basis
 functions that participate in the description of the SFOs depend on the irrep. The indices of the
 involved functions are printed below for each irrep.
 (The complete list of primitive basis functions is printed in another section)

 Total nr. of (C)SFOs (summation over all irreps) :   270

 NOTE: a (C)SFO that is defined as a combination of more than one FO is usually NOT normalized.



                                       === A ===
 Nr. of SFOs :  270
 Cartesian basis functions that participate in this irrep (total number =   302) :
      1     2     3     4    11    12    13     5     8    14
     17    20     6     9    15    18    21     7    10    16
     19    22    23    24    25    26    27    28    29    30
     31    32    33    34    35    36    37    38    39    40
     41    42    43    44    47    50    45    48    51    46
     49    52    53    54    55    56    57    58    59    60
     61    62    63    64    65    66    67    68    69    70
     71    72    73    74    77    80    75    78    81    76
     79    82    83    84    85    86    87    88    89    90
     91    92    93    94    95    96    97    98    99   100
    101   102   103   104   107   110   105   108   111   106
    109   112   113   114   115   116   117   118   119   120
    121   122   123   124   125   126   127   128   129   130
    131   132   133   134   137   140   135   138   141   136
    139   142   143   144   145   146   147   148   149   150
    151   152   153   154   155   156   157   158   159   160
    161   162   163   164   165   166   167   168   169   170
    171   172   173   174   175   176   177   178   179   180
    181   182   183   184   185   186   187   188   189   190
    191   192   193   194   195   196   197   198   199   200
    201   202   203   204   205   206   207   208   209   210
    211   212   213   214   215   216   217   218   219   220
    221   222   223   224   225   226   227   228   229   230
    231   232   233   234   235   236   237   238   239   240
    241   242   243   244   245   246   247   248   249   250
    251   252   253   254   255   256   257   258   259   260
    261   262   263   264   265   266   267   268   269   270
    271   272   273   274   275   276   277   278   279   280
    281   282   283   284   285   286   287   288   289   290
    291   292   293   294   295   296   297   298   299   300
    301   302

    SFO  (index         Fragment          Generating    Expansion in Fragment Orbitals
  indx  incl.CFs)   Occup   Orb.Energy   FragmentType  Coeff.   Orbital     on Fragment
 --------------------------------------------------------------------------------------
     1       1      2.000     -65.507 au  Si            1.00      1 S               1
                        (   -1782.534 eV)
     2       2      2.000      -5.093 au  Si            1.00      2 S               1
                        (    -138.593 eV)
     3       3      2.000      -0.391 au  Si            1.00      3 S               1
                        (     -10.641 eV)
     4       4       --         0.128 au  Si            1.00      4 S               1
                        (       3.470 eV)
     5       5       --         1.507 au  Si            1.00      5 S               1
                        (      40.998 eV)
     6       6       --         9.481 au  Si            1.00      6 S               1
                        (     257.986 eV)
     7       7       --       150.257 au  Si            1.00      7 S               1
                        (    4088.710 eV)
     8       8      2.000      -3.508 au  Si            1.00      1 P:x             1
                        (     -95.456 eV)
     9       9      0.667      -0.145 au  Si            1.00      2 P:x             1
                        (      -3.936 eV)
    10      10       --         0.067 au  Si            1.00      3 P:x             1
                        (       1.821 eV)
    11      11       --         0.686 au  Si            1.00      4 P:x             1
                        (      18.654 eV)
    12      12       --         8.293 au  Si            1.00      5 P:x             1
                        (     225.656 eV)
    13      13      2.000      -3.508 au  Si            1.00      1 P:y             1
                        (     -95.456 eV)
    14      14      0.667      -0.145 au  Si            1.00      2 P:y             1
                        (      -3.936 eV)
    15      15       --         0.067 au  Si            1.00      3 P:y             1
                        (       1.821 eV)
    16      16       --         0.686 au  Si            1.00      4 P:y             1
                        (      18.654 eV)
    17      17       --         8.293 au  Si            1.00      5 P:y             1
                        (     225.656 eV)
    18      18      2.000      -3.508 au  Si            1.00      1 P:z             1
                        (     -95.456 eV)
    19      19      0.667      -0.145 au  Si            1.00      2 P:z             1
                        (      -3.936 eV)
    20      20       --         0.067 au  Si            1.00      3 P:z             1
                        (       1.821 eV)
    21      21       --         0.686 au  Si            1.00      4 P:z             1
                        (      18.654 eV)
    22      22       --         8.293 au  Si            1.00      5 P:z             1
                        (     225.656 eV)
    23      23       --         0.371 au  Si            1.00      1 D:z2            1
                        (      10.085 eV)
    24      24       --         0.371 au  Si            1.00      1 D:x2-y2         1
                        (      10.085 eV)
    25      25       --         0.371 au  Si            1.00      1 D:xy            1
                        (      10.085 eV)
    26      26       --         0.371 au  Si            1.00      1 D:xz            1
                        (      10.085 eV)
    27      27       --         0.371 au  Si            1.00      1 D:yz            1
                        (      10.085 eV)
    28      28       --         1.060 au  Si            1.00      1 F:z3            1
                        (      28.834 eV)
    29      29       --         1.060 au  Si            1.00      1 F:z             1
                        (      28.834 eV)
    30      30       --         1.060 au  Si            1.00      1 F:xyz           1
                        (      28.834 eV)
    31      31       --         1.060 au  Si            1.00      1 F:z2x           1
                        (      28.834 eV)
    32      32       --         1.060 au  Si            1.00      1 F:z2y           1
                        (      28.834 eV)
    33      33       --         1.060 au  Si            1.00      1 F:x             1
                        (      28.834 eV)
    34      34       --         1.060 au  Si            1.00      1 F:y             1
                        (      28.834 eV)
    35      35      2.000     -10.063 au  C             1.00      1 S               2
                        (    -273.823 eV)
    36      36      2.000      -0.500 au  C             1.00      2 S               2
                        (     -13.609 eV)
    37      37       --         0.374 au  C             1.00      3 S               2
                        (      10.173 eV)
    38      38       --         5.411 au  C             1.00      4 S               2
                        (     147.253 eV)
    39      39       --        50.155 au  C             1.00      5 S               2
                        (    1364.777 eV)
    40      40      0.667      -0.193 au  C             1.00      1 P:x             2
                        (      -5.243 eV)
    41      41       --         0.169 au  C             1.00      2 P:x             2
                        (       4.588 eV)
    42      42       --         2.015 au  C             1.00      3 P:x             2
                        (      54.822 eV)
    43      43      0.667      -0.193 au  C             1.00      1 P:y             2
                        (      -5.243 eV)
    44      44       --         0.169 au  C             1.00      2 P:y             2
                        (       4.588 eV)
    45      45       --         2.015 au  C             1.00      3 P:y             2
                        (      54.822 eV)
    46      46      0.667      -0.193 au  C             1.00      1 P:z             2
                        (      -5.243 eV)
    47      47       --         0.169 au  C             1.00      2 P:z             2
                        (       4.588 eV)
    48      48       --         2.015 au  C             1.00      3 P:z             2
                        (      54.822 eV)
    49      49       --         1.243 au  C             1.00      1 D:z2            2
                        (      33.823 eV)
    50      50       --         1.243 au  C             1.00      1 D:x2-y2         2
                        (      33.823 eV)
    51      51       --         1.243 au  C             1.00      1 D:xy            2
                        (      33.823 eV)
    52      52       --         1.243 au  C             1.00      1 D:xz            2
                        (      33.823 eV)
    53      53       --         1.243 au  C             1.00      1 D:yz            2
                        (      33.823 eV)
    54      54       --         4.016 au  C             1.00      1 F:z3            2
                        (     109.288 eV)
    55      55       --         4.016 au  C             1.00      1 F:z             2
                        (     109.288 eV)
    56      56       --         4.016 au  C             1.00      1 F:xyz           2
                        (     109.288 eV)
    57      57       --         4.016 au  C             1.00      1 F:z2x           2
                        (     109.288 eV)
    58      58       --         4.016 au  C             1.00      1 F:z2y           2
                        (     109.288 eV)
    59      59       --         4.016 au  C             1.00      1 F:x             2
                        (     109.288 eV)
    60      60       --         4.016 au  C             1.00      1 F:y             2
                        (     109.288 eV)
    61      61      2.000     -10.063 au  C             1.00      1 S               3
                        (    -273.823 eV)
    62      62      2.000      -0.500 au  C             1.00      2 S               3
                        (     -13.609 eV)
    63      63       --         0.374 au  C             1.00      3 S               3
                        (      10.173 eV)
    64      64       --         5.411 au  C             1.00      4 S               3
                        (     147.253 eV)
    65      65       --        50.155 au  C             1.00      5 S               3
                        (    1364.777 eV)
    66      66      0.667      -0.193 au  C             1.00      1 P:x             3
                        (      -5.243 eV)
    67      67       --         0.169 au  C             1.00      2 P:x             3
                        (       4.588 eV)
    68      68       --         2.015 au  C             1.00      3 P:x             3
                        (      54.822 eV)
    69      69      0.667      -0.193 au  C             1.00      1 P:y             3
                        (      -5.243 eV)
    70      70       --         0.169 au  C             1.00      2 P:y             3
                        (       4.588 eV)
    71      71       --         2.015 au  C             1.00      3 P:y             3
                        (      54.822 eV)
    72      72      0.667      -0.193 au  C             1.00      1 P:z             3
                        (      -5.243 eV)
    73      73       --         0.169 au  C             1.00      2 P:z             3
                        (       4.588 eV)
    74      74       --         2.015 au  C             1.00      3 P:z             3
                        (      54.822 eV)
    75      75       --         1.243 au  C             1.00      1 D:z2            3
                        (      33.823 eV)
    76      76       --         1.243 au  C             1.00      1 D:x2-y2         3
                        (      33.823 eV)
    77      77       --         1.243 au  C             1.00      1 D:xy            3
                        (      33.823 eV)
    78      78       --         1.243 au  C             1.00      1 D:xz            3
                        (      33.823 eV)
    79      79       --         1.243 au  C             1.00      1 D:yz            3
                        (      33.823 eV)
    80      80       --         4.016 au  C             1.00      1 F:z3            3
                        (     109.288 eV)
    81      81       --         4.016 au  C             1.00      1 F:z             3
                        (     109.288 eV)
    82      82       --         4.016 au  C             1.00      1 F:xyz           3
                        (     109.288 eV)
    83      83       --         4.016 au  C             1.00      1 F:z2x           3
                        (     109.288 eV)
    84      84       --         4.016 au  C             1.00      1 F:z2y           3
                        (     109.288 eV)
    85      85       --         4.016 au  C             1.00      1 F:x             3
                        (     109.288 eV)
    86      86       --         4.016 au  C             1.00      1 F:y             3
                        (     109.288 eV)
    87      87      2.000     -10.063 au  C             1.00      1 S               4
                        (    -273.823 eV)
    88      88      2.000      -0.500 au  C             1.00      2 S               4
                        (     -13.609 eV)
    89      89       --         0.374 au  C             1.00      3 S               4
                        (      10.173 eV)
    90      90       --         5.411 au  C             1.00      4 S               4
                        (     147.253 eV)
    91      91       --        50.155 au  C             1.00      5 S               4
                        (    1364.777 eV)
    92      92      0.667      -0.193 au  C             1.00      1 P:x             4
                        (      -5.243 eV)
    93      93       --         0.169 au  C             1.00      2 P:x             4
                        (       4.588 eV)
    94      94       --         2.015 au  C             1.00      3 P:x             4
                        (      54.822 eV)
    95      95      0.667      -0.193 au  C             1.00      1 P:y             4
                        (      -5.243 eV)
    96      96       --         0.169 au  C             1.00      2 P:y             4
                        (       4.588 eV)
    97      97       --         2.015 au  C             1.00      3 P:y             4
                        (      54.822 eV)
    98      98      0.667      -0.193 au  C             1.00      1 P:z             4
                        (      -5.243 eV)
    99      99       --         0.169 au  C             1.00      2 P:z             4
                        (       4.588 eV)
   100     100       --         2.015 au  C             1.00      3 P:z             4
                        (      54.822 eV)
   101     101       --         1.243 au  C             1.00      1 D:z2            4
                        (      33.823 eV)
   102     102       --         1.243 au  C             1.00      1 D:x2-y2         4
                        (      33.823 eV)
   103     103       --         1.243 au  C             1.00      1 D:xy            4
                        (      33.823 eV)
   104     104       --         1.243 au  C             1.00      1 D:xz            4
                        (      33.823 eV)
   105     105       --         1.243 au  C             1.00      1 D:yz            4
                        (      33.823 eV)
   106     106       --         4.016 au  C             1.00      1 F:z3            4
                        (     109.288 eV)
   107     107       --         4.016 au  C             1.00      1 F:z             4
                        (     109.288 eV)
   108     108       --         4.016 au  C             1.00      1 F:xyz           4
                        (     109.288 eV)
   109     109       --         4.016 au  C             1.00      1 F:z2x           4
                        (     109.288 eV)
   110     110       --         4.016 au  C             1.00      1 F:z2y           4
                        (     109.288 eV)
   111     111       --         4.016 au  C             1.00      1 F:x             4
                        (     109.288 eV)
   112     112       --         4.016 au  C             1.00      1 F:y             4
                        (     109.288 eV)
   113     113      2.000     -10.063 au  C             1.00      1 S               5
                        (    -273.823 eV)
   114     114      2.000      -0.500 au  C             1.00      2 S               5
                        (     -13.609 eV)
   115     115       --         0.374 au  C             1.00      3 S               5
                        (      10.173 eV)
   116     116       --         5.411 au  C             1.00      4 S               5
                        (     147.253 eV)
   117     117       --        50.155 au  C             1.00      5 S               5
                        (    1364.777 eV)
   118     118      0.667      -0.193 au  C             1.00      1 P:x             5
                        (      -5.243 eV)
   119     119       --         0.169 au  C             1.00      2 P:x             5
                        (       4.588 eV)
   120     120       --         2.015 au  C             1.00      3 P:x             5
                        (      54.822 eV)
   121     121      0.667      -0.193 au  C             1.00      1 P:y             5
                        (      -5.243 eV)
   122     122       --         0.169 au  C             1.00      2 P:y             5
                        (       4.588 eV)
   123     123       --         2.015 au  C             1.00      3 P:y             5
                        (      54.822 eV)
   124     124      0.667      -0.193 au  C             1.00      1 P:z             5
                        (      -5.243 eV)
   125     125       --         0.169 au  C             1.00      2 P:z             5
                        (       4.588 eV)
   126     126       --         2.015 au  C             1.00      3 P:z             5
                        (      54.822 eV)
   127     127       --         1.243 au  C             1.00      1 D:z2            5
                        (      33.823 eV)
   128     128       --         1.243 au  C             1.00      1 D:x2-y2         5
                        (      33.823 eV)
   129     129       --         1.243 au  C             1.00      1 D:xy            5
                        (      33.823 eV)
   130     130       --         1.243 au  C             1.00      1 D:xz            5
                        (      33.823 eV)
   131     131       --         1.243 au  C             1.00      1 D:yz            5
                        (      33.823 eV)
   132     132       --         4.016 au  C             1.00      1 F:z3            5
                        (     109.288 eV)
   133     133       --         4.016 au  C             1.00      1 F:z             5
                        (     109.288 eV)
   134     134       --         4.016 au  C             1.00      1 F:xyz           5
                        (     109.288 eV)
   135     135       --         4.016 au  C             1.00      1 F:z2x           5
                        (     109.288 eV)
   136     136       --         4.016 au  C             1.00      1 F:z2y           5
                        (     109.288 eV)
   137     137       --         4.016 au  C             1.00      1 F:x             5
                        (     109.288 eV)
   138     138       --         4.016 au  C             1.00      1 F:y             5
                        (     109.288 eV)
   139     139      1.000      -0.240 au  H             1.00      1 S               6
                        (      -6.532 eV)
   140     140       --         0.088 au  H             1.00      2 S               6
                        (       2.394 eV)
   141     141       --         1.502 au  H             1.00      3 S               6
                        (      40.877 eV)
   142     142       --         0.406 au  H             1.00      1 P:x             6
                        (      11.052 eV)
   143     143       --         0.406 au  H             1.00      1 P:y             6
                        (      11.052 eV)
   144     144       --         0.406 au  H             1.00      1 P:z             6
                        (      11.052 eV)
   145     145       --         2.570 au  H             1.00      1 D:z2            6
                        (      69.925 eV)
   146     146       --         2.570 au  H             1.00      1 D:x2-y2         6
                        (      69.925 eV)
   147     147       --         2.570 au  H             1.00      1 D:xy            6
                        (      69.925 eV)
   148     148       --         2.570 au  H             1.00      1 D:xz            6
                        (      69.925 eV)
   149     149       --         2.570 au  H             1.00      1 D:yz            6
                        (      69.925 eV)
   150     150      1.000      -0.240 au  H             1.00      1 S               7
                        (      -6.532 eV)
   151     151       --         0.088 au  H             1.00      2 S               7
                        (       2.394 eV)
   152     152       --         1.502 au  H             1.00      3 S               7
                        (      40.877 eV)
   153     153       --         0.406 au  H             1.00      1 P:x             7
                        (      11.052 eV)
   154     154       --         0.406 au  H             1.00      1 P:y             7
                        (      11.052 eV)
   155     155       --         0.406 au  H             1.00      1 P:z             7
                        (      11.052 eV)
   156     156       --         2.570 au  H             1.00      1 D:z2            7
                        (      69.925 eV)
   157     157       --         2.570 au  H             1.00      1 D:x2-y2         7
                        (      69.925 eV)
   158     158       --         2.570 au  H             1.00      1 D:xy            7
                        (      69.925 eV)
   159     159       --         2.570 au  H             1.00      1 D:xz            7
                        (      69.925 eV)
   160     160       --         2.570 au  H             1.00      1 D:yz            7
                        (      69.925 eV)
   161     161      1.000      -0.240 au  H             1.00      1 S               8
                        (      -6.532 eV)
   162     162       --         0.088 au  H             1.00      2 S               8
                        (       2.394 eV)
   163     163       --         1.502 au  H             1.00      3 S               8
                        (      40.877 eV)
   164     164       --         0.406 au  H             1.00      1 P:x             8
                        (      11.052 eV)
   165     165       --         0.406 au  H             1.00      1 P:y             8
                        (      11.052 eV)
   166     166       --         0.406 au  H             1.00      1 P:z             8
                        (      11.052 eV)
   167     167       --         2.570 au  H             1.00      1 D:z2            8
                        (      69.925 eV)
   168     168       --         2.570 au  H             1.00      1 D:x2-y2         8
                        (      69.925 eV)
   169     169       --         2.570 au  H             1.00      1 D:xy            8
                        (      69.925 eV)
   170     170       --         2.570 au  H             1.00      1 D:xz            8
                        (      69.925 eV)
   171     171       --         2.570 au  H             1.00      1 D:yz            8
                        (      69.925 eV)
   172     172      1.000      -0.240 au  H             1.00      1 S               9
                        (      -6.532 eV)
   173     173       --         0.088 au  H             1.00      2 S               9
                        (       2.394 eV)
   174     174       --         1.502 au  H             1.00      3 S               9
                        (      40.877 eV)
   175     175       --         0.406 au  H             1.00      1 P:x             9
                        (      11.052 eV)
   176     176       --         0.406 au  H             1.00      1 P:y             9
                        (      11.052 eV)
   177     177       --         0.406 au  H             1.00      1 P:z             9
                        (      11.052 eV)
   178     178       --         2.570 au  H             1.00      1 D:z2            9
                        (      69.925 eV)
   179     179       --         2.570 au  H             1.00      1 D:x2-y2         9
                        (      69.925 eV)
   180     180       --         2.570 au  H             1.00      1 D:xy            9
                        (      69.925 eV)
   181     181       --         2.570 au  H             1.00      1 D:xz            9
                        (      69.925 eV)
   182     182       --         2.570 au  H             1.00      1 D:yz            9
                        (      69.925 eV)
   183     183      1.000      -0.240 au  H             1.00      1 S              10
                        (      -6.532 eV)
   184     184       --         0.088 au  H             1.00      2 S              10
                        (       2.394 eV)
   185     185       --         1.502 au  H             1.00      3 S              10
                        (      40.877 eV)
   186     186       --         0.406 au  H             1.00      1 P:x            10
                        (      11.052 eV)
   187     187       --         0.406 au  H             1.00      1 P:y            10
                        (      11.052 eV)
   188     188       --         0.406 au  H             1.00      1 P:z            10
                        (      11.052 eV)
   189     189       --         2.570 au  H             1.00      1 D:z2           10
                        (      69.925 eV)
   190     190       --         2.570 au  H             1.00      1 D:x2-y2        10
                        (      69.925 eV)
   191     191       --         2.570 au  H             1.00      1 D:xy           10
                        (      69.925 eV)
   192     192       --         2.570 au  H             1.00      1 D:xz           10
                        (      69.925 eV)
   193     193       --         2.570 au  H             1.00      1 D:yz           10
                        (      69.925 eV)
   194     194      1.000      -0.240 au  H             1.00      1 S              11
                        (      -6.532 eV)
   195     195       --         0.088 au  H             1.00      2 S              11
                        (       2.394 eV)
   196     196       --         1.502 au  H             1.00      3 S              11
                        (      40.877 eV)
   197     197       --         0.406 au  H             1.00      1 P:x            11
                        (      11.052 eV)
   198     198       --         0.406 au  H             1.00      1 P:y            11
                        (      11.052 eV)
   199     199       --         0.406 au  H             1.00      1 P:z            11
                        (      11.052 eV)
   200     200       --         2.570 au  H             1.00      1 D:z2           11
                        (      69.925 eV)
   201     201       --         2.570 au  H             1.00      1 D:x2-y2        11
                        (      69.925 eV)
   202     202       --         2.570 au  H             1.00      1 D:xy           11
                        (      69.925 eV)
   203     203       --         2.570 au  H             1.00      1 D:xz           11
                        (      69.925 eV)
   204     204       --         2.570 au  H             1.00      1 D:yz           11
                        (      69.925 eV)
   205     205      1.000      -0.240 au  H             1.00      1 S              12
                        (      -6.532 eV)
   206     206       --         0.088 au  H             1.00      2 S              12
                        (       2.394 eV)
   207     207       --         1.502 au  H             1.00      3 S              12
                        (      40.877 eV)
   208     208       --         0.406 au  H             1.00      1 P:x            12
                        (      11.052 eV)
   209     209       --         0.406 au  H             1.00      1 P:y            12
                        (      11.052 eV)
   210     210       --         0.406 au  H             1.00      1 P:z            12
                        (      11.052 eV)
   211     211       --         2.570 au  H             1.00      1 D:z2           12
                        (      69.925 eV)
   212     212       --         2.570 au  H             1.00      1 D:x2-y2        12
                        (      69.925 eV)
   213     213       --         2.570 au  H             1.00      1 D:xy           12
                        (      69.925 eV)
   214     214       --         2.570 au  H             1.00      1 D:xz           12
                        (      69.925 eV)
   215     215       --         2.570 au  H             1.00      1 D:yz           12
                        (      69.925 eV)
   216     216      1.000      -0.240 au  H             1.00      1 S              13
                        (      -6.532 eV)
   217     217       --         0.088 au  H             1.00      2 S              13
                        (       2.394 eV)
   218     218       --         1.502 au  H             1.00      3 S              13
                        (      40.877 eV)
   219     219       --         0.406 au  H             1.00      1 P:x            13
                        (      11.052 eV)
   220     220       --         0.406 au  H             1.00      1 P:y            13
                        (      11.052 eV)
   221     221       --         0.406 au  H             1.00      1 P:z            13
                        (      11.052 eV)
   222     222       --         2.570 au  H             1.00      1 D:z2           13
                        (      69.925 eV)
   223     223       --         2.570 au  H             1.00      1 D:x2-y2        13
                        (      69.925 eV)
   224     224       --         2.570 au  H             1.00      1 D:xy           13
                        (      69.925 eV)
   225     225       --         2.570 au  H             1.00      1 D:xz           13
                        (      69.925 eV)
   226     226       --         2.570 au  H             1.00      1 D:yz           13
                        (      69.925 eV)
   227     227      1.000      -0.240 au  H             1.00      1 S              14
                        (      -6.532 eV)
   228     228       --         0.088 au  H             1.00      2 S              14
                        (       2.394 eV)
   229     229       --         1.502 au  H             1.00      3 S              14
                        (      40.877 eV)
   230     230       --         0.406 au  H             1.00      1 P:x            14
                        (      11.052 eV)
   231     231       --         0.406 au  H             1.00      1 P:y            14
                        (      11.052 eV)
   232     232       --         0.406 au  H             1.00      1 P:z            14
                        (      11.052 eV)
   233     233       --         2.570 au  H             1.00      1 D:z2           14
                        (      69.925 eV)
   234     234       --         2.570 au  H             1.00      1 D:x2-y2        14
                        (      69.925 eV)
   235     235       --         2.570 au  H             1.00      1 D:xy           14
                        (      69.925 eV)
   236     236       --         2.570 au  H             1.00      1 D:xz           14
                        (      69.925 eV)
   237     237       --         2.570 au  H             1.00      1 D:yz           14
                        (      69.925 eV)
   238     238      1.000      -0.240 au  H             1.00      1 S              15
                        (      -6.532 eV)
   239     239       --         0.088 au  H             1.00      2 S              15
                        (       2.394 eV)
   240     240       --         1.502 au  H             1.00      3 S              15
                        (      40.877 eV)
   241     241       --         0.406 au  H             1.00      1 P:x            15
                        (      11.052 eV)
   242     242       --         0.406 au  H             1.00      1 P:y            15
                        (      11.052 eV)
   243     243       --         0.406 au  H             1.00      1 P:z            15
                        (      11.052 eV)
   244     244       --         2.570 au  H             1.00      1 D:z2           15
                        (      69.925 eV)
   245     245       --         2.570 au  H             1.00      1 D:x2-y2        15
                        (      69.925 eV)
   246     246       --         2.570 au  H             1.00      1 D:xy           15
                        (      69.925 eV)
   247     247       --         2.570 au  H             1.00      1 D:xz           15
                        (      69.925 eV)
   248     248       --         2.570 au  H             1.00      1 D:yz           15
                        (      69.925 eV)
   249     249      1.000      -0.240 au  H             1.00      1 S              16
                        (      -6.532 eV)
   250     250       --         0.088 au  H             1.00      2 S              16
                        (       2.394 eV)
   251     251       --         1.502 au  H             1.00      3 S              16
                        (      40.877 eV)
   252     252       --         0.406 au  H             1.00      1 P:x            16
                        (      11.052 eV)
   253     253       --         0.406 au  H             1.00      1 P:y            16
                        (      11.052 eV)
   254     254       --         0.406 au  H             1.00      1 P:z            16
                        (      11.052 eV)
   255     255       --         2.570 au  H             1.00      1 D:z2           16
                        (      69.925 eV)
   256     256       --         2.570 au  H             1.00      1 D:x2-y2        16
                        (      69.925 eV)
   257     257       --         2.570 au  H             1.00      1 D:xy           16
                        (      69.925 eV)
   258     258       --         2.570 au  H             1.00      1 D:xz           16
                        (      69.925 eV)
   259     259       --         2.570 au  H             1.00      1 D:yz           16
                        (      69.925 eV)
   260     260      1.000      -0.240 au  H             1.00      1 S              17
                        (      -6.532 eV)
   261     261       --         0.088 au  H             1.00      2 S              17
                        (       2.394 eV)
   262     262       --         1.502 au  H             1.00      3 S              17
                        (      40.877 eV)
   263     263       --         0.406 au  H             1.00      1 P:x            17
                        (      11.052 eV)
   264     264       --         0.406 au  H             1.00      1 P:y            17
                        (      11.052 eV)
   265     265       --         0.406 au  H             1.00      1 P:z            17
                        (      11.052 eV)
   266     266       --         2.570 au  H             1.00      1 D:z2           17
                        (      69.925 eV)
   267     267       --         2.570 au  H             1.00      1 D:x2-y2        17
                        (      69.925 eV)
   268     268       --         2.570 au  H             1.00      1 D:xy           17
                        (      69.925 eV)
   269     269       --         2.570 au  H             1.00      1 D:xz           17
[...]
     8     H      -0.072691  -0.231465  -0.055437
     9     H      -0.093370  -0.144928  -0.124846
    10     H       0.078431   0.082520   0.313859
    11     H      -0.296641   0.220202   0.134684
    12     H      -0.126560   0.128847   0.088299
    13     H       0.140846  -0.050873  -0.300989
    14     H      -0.189572  -0.277594  -0.165807
    15     H      -0.141681   0.164246   0.043021
    16     H       0.185772   0.186886   0.182628
    17     H       0.165757  -0.109469  -0.032015
 
 Mode:    37      Frequency (cm-1):     1429.4752     Intensity (km/mol):        9.6259
 Index  Atom      ---- Displacements (x/y/z) ----
     1    Si      -0.001052   0.007272  -0.004684
     2     C       0.004181   0.030715  -0.004749
     3     C      -0.015452   0.007422  -0.018492
     4     C       0.013826   0.008658  -0.017815
     5     C      -0.013824   0.030626  -0.008931
     6     H       0.020207   0.021667  -0.216619
     7     H      -0.164488  -0.096695   0.245204
     8     H       0.086332  -0.366700   0.043263
     9     H       0.213308  -0.147381   0.169212
    10     H      -0.115661  -0.062189   0.199329
    11     H       0.122786   0.096947  -0.101623
    12     H      -0.169001  -0.200002   0.110768
    13     H       0.063609  -0.026966   0.240661
    14     H      -0.089519   0.096797  -0.095584
    15     H      -0.023241  -0.405399   0.045531
    16     H       0.041846   0.049633  -0.219724
    17     H       0.177197  -0.083416   0.304792
 
 Mode:    38      Frequency (cm-1):     1429.8054     Intensity (km/mol):        9.8498
 Index  Atom      ---- Displacements (x/y/z) ----
     1    Si       0.007974   0.002654   0.002336
     2     C       0.020126   0.007951  -0.013669
     3     C       0.019365  -0.012073   0.007305
     4     C       0.021622   0.021545   0.009448
     5     C       0.023677   0.010999   0.021838
     6     H      -0.216557   0.132024  -0.003484
     7     H      -0.218327  -0.191489   0.102615
     8     H       0.142527  -0.056040   0.091672
     9     H      -0.209708   0.075811  -0.182237
    10     H       0.132023   0.086968  -0.053680
    11     H      -0.204624   0.005260   0.128744
    12     H      -0.261200  -0.047082   0.174361
    13     H       0.194933  -0.074704  -0.078052
    14     H      -0.247915  -0.185830  -0.231195
    15     H       0.205772  -0.068244  -0.079143
    16     H      -0.261102  -0.264801  -0.164156
    17     H      -0.286757   0.176009  -0.067046
 
 Mode:    39      Frequency (cm-1):     1430.2532     Intensity (km/mol):        9.5381
 Index  Atom      ---- Displacements (x/y/z) ----
     1    Si       0.003391  -0.003991  -0.006959
     2     C       0.023722  -0.013541  -0.010781
     3     C       0.019208  -0.008921  -0.027872
     4     C      -0.000144  -0.002109  -0.030550
     5     C      -0.006615  -0.017729  -0.004809
     6     H      -0.292618   0.153636   0.155663
     7     H      -0.149602  -0.171763  -0.072493
     8     H       0.103633   0.214839   0.076361
     9     H      -0.049225  -0.198630  -0.092852
    10     H       0.055585   0.073799   0.377657
    11     H      -0.280103   0.254554   0.116689
    12     H      -0.023050  -0.237919   0.012403
    13     H      -0.049418   0.015579   0.375154
    14     H       0.070148   0.255719   0.050760
    15     H      -0.078989   0.199530   0.015213
    16     H       0.105915   0.104917   0.160928
    17     H       0.062915  -0.049801  -0.101054
 
 Mode:    40      Frequency (cm-1):     2934.7032     Intensity (km/mol):       23.6896
 Index  Atom      ---- Displacements (x/y/z) ----
     1    Si       0.000008  -0.000106  -0.000851
     2     C       0.018497   0.003534   0.031623
     3     C       0.002410   0.004446   0.000072
     4     C      -0.000468   0.000475  -0.000132
     5     C      -0.020460  -0.001853   0.023983
     6     H      -0.206896  -0.386118  -0.006436
     7     H      -0.291024   0.325030  -0.035795
     8     H       0.281605   0.020123  -0.324699
     9     H      -0.040985  -0.003720   0.047138
    10     H       0.040186  -0.044038   0.004883
    11     H      -0.027372  -0.003870  -0.049956
    12     H       0.006078   0.000238   0.009369
    13     H      -0.003666  -0.006386  -0.000349
    14     H       0.003013   0.000963  -0.004579
    15     H      -0.185458  -0.034747  -0.319631
    16     H       0.246855  -0.275624   0.033157
    17     H       0.177691   0.332473   0.009145
 
 Mode:    41      Frequency (cm-1):     2934.8024     Intensity (km/mol):       23.4246
 Index  Atom      ---- Displacements (x/y/z) ----
     1    Si       0.000685   0.000499  -0.000060
     2     C      -0.008461  -0.001601  -0.014723
     3     C      -0.017587  -0.033101  -0.001061
     4     C      -0.002256   0.002670  -0.000334
     5     C      -0.016684  -0.001417   0.019688
     6     H       0.094182   0.176397   0.001924
     7     H       0.134571  -0.150085   0.016298
     8     H      -0.132073  -0.009302   0.154128
     9     H       0.286723   0.019774  -0.334867
    10     H      -0.299285   0.328751  -0.037750
    11     H       0.215817   0.036838   0.385237
    12     H       0.019684   0.004393   0.034951
    13     H      -0.020551  -0.040040  -0.000865
    14     H       0.024873   0.002752  -0.029940
    15     H      -0.152586  -0.028573  -0.265707
    16     H       0.202189  -0.225509   0.027307
    17     H       0.143104   0.269048   0.008448
 
 Mode:    42      Frequency (cm-1):     2935.0264     Intensity (km/mol):       23.3448
 Index  Atom      ---- Displacements (x/y/z) ----
     1    Si      -0.000504   0.000678  -0.000079
     2     C       0.007150   0.001492   0.012437
     3     C      -0.009125  -0.016903  -0.000549
     4     C       0.026899  -0.029903   0.004101
     5     C       0.008317   0.000806  -0.009814
     6     H      -0.082328  -0.152691  -0.003035
     7     H      -0.111070   0.124832  -0.012591
     8     H       0.111347   0.008098  -0.129628
     9     H       0.148455   0.011044  -0.173199
    10     H      -0.151649   0.164707  -0.019058
    11     H       0.111604   0.019706   0.198991
    12     H      -0.237454  -0.046919  -0.418652
    13     H       0.228946   0.419422   0.010309
    14     H      -0.304139  -0.025262   0.360480
    15     H       0.076051   0.014440   0.132736
    16     H      -0.098057   0.110403  -0.014203
    17     H      -0.073508  -0.136657  -0.003469
 
 Mode:    43      Frequency (cm-1):     2937.5292     Intensity (km/mol):        0.1234
 Index  Atom      ---- Displacements (x/y/z) ----
     1    Si       0.000047  -0.000032   0.000011
     2     C       0.011391   0.002163   0.019600
     3     C      -0.011254  -0.021084  -0.000618
     4     C      -0.017921   0.019950  -0.002787
     5     C       0.015117   0.001370  -0.017709
     6     H      -0.128455  -0.238981  -0.004621
     7     H      -0.180674   0.201160  -0.022808
     8     H       0.174784   0.012396  -0.203423
     9     H       0.184482   0.013793  -0.214774
    10     H      -0.190439   0.210195  -0.023970
    11     H       0.138230   0.024405   0.246093
    12     H       0.159506   0.030676   0.280099
    13     H      -0.152430  -0.281422  -0.006842
    14     H       0.203552   0.016153  -0.240470
    15     H       0.136847   0.025738   0.238674
    16     H      -0.183236   0.203888  -0.023921
    17     H      -0.131714  -0.245668  -0.006315
 
 Mode:    44      Frequency (cm-1):     2997.5490     Intensity (km/mol):        0.0360
 Index  Atom      ---- Displacements (x/y/z) ----
     1    Si      -0.000011  -0.000014   0.000005
     2     C       0.019561  -0.034738  -0.007435
     3     C      -0.022364   0.011230   0.025325
     4     C      -0.021071  -0.023669  -0.038664
     5     C       0.022461   0.044527   0.022145
     6     H       0.105231   0.172598   0.006699
     7     H      -0.242739   0.260298  -0.041434
     8     H      -0.097246  -0.015828   0.123803
     9     H       0.205323   0.026416  -0.233890
    10     H       0.126525  -0.151132   0.023375
    11     H      -0.063385  -0.009967  -0.093377
    12     H       0.219105   0.026100   0.370567
    13     H       0.133719   0.268257  -0.004227
    14     H      -0.099716  -0.010217   0.097890
    15     H      -0.151571  -0.018900  -0.286714
    16     H       0.111906  -0.103296   0.015780
    17     H      -0.230014  -0.412400   0.005054
 
 Mode:    45      Frequency (cm-1):     2997.8742     Intensity (km/mol):        0.9796
 Index  Atom      ---- Displacements (x/y/z) ----
     1    Si       0.000008   0.000097  -0.000064
     2     C       0.022815   0.038203  -0.017251
     3     C      -0.032133   0.018292  -0.034319
     4     C      -0.023316  -0.019228   0.014886
     5     C       0.033804  -0.023299   0.027266
     6     H      -0.199489  -0.362203  -0.022148
     7     H       0.101308  -0.093979   0.010897
     8     H      -0.175629  -0.002736   0.218757
     9     H      -0.046208   0.000331   0.034525
    10     H       0.229365  -0.272136   0.021517
    11     H       0.202493   0.051674   0.356234
    12     H      -0.003251  -0.004614   0.008547
    13     H       0.114366   0.232246   0.008838
    14     H       0.168860   0.002845  -0.195869
    15     H      -0.164614  -0.039324  -0.315003
    16     H      -0.267835   0.292698  -0.019465
    17     H       0.026484   0.026201   0.007098
 
 Mode:    46      Frequency (cm-1):     2998.8173     Intensity (km/mol):        0.9114
 Index  Atom      ---- Displacements (x/y/z) ----
     1    Si      -0.000043  -0.000022  -0.000096
     2     C       0.005206   0.052238  -0.008701
     3     C       0.023654  -0.014005   0.041866
     4     C      -0.023514  -0.025555  -0.036329
     5     C      -0.011585  -0.016364  -0.010962
     6     H      -0.223274  -0.393769  -0.021426
     7     H       0.235807  -0.241664   0.035206
     8     H      -0.074798   0.007749   0.091454
     9     H       0.113804   0.008564  -0.112543
    10     H      -0.180235   0.213215  -0.013175
    11     H      -0.217749  -0.053261  -0.377366
    12     H       0.215595   0.025143   0.366357
    13     H       0.145034   0.291247  -0.003015
    14     H      -0.077865  -0.009407   0.073425
    15     H       0.073480   0.010481   0.139438
    16     H      -0.025649   0.020770  -0.004843
    17     H       0.091312   0.165428  -0.002656
 
 Mode:    47      Frequency (cm-1):     2999.1450     Intensity (km/mol):        2.2568
 Index  Atom      ---- Displacements (x/y/z) ----
     1    Si      -0.000124  -0.000128  -0.000021
     2     C       0.040093  -0.016372  -0.021184
     3     C      -0.040496   0.020678   0.033980
     4     C       0.010304   0.010437   0.009661
     5     C      -0.027711  -0.033114  -0.025857
     6     H      -0.008741  -0.038429  -0.006771
     7     H      -0.230028   0.256529  -0.043533
     8     H      -0.242652  -0.021167   0.305091
     9     H       0.315178   0.041415  -0.361739
    10     H       0.236668  -0.282210   0.039753
    11     H      -0.064708  -0.006907  -0.086226
    12     H      -0.067745  -0.007615  -0.116754
    13     H      -0.060006  -0.120275  -0.000318
    14     H       0.004022   0.002652   0.000893
    15     H       0.171577   0.026263   0.325518
    16     H      -0.032235   0.019212  -0.008812
    17     H       0.194188   0.352825  -0.006032
 
 Mode:    48      Frequency (cm-1):     2999.3453     Intensity (km/mol):        5.4069
 Index  Atom      ---- Displacements (x/y/z) ----
     1    Si      -0.000097  -0.000261   0.000055
     2     C      -0.037042  -0.010342   0.022350
     3     C      -0.020008   0.010438   0.010504
     4     C       0.019530   0.012500  -0.042934
     5     C       0.024909  -0.049630   0.017965
     6     H       0.113087   0.218470   0.016324
     7     H       0.088230  -0.108645   0.020994
     8     H       0.243919   0.014926  -0.305902
     9     H       0.125693   0.017300  -0.146345
    10     H       0.120915  -0.143817   0.018771
    11     H      -0.005508   0.002361   0.001399
    12     H       0.132529   0.021344   0.205287
    13     H      -0.078591  -0.160861  -0.014120
    14     H      -0.288585  -0.009913   0.324720
    15     H      -0.099270  -0.032493  -0.191509
    16     H      -0.353702   0.376295  -0.029602
    17     H       0.154132   0.253216   0.004567
 
 Mode:    49      Frequency (cm-1):     2999.9158     Intensity (km/mol):       72.3783
 Index  Atom      ---- Displacements (x/y/z) ----
     1    Si      -0.000583  -0.000372  -0.000788
     2     C      -0.007563  -0.019119   0.006525
     3     C      -0.009808   0.006884  -0.050759
     4     C      -0.027047  -0.028444  -0.033720
     5     C      -0.036543  -0.011205  -0.031886
     6     H       0.094585   0.169538   0.010459
     7     H      -0.062737   0.061547  -0.008110
     8     H       0.061761  -0.000284  -0.076479
     9     H      -0.206872  -0.021582   0.220407
    10     H       0.095895  -0.113333   0.000218
    11     H       0.230979   0.054696   0.391013
    12     H       0.215249   0.023712   0.366318
    13     H       0.161736   0.326897  -0.001226
    14     H      -0.050324  -0.008510   0.041762
    15     H       0.203416   0.038338   0.389626
    16     H       0.114046  -0.135034   0.003777
    17     H       0.122434   0.232099  -0.008054
 
 Mode:    50      Frequency (cm-1):     3000.1656     Intensity (km/mol):       70.8229
 Index  Atom      ---- Displacements (x/y/z) ----
     1    Si      -0.000363   0.000947  -0.000221
     2     C      -0.017535   0.046472   0.005010
     3     C      -0.040564   0.021881  -0.005229
     4     C       0.025057   0.020288  -0.018542
     5     C      -0.017490   0.043218  -0.012000
     6     H      -0.156875  -0.264577  -0.012775
     7     H       0.294101  -0.312166   0.049847
     8     H       0.074685   0.016410  -0.095989
     9     H       0.124863   0.020357  -0.154372
    10     H       0.265099  -0.316691   0.033800
    11     H       0.097268   0.029539   0.183785
    12     H       0.016099   0.006208   0.012147
    13     H      -0.122673  -0.250566  -0.009787
    14     H      -0.191650  -0.003654   0.221141
    15     H       0.063163   0.023370   0.123179
    16     H       0.290467  -0.306849   0.023948
    17     H      -0.142822  -0.237695  -0.002511
 
 Mode:    51      Frequency (cm-1):     3000.6086     Intensity (km/mol):       73.1323
 Index  Atom      ---- Displacements (x/y/z) ----
     1    Si      -0.000799  -0.000103   0.000671
     2     C      -0.045213  -0.001937   0.026109
     3     C      -0.025030   0.012520   0.030401
     4     C      -0.035453  -0.026862   0.043013
     5     C      -0.006485   0.001986  -0.005487
     6     H       0.094386   0.189543   0.015860
     7     H       0.160586  -0.186098   0.034005
     8     H       0.289812   0.019941  -0.365495
     9     H       0.242019   0.031804  -0.274329
    10     H       0.139406  -0.167278   0.025697
    11     H      -0.078339  -0.013432  -0.117962
    12     H      -0.091115  -0.017968  -0.129040
    13     H       0.162008   0.331525   0.017334
    14     H       0.357483   0.008515  -0.406431
    15     H       0.032080   0.006987   0.061161
    16     H       0.042244  -0.046483   0.002553
    17     H       0.007334   0.016014  -0.001631

PES point character: Geometry corresponds to a local minimum on the PES.




 ============================
 Statistical Thermal Analysis  ***  ideal gas assumed  ***
 ============================
  
 Pressure:                  1.000000 atm.
 Temperature:             298.150000 K



 Moments of Inertia [amu*bohr^2] and principal axis
 ==================================================

         593.3854        593.9685        595.0772
 ------------------------------------------------
           0.1008          0.9835         -0.1505
           0.7161         -0.1767         -0.6753
           0.6907          0.0397          0.7221


 The rotational contribution to the molecular entropy includes
 a term, dependent on the symmetry number sigma. The results 
 reported below were computed using sigma = 1, determined from
 the point group symmetry of the input geometry (NOSYM). 
 If this is not the correct symmetry, try symmetrizing the molecule before
 running the calculation (note: linear molecules should be aligned along one
 of the Cartesian axes).
 Contributions from frequencies below 20 1/cm are not included in vibrational sums.
 Their contributions, if any, are reported separately.


     Temp                                                        Transl      Rotat     Vibrat     Total
     ----                                                        ------      -----     ------     -----

     298.15   Entropy (cal/mol-K):                               39.339     26.842     23.599     89.780
              Nuclear Internal Energy (kcal/mol):                 0.889      0.889     93.620     95.397
              Constant Volume Heat Capacity (cal/mol-K):          2.981      2.981     27.501     33.463
          (c) Constant Volume Heat Capacity (cal/mol-K):          2.981      2.981     26.914     32.876

       Summary of energy terms
                                                   hartree              eV         kcal/mol           kJ/mol
                                      --------------------     -----------       ----------      -----------
      Energy from Engine:               -3.046724728402278        -82.9056         -1911.85         -7999.17
      Nuclear Internal Energy:           0.152025030646165          4.1368            95.40           399.14
  (c) Nuclear Internal Energy:           0.151656492184366          4.1268            95.17           398.17
      Internal Energy U:                -2.894699697756113        -78.7688         -1816.45         -7600.03
      pV/n = RT:                         0.000944186013486          0.0257             0.59             2.48
      Enthalpy H:                       -2.893755511742627        -78.7431         -1815.86         -7597.55
      -T*S:                             -0.042657453644954         -1.1608           -26.77          -112.00
  (c) -T*S:                             -0.042642862072150         -1.1604           -26.76          -111.96
      Gibbs free energy:                -2.936412965387582        -79.9039         -1842.63         -7709.55
 
 
 
  (c) The properties marked with this symbol have been corrected using 'low vibrational frequency free rotor
      interpolation corrections'. For those terms all positive frequencies are used (also ones below 20 1/cm),
      but the contribution to the partition function of small vibrational frequencies is modified as described
      in the following paper:
      S. Grimme, 'Supramolecular Binding Thermodynamics by Dispersion-Corrected Density Functional Theory'
      (Chem. Eur. J. 2012, 18, 9955-9964)
      Configuration: Dampener Frequency          :   100.000 1/cm
                     Dampener Alpha              :     4.000
                     Averaging Moment of Inertia : 1.000E-44 kg m2

--------------
Atomic charges
--------------
  Index   Atom    Charge
      1     Si    0.8959
      2      C    0.4285
      3      C    0.4288
      4      C    0.4283
      5      C    0.4281
      6      H   -0.2173
      7      H   -0.2172
      8      H   -0.2177
      9      H   -0.2177
     10      H   -0.2176
     11      H   -0.2172
     12      H   -0.2176
     13      H   -0.2177
     14      H   -0.2173
     15      H   -0.2175
     16      H   -0.2171
     17      H   -0.2175


Dipole moment vector    (Debye):    -0.00107334    0.00121743   -0.00208749
              magnitude (Debye):     0.00264420


Final PES point is a local minimum. Geometry optimization successful!


AMS application finished. Exiting.
NORMAL TERMINATION
     Total cpu time:     925.48
  Total system time:      24.19
 Total elapsed time:     986.51
