 *******************************************************************************
 **                                                                           **
 **                              MOPAC v22.1.1                                **
 **                                                                           **
 *******************************************************************************
 **          Digital Object Identifier (DOI): 10.5281/zenodo.6511958          **
 **    Visit the DOI location for information on how to cite this program.    **
 *******************************************************************************

                              PM7 CALCULATION RESULTS

 *******************************************************************************
 *  CALCULATION DONE:                                Tue Jun  4 17:09:39 2024  *
 *  PM7        - The PM7 Hamiltonian to be used
 *  SINGLET    - SPIN STATE DEFINED AS A SINGLET
 *
 *
 *
 *                 CHARGE ON SYSTEM = 0
 *
 *
 *
 *  PRECISE    - TIGHTER CRITERIA TO BE USED
 *  T=         - A TIME OF 172800.0 SECONDS REQUESTED
 *  DUMP=N     - RESTART FILE WRITTEN EVERY 7200.0 SECONDS REQUESTED
 *  AUX        - OUTPUT AUXILIARY INFORMATION
 *  LARGE      - EXPANDED OUTPUT TO BE PRINTED
 *******************************************************************************
 AUX LARGE CHARGE=0 SINGLET PRECISE PM7
 PCDM, ground state

   ATOM   CHEMICAL          X               Y               Z
  NUMBER   SYMBOL      (ANGSTROMS)     (ANGSTROMS)     (ANGSTROMS)
 
     1       N         14.74894000  *  -7.94501000  *  -1.57091000  *
     2       C         14.06717000  *  -9.12741000  *  -1.41811000  *
     3       C         14.07351000  *  -6.75757000  *  -1.42940000  *
     4       C         12.70045000  *  -9.13908000  *  -1.12841000  *
     5       C         12.70688000  *  -6.73582000  *  -1.13988000  *
     6       C         12.01825000  *  -7.93493000  *  -0.99002000  *
     7       C         16.20085000  *  -7.95034000  *  -1.87557000  *
     8       C         16.96017000  *  -9.23883000  *  -2.00281000  *
     9       C         16.96719000  *  -6.66720000  *  -2.01415000  *
    10       O         16.69426000  * -10.01099000  *  -2.91278000  *
    11       O         16.70605000  *  -5.90198000  *  -2.93133000  *
    12       O         17.96573000  *  -6.39989000  *  -1.13357000  *
    13       O         17.95817000  *  -9.50330000  *  -1.12076000  *
    14       C         18.78691000  *  -5.28774000  *  -1.15638000  *
    15       C         20.23498000  *  -5.73214000  *  -1.29854000  *
    16       C         18.77293000  * -10.62033000  *  -1.13373000  *
    17       C         20.22324000  * -10.18578000  *  -1.28338000  *
    18       H         14.56378000  * -10.08262000  *  -1.51431000  *
    19       H         14.57522000  *  -5.80599000  *  -1.53472000  *
    20       H         12.17549000  * -10.07844000  *  -1.01123000  *
    21       H         12.18696000  *  -5.79259000  *  -1.03170000  *
    22       H         10.95951000  *  -7.93102000  *  -0.76521000  *
    23       H         18.53708000  *  -4.59881000  *  -1.99277000  *
    24       H         18.66595000  *  -4.73301000  *  -0.20204000  *
    25       H         20.51435000  *  -6.39754000  *  -0.45402000  *
    26       H         20.37097000  *  -6.28197000  *  -2.25411000  *
    27       H         20.90248000  *  -4.84476000  *  -1.29452000  *
    28       H         18.51748000  * -11.31637000  *  -1.96250000  *
    29       H         18.65067000  * -11.16455000  *  -0.17351000  *
    30       H         20.88563000  * -11.07690000  *  -1.27155000  *
    31       H         20.36037000  *  -9.64669000  *  -2.24490000  *
    32       H         20.50820000  *  -9.51327000  *  -0.44640000  *
 


          CARTESIAN COORDINATES 

    NO.       ATOM           X           Y           Z

     1         N         14.7489     -7.9450     -1.5709
     2         C         14.0672     -9.1274     -1.4181
     3         C         14.0735     -6.7576     -1.4294
     4         C         12.7005     -9.1391     -1.1284
     5         C         12.7069     -6.7358     -1.1399
     6         C         12.0183     -7.9349     -0.9900
     7         C         16.2008     -7.9503     -1.8756
     8         C         16.9602     -9.2388     -2.0028
     9         C         16.9672     -6.6672     -2.0141
    10         O         16.6943    -10.0110     -2.9128
    11         O         16.7061     -5.9020     -2.9313
    12         O         17.9657     -6.3999     -1.1336
    13         O         17.9582     -9.5033     -1.1208
    14         C         18.7869     -5.2877     -1.1564
    15         C         20.2350     -5.7321     -1.2985
    16         C         18.7729    -10.6203     -1.1337
    17         C         20.2232    -10.1858     -1.2834
    18         H         14.5638    -10.0826     -1.5143
    19         H         14.5752     -5.8060     -1.5347
    20         H         12.1755    -10.0784     -1.0112
    21         H         12.1870     -5.7926     -1.0317
    22         H         10.9595     -7.9310     -0.7652
    23         H         18.5371     -4.5988     -1.9928
    24         H         18.6659     -4.7330     -0.2020
    25         H         20.5144     -6.3975     -0.4540
    26         H         20.3710     -6.2820     -2.2541
    27         H         20.9025     -4.8448     -1.2945
    28         H         18.5175    -11.3164     -1.9625
    29         H         18.6507    -11.1646     -0.1735
    30         H         20.8856    -11.0769     -1.2715
    31         H         20.3604     -9.6467     -2.2449
    32         H         20.5082     -9.5133     -0.4464

 General Reference for PM7:
 "Optimization of Parameters for Semiempirical Methods VI: More Modifications to the 
 NDDO Approximations and Re-optimization of Parameters", J. J. P. Stewart, J. Mol. Mod., 1:32, 19 (2013)
 https://link.springer.com/article/10.1007/s00894-012-1667-x

           Empirical Formula: C12 H15 N O4  =    32 atoms



      MOLECULAR POINT GROUP   :   Cs  


 SINGLET STATE CALCULATION


      RHF CALCULATION, NO. OF DOUBLY OCCUPIED LEVELS = 46


          Geometry optimization using EF

          DIAGONAL MATRIX USED AS START HESSIAN

 CYCLE:     1 TIME:   0.020 TIME LEFT:  2.00D  GRAD.:   186.818 HEAT: -108.3511
 CYCLE:     2 TIME:   0.008 TIME LEFT:  2.00D  GRAD.:   293.889 HEAT: -111.0462
 CYCLE:     3 TIME:   0.020 TIME LEFT:  2.00D  GRAD.:   151.572 HEAT: -118.5419
 CYCLE:     4 TIME:   0.012 TIME LEFT:  2.00D  GRAD.:    91.358 HEAT: -122.6488
 CYCLE:     5 TIME:   0.008 TIME LEFT:  2.00D  GRAD.:    57.590 HEAT: -125.6598
 CYCLE:     6 TIME:   0.016 TIME LEFT:  2.00D  GRAD.:    87.840 HEAT: -126.2201
 CYCLE:     7 TIME:   0.020 TIME LEFT:  2.00D  GRAD.:    66.936 HEAT: -127.4041
 CYCLE:     8 TIME:   0.008 TIME LEFT:  2.00D  GRAD.:    69.997 HEAT: -127.8393
 CYCLE:     9 TIME:   0.012 TIME LEFT:  2.00D  GRAD.:    34.445 HEAT: -129.4187
 CYCLE:    10 TIME:   0.008 TIME LEFT:  2.00D  GRAD.:    76.477 HEAT: -129.8109
 CYCLE:    11 TIME:   0.012 TIME LEFT:  2.00D  GRAD.:    36.242 HEAT: -131.7216
 CYCLE:    12 TIME:   0.016 TIME LEFT:  2.00D  GRAD.:    40.612 HEAT: -132.0535
 CYCLE:    13 TIME:   0.008 TIME LEFT:  2.00D  GRAD.:    27.711 HEAT: -132.6772
 CYCLE:    14 TIME:   0.027 TIME LEFT:  2.00D  GRAD.:    21.539 HEAT: -132.9105
 CYCLE:    15 TIME:   0.008 TIME LEFT:  2.00D  GRAD.:    13.802 HEAT: -133.1654
 CYCLE:    16 TIME:   0.008 TIME LEFT:  2.00D  GRAD.:    28.819 HEAT: -133.3366
 CYCLE:    17 TIME:   0.008 TIME LEFT:  2.00D  GRAD.:    17.595 HEAT: -133.6362
 CYCLE:    18 TIME:   0.012 TIME LEFT:  2.00D  GRAD.:    23.863 HEAT: -133.6977
 CYCLE:    19 TIME:   0.008 TIME LEFT:  2.00D  GRAD.:    22.070 HEAT: -133.8143
 CYCLE:    20 TIME:   0.012 TIME LEFT:  2.00D  GRAD.:    24.780 HEAT: -133.8499
 CYCLE:    21 TIME:   0.008 TIME LEFT:  2.00D  GRAD.:    18.278 HEAT: -133.9849
 CYCLE:    22 TIME:   0.016 TIME LEFT:  2.00D  GRAD.:    17.495 HEAT: -134.0327
 CYCLE:    23 TIME:   0.012 TIME LEFT:  2.00D  GRAD.:    11.473 HEAT: -134.1276
 CYCLE:    24 TIME:   0.008 TIME LEFT:  2.00D  GRAD.:    10.602 HEAT: -134.2210
 CYCLE:    25 TIME:   0.008 TIME LEFT:  2.00D  GRAD.:    13.785 HEAT: -134.3270
 CYCLE:    26 TIME:   0.012 TIME LEFT:  2.00D  GRAD.:     9.305 HEAT: -134.4986
 CYCLE:    27 TIME:   0.008 TIME LEFT:  2.00D  GRAD.:    20.116 HEAT: -134.5936
 CYCLE:    28 TIME:   0.008 TIME LEFT:  2.00D  GRAD.:    13.152 HEAT: -134.7063
 CYCLE:    29 TIME:   0.012 TIME LEFT:  2.00D  GRAD.:    16.438 HEAT: -134.7532
 CYCLE:    30 TIME:   0.008 TIME LEFT:  2.00D  GRAD.:    11.946 HEAT: -134.8319
 CYCLE:    31 TIME:   0.012 TIME LEFT:  2.00D  GRAD.:    17.108 HEAT: -134.8838
 CYCLE:    32 TIME:   0.008 TIME LEFT:  2.00D  GRAD.:    12.285 HEAT: -134.9979
 CYCLE:    33 TIME:   0.008 TIME LEFT:  2.00D  GRAD.:    18.410 HEAT: -135.1086
 CYCLE:    34 TIME:   0.012 TIME LEFT:  2.00D  GRAD.:    16.252 HEAT: -135.2377
 CYCLE:    35 TIME:   0.008 TIME LEFT:  2.00D  GRAD.:    21.389 HEAT: -135.3950
 CYCLE:    36 TIME:   0.008 TIME LEFT:  2.00D  GRAD.:    19.352 HEAT: -135.6051
 CYCLE:    37 TIME:   0.012 TIME LEFT:  2.00D  GRAD.:    12.540 HEAT: -135.8487
 CYCLE:    38 TIME:   0.008 TIME LEFT:  2.00D  GRAD.:    13.486 HEAT: -136.1434
 CYCLE:    39 TIME:   0.012 TIME LEFT:  2.00D  GRAD.:    25.893 HEAT: -136.2181
 CYCLE:    40 TIME:   0.008 TIME LEFT:  2.00D  GRAD.:    14.730 HEAT: -136.3331
 CYCLE:    41 TIME:   0.008 TIME LEFT:  2.00D  GRAD.:    23.134 HEAT: -136.4181
 CYCLE:    42 TIME:   0.008 TIME LEFT:  2.00D  GRAD.:    16.953 HEAT: -136.5156
 CYCLE:    43 TIME:   0.012 TIME LEFT:  2.00D  GRAD.:    12.023 HEAT: -136.6111
 CYCLE:    44 TIME:   0.008 TIME LEFT:  2.00D  GRAD.:     7.747 HEAT: -136.7015
 CYCLE:    45 TIME:   0.012 TIME LEFT:  2.00D  GRAD.:     8.177 HEAT: -136.7807
 CYCLE:    46 TIME:   0.008 TIME LEFT:  2.00D  GRAD.:    12.601 HEAT: -136.8879
 CYCLE:    47 TIME:   0.012 TIME LEFT:  2.00D  GRAD.:     7.948 HEAT: -136.9859
 CYCLE:    48 TIME:   0.008 TIME LEFT:  2.00D  GRAD.:    10.530 HEAT: -137.0701
 CYCLE:    49 TIME:   0.012 TIME LEFT:  2.00D  GRAD.:    12.814 HEAT: -137.1906
 CYCLE:    50 TIME:   0.027 TIME LEFT:  2.00D  GRAD.:    22.887 HEAT: -137.2724
 CYCLE:    51 TIME:   0.008 TIME LEFT:  2.00D  GRAD.:     9.677 HEAT: -137.4754
 CYCLE:    52 TIME:   0.008 TIME LEFT:  2.00D  GRAD.:     7.353 HEAT: -137.6331
 CYCLE:    53 TIME:   0.012 TIME LEFT:  2.00D  GRAD.:    14.426 HEAT: -137.7904
 CYCLE:    54 TIME:   0.012 TIME LEFT:  2.00D  GRAD.:    16.527 HEAT: -137.9601
 CYCLE:    55 TIME:   0.008 TIME LEFT:  2.00D  GRAD.:    22.818 HEAT: -138.0152
 CYCLE:    56 TIME:   0.008 TIME LEFT:  2.00D  GRAD.:     8.605 HEAT: -138.1894
 CYCLE:    57 TIME:   0.008 TIME LEFT:  2.00D  GRAD.:     5.890 HEAT: -138.2405
 CYCLE:    58 TIME:   0.008 TIME LEFT:  2.00D  GRAD.:     7.675 HEAT: -138.2744
 CYCLE:    59 TIME:   0.012 TIME LEFT:  2.00D  GRAD.:     4.916 HEAT: -138.3104
 CYCLE:    60 TIME:   0.008 TIME LEFT:  2.00D  GRAD.:     3.308 HEAT: -138.3270
 CYCLE:    61 TIME:   0.008 TIME LEFT:  2.00D  GRAD.:     2.065 HEAT: -138.3367
 CYCLE:    62 TIME:   0.008 TIME LEFT:  2.00D  GRAD.:     2.766 HEAT: -138.3417
 CYCLE:    63 TIME:   0.008 TIME LEFT:  2.00D  GRAD.:     1.962 HEAT: -138.3453
 CYCLE:    64 TIME:   0.008 TIME LEFT:  2.00D  GRAD.:     1.786 HEAT: -138.3480
 CYCLE:    65 TIME:   0.008 TIME LEFT:  2.00D  GRAD.:     1.012 HEAT: -138.3500
 CYCLE:    66 TIME:   0.008 TIME LEFT:  2.00D  GRAD.:     0.956 HEAT: -138.3518
 CYCLE:    67 TIME:   0.008 TIME LEFT:  2.00D  GRAD.:     1.191 HEAT: -138.3542
 CYCLE:    68 TIME:   0.008 TIME LEFT:  2.00D  GRAD.:     1.544 HEAT: -138.3570
 CYCLE:    69 TIME:   0.008 TIME LEFT:  2.00D  GRAD.:     1.651 HEAT: -138.3611
 CYCLE:    70 TIME:   0.008 TIME LEFT:  2.00D  GRAD.:     1.828 HEAT: -138.3672
 CYCLE:    71 TIME:   0.008 TIME LEFT:  2.00D  GRAD.:     2.359 HEAT: -138.3753
 CYCLE:    72 TIME:   0.008 TIME LEFT:  2.00D  GRAD.:     2.336 HEAT: -138.3838
 CYCLE:    73 TIME:   0.012 TIME LEFT:  2.00D  GRAD.:     2.830 HEAT: -138.4044
 CYCLE:    74 TIME:   0.008 TIME LEFT:  2.00D  GRAD.:     5.346 HEAT: -138.4295
 CYCLE:    75 TIME:   0.008 TIME LEFT:  2.00D  GRAD.:     3.215 HEAT: -138.4571
 CYCLE:    76 TIME:   0.012 TIME LEFT:  2.00D  GRAD.:     5.907 HEAT: -138.4810
 CYCLE:    77 TIME:   0.008 TIME LEFT:  2.00D  GRAD.:     4.134 HEAT: -138.5036
 CYCLE:    78 TIME:   0.008 TIME LEFT:  2.00D  GRAD.:     5.377 HEAT: -138.5118
 CYCLE:    79 TIME:   0.008 TIME LEFT:  2.00D  GRAD.:     2.925 HEAT: -138.5351
 CYCLE:    80 TIME:   0.008 TIME LEFT:  2.00D  GRAD.:     5.244 HEAT: -138.5740
 CYCLE:    81 TIME:   0.012 TIME LEFT:  2.00D  GRAD.:     8.111 HEAT: -138.6427
 CYCLE:    82 TIME:   0.008 TIME LEFT:  2.00D  GRAD.:    10.036 HEAT: -138.7152
 CYCLE:    83 TIME:   0.008 TIME LEFT:  2.00D  GRAD.:    15.424 HEAT: -138.7813
 CYCLE:    84 TIME:   0.020 TIME LEFT:  2.00D  GRAD.:    21.540 HEAT: -138.8634
 CYCLE:    85 TIME:   0.008 TIME LEFT:  2.00D  GRAD.:    11.263 HEAT: -138.9242
 CYCLE:    86 TIME:   0.008 TIME LEFT:  2.00D  GRAD.:    10.993 HEAT: -139.0374
 CYCLE:    87 TIME:   0.012 TIME LEFT:  2.00D  GRAD.:     8.130 HEAT: -139.1269
 CYCLE:    88 TIME:   0.008 TIME LEFT:  2.00D  GRAD.:    11.619 HEAT: -139.1966
 CYCLE:    89 TIME:   0.008 TIME LEFT:  2.00D  GRAD.:     7.605 HEAT: -139.2977
 CYCLE:    90 TIME:   0.008 TIME LEFT:  2.00D  GRAD.:     7.554 HEAT: -139.4023
 CYCLE:    91 TIME:   0.012 TIME LEFT:  2.00D  GRAD.:     8.086 HEAT: -139.4799
 CYCLE:    92 TIME:   0.008 TIME LEFT:  2.00D  GRAD.:     8.857 HEAT: -139.5874
 CYCLE:    93 TIME:   0.008 TIME LEFT:  2.00D  GRAD.:     7.316 HEAT: -139.6553
 CYCLE:    94 TIME:   0.008 TIME LEFT:  2.00D  GRAD.:     5.572 HEAT: -139.7066
 CYCLE:    95 TIME:   0.008 TIME LEFT:  2.00D  GRAD.:     7.370 HEAT: -139.7524
 CYCLE:    96 TIME:   0.008 TIME LEFT:  2.00D  GRAD.:     5.979 HEAT: -139.7915
 CYCLE:    97 TIME:   0.008 TIME LEFT:  2.00D  GRAD.:     4.934 HEAT: -139.8131
 CYCLE:    98 TIME:   0.008 TIME LEFT:  2.00D  GRAD.:     3.510 HEAT: -139.8319
 CYCLE:    99 TIME:   0.008 TIME LEFT:  2.00D  GRAD.:     3.185 HEAT: -139.8534
 CYCLE:   100 TIME:   0.008 TIME LEFT:  2.00D  GRAD.:     3.287 HEAT: -139.8739
 CYCLE:   101 TIME:   0.012 TIME LEFT:  2.00D  GRAD.:     3.623 HEAT: -139.9023
 CYCLE:   102 TIME:   0.012 TIME LEFT:  2.00D  GRAD.:     4.123 HEAT: -139.9394
 CYCLE:   103 TIME:   0.008 TIME LEFT:  2.00D  GRAD.:     4.734 HEAT: -139.9776
 CYCLE:   104 TIME:   0.008 TIME LEFT:  2.00D  GRAD.:     4.168 HEAT: -140.0178
 CYCLE:   105 TIME:   0.008 TIME LEFT:  2.00D  GRAD.:     5.242 HEAT: -140.0566
 CYCLE:   106 TIME:   0.008 TIME LEFT:  2.00D  GRAD.:     5.909 HEAT: -140.1062
 CYCLE:   107 TIME:   0.012 TIME LEFT:  2.00D  GRAD.:     7.236 HEAT: -140.1718
 CYCLE:   108 TIME:   0.008 TIME LEFT:  2.00D  GRAD.:     6.465 HEAT: -140.2441
 CYCLE:   109 TIME:   0.008 TIME LEFT:  2.00D  GRAD.:    10.273 HEAT: -140.2745
 CYCLE:   110 TIME:   0.008 TIME LEFT:  2.00D  GRAD.:     6.397 HEAT: -140.3292
 CYCLE:   111 TIME:   0.008 TIME LEFT:  2.00D  GRAD.:     4.426 HEAT: -140.3676
 CYCLE:   112 TIME:   0.012 TIME LEFT:  2.00D  GRAD.:     4.209 HEAT: -140.3979
 CYCLE:   113 TIME:   0.008 TIME LEFT:  2.00D  GRAD.:     4.641 HEAT: -140.4284
 CYCLE:   114 TIME:   0.008 TIME LEFT:  2.00D  GRAD.:     3.428 HEAT: -140.4551
 CYCLE:   115 TIME:   0.008 TIME LEFT:  2.00D  GRAD.:     2.952 HEAT: -140.4778
 CYCLE:   116 TIME:   0.012 TIME LEFT:  2.00D  GRAD.:     3.028 HEAT: -140.4964
 CYCLE:   117 TIME:   0.008 TIME LEFT:  2.00D  GRAD.:     3.028 HEAT: -140.4979
 CYCLE:   118 TIME:   0.008 TIME LEFT:  2.00D  GRAD.:     1.984 HEAT: -140.5059
 CYCLE:   119 TIME:   0.008 TIME LEFT:  2.00D  GRAD.:     2.245 HEAT: -140.5090
 CYCLE:   120 TIME:   0.008 TIME LEFT:  2.00D  GRAD.:     1.785 HEAT: -140.5134
 CYCLE:   121 TIME:   0.012 TIME LEFT:  2.00D  GRAD.:     1.434 HEAT: -140.5200
 CYCLE:   122 TIME:   0.008 TIME LEFT:  2.00D  GRAD.:     2.124 HEAT: -140.5294
 CYCLE:   123 TIME:   0.008 TIME LEFT:  2.00D  GRAD.:     2.444 HEAT: -140.5410
 CYCLE:   124 TIME:   0.012 TIME LEFT:  2.00D  GRAD.:     2.331 HEAT: -140.5516
 CYCLE:   125 TIME:   0.008 TIME LEFT:  2.00D  GRAD.:     2.277 HEAT: -140.5612
 CYCLE:   126 TIME:   0.008 TIME LEFT:  2.00D  GRAD.:     3.225 HEAT: -140.5733
 CYCLE:   127 TIME:   0.008 TIME LEFT:  2.00D  GRAD.:     3.265 HEAT: -140.5882
 CYCLE:   128 TIME:   0.012 TIME LEFT:  2.00D  GRAD.:     3.416 HEAT: -140.6093
 CYCLE:   129 TIME:   0.008 TIME LEFT:  2.00D  GRAD.:     5.869 HEAT: -140.6406
 CYCLE:   130 TIME:   0.008 TIME LEFT:  2.00D  GRAD.:     4.077 HEAT: -140.6580
 CYCLE:   131 TIME:   0.012 TIME LEFT:  2.00D  GRAD.:     3.158 HEAT: -140.6833
 CYCLE:   132 TIME:   0.008 TIME LEFT:  2.00D  GRAD.:     6.932 HEAT: -140.7383
 CYCLE:   133 TIME:   0.008 TIME LEFT:  2.00D  GRAD.:     5.121 HEAT: -140.7784
 CYCLE:   134 TIME:   0.012 TIME LEFT:  2.00D  GRAD.:     4.613 HEAT: -140.8347
 CYCLE:   135 TIME:   0.008 TIME LEFT:  2.00D  GRAD.:     6.629 HEAT: -140.8663
 CYCLE:   136 TIME:   0.012 TIME LEFT:  2.00D  GRAD.:     6.426 HEAT: -140.8792
 CYCLE:   137 TIME:   0.008 TIME LEFT:  2.00D  GRAD.:     5.808 HEAT: -140.8921
 CYCLE:   138 TIME:   0.008 TIME LEFT:  2.00D  GRAD.:     7.385 HEAT: -140.9066
 CYCLE:   139 TIME:   0.008 TIME LEFT:  2.00D  GRAD.:     4.365 HEAT: -140.9182
 CYCLE:   140 TIME:   0.008 TIME LEFT:  2.00D  GRAD.:     2.465 HEAT: -140.9302
 CYCLE:   141 TIME:   0.008 TIME LEFT:  2.00D  GRAD.:     1.834 HEAT: -140.9385
 CYCLE:   142 TIME:   0.012 TIME LEFT:  2.00D  GRAD.:     2.520 HEAT: -140.9509
 CYCLE:   143 TIME:   0.008 TIME LEFT:  2.00D  GRAD.:     1.743 HEAT: -140.9588
 CYCLE:   144 TIME:   0.008 TIME LEFT:  2.00D  GRAD.:     2.579 HEAT: -140.9694
 CYCLE:   145 TIME:   0.008 TIME LEFT:  2.00D  GRAD.:     3.120 HEAT: -140.9798
 CYCLE:   146 TIME:   0.008 TIME LEFT:  2.00D  GRAD.:     3.068 HEAT: -140.9893
 CYCLE:   147 TIME:   0.008 TIME LEFT:  2.00D  GRAD.:     2.675 HEAT: -141.0044
 CYCLE:   148 TIME:   0.008 TIME LEFT:  2.00D  GRAD.:     3.243 HEAT: -141.0163
 CYCLE:   149 TIME:   0.012 TIME LEFT:  2.00D  GRAD.:     3.944 HEAT: -141.0302
 CYCLE:   150 TIME:   0.008 TIME LEFT:  2.00D  GRAD.:     3.436 HEAT: -141.0429
 CYCLE:   151 TIME:   0.008 TIME LEFT:  2.00D  GRAD.:     2.412 HEAT: -141.0542
 CYCLE:   152 TIME:   0.008 TIME LEFT:  2.00D  GRAD.:     2.087 HEAT: -141.0596
 CYCLE:   153 TIME:   0.008 TIME LEFT:  2.00D  GRAD.:     1.609 HEAT: -141.0666
 CYCLE:   154 TIME:   0.012 TIME LEFT:  2.00D  GRAD.:     2.311 HEAT: -141.0707
 CYCLE:   155 TIME:   0.008 TIME LEFT:  2.00D  GRAD.:     1.924 HEAT: -141.0757
 CYCLE:   156 TIME:   0.008 TIME LEFT:  2.00D  GRAD.:     1.999 HEAT: -141.0832
 CYCLE:   157 TIME:   0.012 TIME LEFT:  2.00D  GRAD.:     1.999 HEAT: -141.0912
 CYCLE:   158 TIME:   0.008 TIME LEFT:  2.00D  GRAD.:     2.213 HEAT: -141.1003
 CYCLE:   159 TIME:   0.012 TIME LEFT:  2.00D  GRAD.:     2.725 HEAT: -141.1099
 CYCLE:   160 TIME:   0.008 TIME LEFT:  2.00D  GRAD.:     3.344 HEAT: -141.1195
 CYCLE:   161 TIME:   0.008 TIME LEFT:  2.00D  GRAD.:     3.068 HEAT: -141.1319
 CYCLE:   162 TIME:   0.008 TIME LEFT:  2.00D  GRAD.:     3.147 HEAT: -141.1463
 CYCLE:   163 TIME:   0.012 TIME LEFT:  2.00D  GRAD.:     3.858 HEAT: -141.1709
 CYCLE:   164 TIME:   0.008 TIME LEFT:  2.00D  GRAD.:     3.391 HEAT: -141.1880
 CYCLE:   165 TIME:   0.008 TIME LEFT:  2.00D  GRAD.:     3.897 HEAT: -141.2070
 CYCLE:   166 TIME:   0.012 TIME LEFT:  2.00D  GRAD.:     4.767 HEAT: -141.2203
 CYCLE:   167 TIME:   0.012 TIME LEFT:  2.00D  GRAD.:     5.255 HEAT: -141.2268
 CYCLE:   168 TIME:   0.012 TIME LEFT:  2.00D  GRAD.:     1.908 HEAT: -141.2401
 CYCLE:   169 TIME:   0.008 TIME LEFT:  2.00D  GRAD.:     1.678 HEAT: -141.2460
 CYCLE:   170 TIME:   0.008 TIME LEFT:  2.00D  GRAD.:     2.588 HEAT: -141.2528
 CYCLE:   171 TIME:   0.008 TIME LEFT:  2.00D  GRAD.:     1.855 HEAT: -141.2589
 CYCLE:   172 TIME:   0.008 TIME LEFT:  2.00D  GRAD.:     2.245 HEAT: -141.2667
 CYCLE:   173 TIME:   0.012 TIME LEFT:  2.00D  GRAD.:     2.449 HEAT: -141.2736
 CYCLE:   174 TIME:   0.008 TIME LEFT:  2.00D  GRAD.:     1.959 HEAT: -141.2795
 CYCLE:   175 TIME:   0.008 TIME LEFT:  2.00D  GRAD.:     1.828 HEAT: -141.2837
 CYCLE:   176 TIME:   0.008 TIME LEFT:  2.00D  GRAD.:     1.664 HEAT: -141.2873
 CYCLE:   177 TIME:   0.012 TIME LEFT:  2.00D  GRAD.:     2.096 HEAT: -141.2907
 CYCLE:   178 TIME:   0.008 TIME LEFT:  2.00D  GRAD.:     1.429 HEAT: -141.2947
 CYCLE:   179 TIME:   0.008 TIME LEFT:  2.00D  GRAD.:     1.379 HEAT: -141.2993
 CYCLE:   180 TIME:   0.008 TIME LEFT:  2.00D  GRAD.:     1.618 HEAT: -141.3024
 CYCLE:   181 TIME:   0.012 TIME LEFT:  2.00D  GRAD.:     1.396 HEAT: -141.3052
 CYCLE:   182 TIME:   0.008 TIME LEFT:  2.00D  GRAD.:     1.174 HEAT: -141.3075
 CYCLE:   183 TIME:   0.008 TIME LEFT:  2.00D  GRAD.:     1.669 HEAT: -141.3090
 CYCLE:   184 TIME:   0.008 TIME LEFT:  2.00D  GRAD.:     1.944 HEAT: -141.3111
 CYCLE:   185 TIME:   0.008 TIME LEFT:  2.00D  GRAD.:     1.356 HEAT: -141.3144
 CYCLE:   186 TIME:   0.012 TIME LEFT:  2.00D  GRAD.:     3.020 HEAT: -141.3208
 CYCLE:   187 TIME:   0.008 TIME LEFT:  2.00D  GRAD.:     2.059 HEAT: -141.3252
 CYCLE:   188 TIME:   0.008 TIME LEFT:  2.00D  GRAD.:     1.707 HEAT: -141.3299
 CYCLE:   189 TIME:   0.008 TIME LEFT:  2.00D  GRAD.:     2.270 HEAT: -141.3385
 CYCLE:   190 TIME:   0.008 TIME LEFT:  2.00D  GRAD.:     1.960 HEAT: -141.3421
 CYCLE:   191 TIME:   0.012 TIME LEFT:  2.00D  GRAD.:     1.650 HEAT: -141.3501
 CYCLE:   192 TIME:   0.008 TIME LEFT:  2.00D  GRAD.:     1.963 HEAT: -141.3552
 CYCLE:   193 TIME:   0.008 TIME LEFT:  2.00D  GRAD.:     3.124 HEAT: -141.3623
 CYCLE:   194 TIME:   0.012 TIME LEFT:  2.00D  GRAD.:     3.120 HEAT: -141.3724
 CYCLE:   195 TIME:   0.008 TIME LEFT:  2.00D  GRAD.:     7.977 HEAT: -141.3881
 CYCLE:   196 TIME:   0.012 TIME LEFT:  2.00D  GRAD.:     6.093 HEAT: -141.3919
 CYCLE:   197 TIME:   0.008 TIME LEFT:  2.00D  GRAD.:     2.996 HEAT: -141.4071
 CYCLE:   198 TIME:   0.008 TIME LEFT:  2.00D  GRAD.:     5.559 HEAT: -141.4180
 CYCLE:   199 TIME:   0.008 TIME LEFT:  2.00D  GRAD.:     3.441 HEAT: -141.4300
 CYCLE:   200 TIME:   0.008 TIME LEFT:  2.00D  GRAD.:     3.010 HEAT: -141.4436
 CYCLE:   201 TIME:   0.012 TIME LEFT:  2.00D  GRAD.:     2.311 HEAT: -141.4535
 CYCLE:   202 TIME:   0.008 TIME LEFT:  2.00D  GRAD.:     2.234 HEAT: -141.4627
 CYCLE:   203 TIME:   0.008 TIME LEFT:  2.00D  GRAD.:     2.775 HEAT: -141.4705
 CYCLE:   204 TIME:   0.008 TIME LEFT:  2.00D  GRAD.:     3.725 HEAT: -141.4765
 CYCLE:   205 TIME:   0.008 TIME LEFT:  2.00D  GRAD.:     3.127 HEAT: -141.4869
 CYCLE:   206 TIME:   0.012 TIME LEFT:  2.00D  GRAD.:     2.396 HEAT: -141.4953
 CYCLE:   207 TIME:   0.008 TIME LEFT:  2.00D  GRAD.:     2.769 HEAT: -141.5054
 CYCLE:   208 TIME:   0.008 TIME LEFT:  2.00D  GRAD.:     2.700 HEAT: -141.5143
 CYCLE:   209 TIME:   0.008 TIME LEFT:  2.00D  GRAD.:     2.666 HEAT: -141.5249
 CYCLE:   210 TIME:   0.008 TIME LEFT:  2.00D  GRAD.:     3.740 HEAT: -141.5331
 CYCLE:   211 TIME:   0.012 TIME LEFT:  2.00D  GRAD.:     3.912 HEAT: -141.5397
 CYCLE:   212 TIME:   0.008 TIME LEFT:  2.00D  GRAD.:     2.294 HEAT: -141.5493
 CYCLE:   213 TIME:   0.008 TIME LEFT:  2.00D  GRAD.:     1.837 HEAT: -141.5577
 CYCLE:   214 TIME:   0.008 TIME LEFT:  2.00D  GRAD.:     2.688 HEAT: -141.5696
 CYCLE:   215 TIME:   0.012 TIME LEFT:  2.00D  GRAD.:     2.985 HEAT: -141.5791
 CYCLE:   216 TIME:   0.008 TIME LEFT:  2.00D  GRAD.:     2.950 HEAT: -141.5893
 CYCLE:   217 TIME:   0.008 TIME LEFT:  2.00D  GRAD.:     1.906 HEAT: -141.5964
 CYCLE:   218 TIME:   0.008 TIME LEFT:  2.00D  GRAD.:     1.867 HEAT: -141.6017
 CYCLE:   219 TIME:   0.008 TIME LEFT:  2.00D  GRAD.:     1.734 HEAT: -141.6053
 CYCLE:   220 TIME:   0.012 TIME LEFT:  2.00D  GRAD.:     1.895 HEAT: -141.6087
 CYCLE:   221 TIME:   0.008 TIME LEFT:  2.00D  GRAD.:     2.033 HEAT: -141.6121
 CYCLE:   222 TIME:   0.008 TIME LEFT:  2.00D  GRAD.:     2.317 HEAT: -141.6151
 CYCLE:   223 TIME:   0.008 TIME LEFT:  2.00D  GRAD.:     1.486 HEAT: -141.6191
 CYCLE:   224 TIME:   0.008 TIME LEFT:  2.00D  GRAD.:     1.302 HEAT: -141.6232
 CYCLE:   225 TIME:   0.012 TIME LEFT:  2.00D  GRAD.:     1.730 HEAT: -141.6278
 CYCLE:   226 TIME:   0.008 TIME LEFT:  2.00D  GRAD.:     1.940 HEAT: -141.6338
 CYCLE:   227 TIME:   0.008 TIME LEFT:  2.00D  GRAD.:     1.860 HEAT: -141.6400
 CYCLE:   228 TIME:   0.008 TIME LEFT:  2.00D  GRAD.:     1.239 HEAT: -141.6426
 CYCLE:   229 TIME:   0.008 TIME LEFT:  2.00D  GRAD.:     0.918 HEAT: -141.6444
 CYCLE:   230 TIME:   0.012 TIME LEFT:  2.00D  GRAD.:     0.982 HEAT: -141.6453
 CYCLE:   231 TIME:   0.008 TIME LEFT:  2.00D  GRAD.:     1.211 HEAT: -141.6470
 CYCLE:   232 TIME:   0.008 TIME LEFT:  2.00D  GRAD.:     1.210 HEAT: -141.6485
 CYCLE:   233 TIME:   0.008 TIME LEFT:  2.00D  GRAD.:     2.548 HEAT: -141.6506
 CYCLE:   234 TIME:   0.008 TIME LEFT:  2.00D  GRAD.:     1.213 HEAT: -141.6547
 CYCLE:   235 TIME:   0.008 TIME LEFT:  2.00D  GRAD.:     0.903 HEAT: -141.6574
 CYCLE:   236 TIME:   0.012 TIME LEFT:  2.00D  GRAD.:     1.206 HEAT: -141.6614
 CYCLE:   237 TIME:   0.008 TIME LEFT:  2.00D  GRAD.:     1.125 HEAT: -141.6638
 CYCLE:   238 TIME:   0.008 TIME LEFT:  2.00D  GRAD.:     2.217 HEAT: -141.6655
 CYCLE:   239 TIME:   0.008 TIME LEFT:  2.00D  GRAD.:     1.283 HEAT: -141.6686
 CYCLE:   240 TIME:   0.008 TIME LEFT:  2.00D  GRAD.:     0.772 HEAT: -141.6705
 CYCLE:   241 TIME:   0.012 TIME LEFT:  2.00D  GRAD.:     0.492 HEAT: -141.6727
 CYCLE:   242 TIME:   0.008 TIME LEFT:  2.00D  GRAD.:     0.493 HEAT: -141.6733
 CYCLE:   243 TIME:   0.008 TIME LEFT:  2.00D  GRAD.:     1.046 HEAT: -141.6728
 CYCLE:   244 TIME:   0.008 TIME LEFT:  2.00D  GRAD.:     0.454 HEAT: -141.6738
 CYCLE:   245 TIME:   0.008 TIME LEFT:  2.00D  GRAD.:     0.281 HEAT: -141.6739
 CYCLE:   246 TIME:   0.008 TIME LEFT:  2.00D  GRAD.:     0.271 HEAT: -141.6739
 CYCLE:   247 TIME:   0.012 TIME LEFT:  2.00D  GRAD.:     1.401 HEAT: -141.6712
 CYCLE:   248 TIME:   0.008 TIME LEFT:  2.00D  GRAD.:     0.352 HEAT: -141.6741
 CYCLE:   249 TIME:   0.008 TIME LEFT:  2.00D  GRAD.:     0.334 HEAT: -141.6741
 CYCLE:   250 TIME:   0.008 TIME LEFT:  2.00D  GRAD.:     0.392 HEAT: -141.6743
 CYCLE:   251 TIME:   0.008 TIME LEFT:  2.00D  GRAD.:     0.621 HEAT: -141.6743
 CYCLE:   252 TIME:   0.008 TIME LEFT:  2.00D  GRAD.:     0.393 HEAT: -141.6745
 CYCLE:   253 TIME:   0.012 TIME LEFT:  2.00D  GRAD.:     0.417 HEAT: -141.6746
 CYCLE:   254 TIME:   0.008 TIME LEFT:  2.00D  GRAD.:     0.304 HEAT: -141.6750
 CYCLE:   255 TIME:   0.016 TIME LEFT:  2.00D  GRAD.:     2.456 HEAT: -141.6685
 CYCLE:   256 TIME:   0.012 TIME LEFT:  2.00D  GRAD.:     0.312 HEAT: -141.6757
 CYCLE:   257 TIME:   0.008 TIME LEFT:  2.00D  GRAD.:     0.304 HEAT: -141.6759
 CYCLE:   258 TIME:   0.008 TIME LEFT:  2.00D  GRAD.:     0.453 HEAT: -141.6759
 CYCLE:   259 TIME:   0.008 TIME LEFT:  2.00D  GRAD.:     0.247 HEAT: -141.6762
 CYCLE:   260 TIME:   0.008 TIME LEFT:  2.00D  GRAD.:     0.210 HEAT: -141.6762
 CYCLE:   261 TIME:   0.008 TIME LEFT:  2.00D  GRAD.:     0.181 HEAT: -141.6763
 CYCLE:   262 TIME:   0.008 TIME LEFT:  2.00D  GRAD.:     0.238 HEAT: -141.6765
 CYCLE:   263 TIME:   0.012 TIME LEFT:  2.00D  GRAD.:     0.314 HEAT: -141.6765
 CYCLE:   264 TIME:   0.008 TIME LEFT:  2.00D  GRAD.:     0.351 HEAT: -141.6766
 CYCLE:   265 TIME:   0.008 TIME LEFT:  2.00D  GRAD.:     0.251 HEAT: -141.6767
 CYCLE:   266 TIME:   0.008 TIME LEFT:  2.00D  GRAD.:     0.403 HEAT: -141.6762
 CYCLE:   267 TIME:   0.008 TIME LEFT:  2.00D  GRAD.:     0.151 HEAT: -141.6768
 CYCLE:   268 TIME:   0.008 TIME LEFT:  2.00D  GRAD.:     0.136 HEAT: -141.6768
 CYCLE:   269 TIME:   0.008 TIME LEFT:  2.00D  GRAD.:     0.356 HEAT: -141.6769
 CYCLE:   270 TIME:   0.008 TIME LEFT:  2.00D  GRAD.:     0.184 HEAT: -141.6770
 CYCLE:   271 TIME:   0.008 TIME LEFT:  2.00D  GRAD.:     0.147 HEAT: -141.6770
 CYCLE:   272 TIME:   0.008 TIME LEFT:  2.00D  GRAD.:     0.133 HEAT: -141.6770
 CYCLE:   273 TIME:   0.008 TIME LEFT:  2.00D  GRAD.:     0.148 HEAT: -141.6770
 CYCLE:   274 TIME:   0.012 TIME LEFT:  2.00D  GRAD.:     0.120 HEAT: -141.6770
 CYCLE:   275 TIME:   0.008 TIME LEFT:  2.00D  GRAD.:     0.872 HEAT: -141.6755
 CYCLE:   276 TIME:   0.008 TIME LEFT:  2.00D  GRAD.:     0.093 HEAT: -141.6771
 CYCLE:   277 TIME:   0.008 TIME LEFT:  2.00D  GRAD.:     0.085 HEAT: -141.6771
 CYCLE:   278 TIME:   0.012 TIME LEFT:  2.00D  GRAD.:     0.092 HEAT: -141.6771
 CYCLE:   279 TIME:   0.004 TIME LEFT:  2.00D  GRAD.:     0.100 HEAT: -141.6771
 CYCLE:   280 TIME:   0.012 TIME LEFT:  2.00D  GRAD.:     0.109 HEAT: -141.6771
 CYCLE:   281 TIME:   0.008 TIME LEFT:  2.00D  GRAD.:     0.200 HEAT: -141.6771
 CYCLE:   282 TIME:   0.008 TIME LEFT:  2.00D  GRAD.:     0.161 HEAT: -141.6771
 CYCLE:   283 TIME:   0.016 TIME LEFT:  2.00D  GRAD.:     2.030 HEAT: -141.6704
 CYCLE:   284 TIME:   0.012 TIME LEFT:  2.00D  GRAD.:     0.129 HEAT: -141.6772
 CYCLE:   285 TIME:   0.008 TIME LEFT:  2.00D  GRAD.:     0.148 HEAT: -141.6773
 CYCLE:   286 TIME:   0.008 TIME LEFT:  2.00D  GRAD.:     0.229 HEAT: -141.6773
 CYCLE:   287 TIME:   0.008 TIME LEFT:  2.00D  GRAD.:     0.339 HEAT: -141.6774
 CYCLE:   288 TIME:   0.008 TIME LEFT:  2.00D  GRAD.:     0.324 HEAT: -141.6773
 CYCLE:   289 TIME:   0.008 TIME LEFT:  2.00D  GRAD.:     0.191 HEAT: -141.6775
 CYCLE:   290 TIME:   0.008 TIME LEFT:  2.00D  GRAD.:     0.217 HEAT: -141.6775
 CYCLE:   291 TIME:   0.008 TIME LEFT:  2.00D  GRAD.:     0.084 HEAT: -141.6775
 CYCLE:   292 TIME:   0.008 TIME LEFT:  2.00D  GRAD.:     0.143 HEAT: -141.6776
 CYCLE:   293 TIME:   0.008 TIME LEFT:  2.00D  GRAD.:     0.263 HEAT: -141.6775
 CYCLE:   294 TIME:   0.008 TIME LEFT:  2.00D  GRAD.:     0.132 HEAT: -141.6775
 CYCLE:   295 TIME:   0.008 TIME LEFT:  2.00D  GRAD.:     0.142 HEAT: -141.6776
 CYCLE:   296 TIME:   0.008 TIME LEFT:  2.00D  GRAD.:     0.297 HEAT: -141.6775
 CYCLE:   297 TIME:   0.008 TIME LEFT:  2.00D  GRAD.:     0.184 HEAT: -141.6775
 CYCLE:   298 TIME:   0.008 TIME LEFT:  2.00D  GRAD.:     0.449 HEAT: -141.6774
 CYCLE:   299 TIME:   0.008 TIME LEFT:  2.00D  GRAD.:     0.083 HEAT: -141.6776
 CYCLE:   300 TIME:   0.008 TIME LEFT:  2.00D  GRAD.:     0.093 HEAT: -141.6776
 CYCLE:   301 TIME:   0.008 TIME LEFT:  2.00D  GRAD.:     0.031 HEAT: -141.6776

     GRADIENT =  0.03116 IS LESS THAN CUTOFF =  0.05000



 -------------------------------------------------------------------------------
 AUX LARGE CHARGE=0 SINGLET PRECISE PM7
 PCDM, ground state



     GEOMETRY OPTIMISED USING EIGENVECTOR FOLLOWING (EF).     
     SCF FIELD WAS ACHIEVED                                   


                              PM7 CALCULATION
                                                       MOPAC v22.1.1 Windows
                                                       Tue Jun  4 17:09:41 2024




          FINAL HEAT OF FORMATION =       -141.67761 KCAL/MOL =    -592.77911 KJ/MOL


          COSMO AREA              =        263.60 SQUARE ANGSTROMS
          COSMO VOLUME            =        275.69 CUBIC ANGSTROMS

          GRADIENT NORM           =          0.03116          =       0.00551 PER ATOM
          IONIZATION POTENTIAL    =          8.860545 EV
          HOMO LUMO ENERGIES (EV) =         -8.861 -1.134
          NO. OF FILLED LEVELS    =         46
          MOLECULAR WEIGHT        =        237.2548         POINT GROUP:  C2  

          MOLECULAR DIMENSIONS (Angstroms)

            Atom       Atom       Distance
            H    30    H    22    10.49485
            H    27    H    20     6.83728
            H    26    H    21     3.63499


          SCF CALCULATIONS        =        315
 
          WALL-CLOCK TIME         =      2.754 SECONDS
          COMPUTATION TIME        =      5.219 SECONDS




   ATOM   CHEMICAL          X               Y               Z
  NUMBER   SYMBOL      (ANGSTROMS)     (ANGSTROMS)     (ANGSTROMS)
 
     1       N         14.78489584  *  -7.94550093  *  -1.50515033  *
     2       C         14.09411317  *  -8.86861870  *  -2.24213780  *
     3       C         14.09630736  *  -7.01894398  *  -0.77047166  *
     4       C         12.70149684  *  -8.88253204  *  -2.24632854  *
     5       C         12.70376116  *  -6.99788332  *  -0.77115885  *
     6       C         11.99127879  *  -7.93834070  *  -1.51002295  *
     7       C         16.18198666  *  -7.94900473  *  -1.50302284  *
     8       C         16.85912072  *  -9.21981201  *  -1.51454716  *
     9       C         16.86555150  *  -6.68162415  *  -1.48914803  *
    10       O         16.34766315  * -10.29442042  *  -1.78341218  *
    11       O         16.35964516  *  -5.60484049  *  -1.21853871  *
    12       O         18.16035175  *  -6.76743152  *  -1.87217313  *
    13       O         18.15436571  *  -9.14006977  *  -1.13168946  *
    14       C         18.88435329  *  -5.52509706  *  -1.85881010  *
    15       C         20.29653576  *  -5.93339309  *  -2.25058581  *
    16       C         18.87140820  * -10.38646799  *  -1.14103568  *
    17       C         20.29047961  *  -9.98218099  *  -0.77052807  *
    18       H         14.67465308  *  -9.60503867  *  -2.83079734  *
    19       H         14.67856131  *  -6.28555167  *  -0.17968910  *
    20       H         12.18054300  *  -9.63762404  *  -2.83723569  *
    21       H         12.18461303  *  -6.24017069  *  -0.18202003  *
    22       H         10.90201504  *  -7.93549256  *  -1.51198568  *
    23       H         18.41420816  *  -4.83758722  *  -2.58288752  *
    24       H         18.82637319  *  -5.08726660  *  -0.84730368  *
    25       H         20.70784752  *  -6.65999439  *  -1.53696392  *
    26       H         20.30918540  *  -6.41589893  *  -3.23684937  *
    27       H         20.96460681  *  -5.06724057  *  -2.28290731  *
    28       H         18.79917974  * -10.83555862  *  -2.14673588  *
    29       H         18.40571943  * -11.06282451  *  -0.40375348  *
    30       H         20.95340280  * -10.85212716  *  -0.73430166  *
    31       H         20.69824452  *  -9.26764220  *  -1.49820500  *
    32       H         20.31733154  *  -9.48689676  *   0.20910327  *

                             CARTESIAN COORDINATES

   1    N       14.784895840    -7.945500927    -1.505150332
   2    C       14.094113168    -8.868618701    -2.242137801
   3    C       14.096307360    -7.018943976    -0.770471658
   4    C       12.701496838    -8.882532042    -2.246328543
   5    C       12.703761157    -6.997883316    -0.771158852
   6    C       11.991278791    -7.938340696    -1.510022953
   7    C       16.181986657    -7.949004735    -1.503022837
   8    C       16.859120717    -9.219812005    -1.514547156
   9    C       16.865551498    -6.681624148    -1.489148034
  10    O       16.347663148   -10.294420421    -1.783412184
  11    O       16.359645157    -5.604840486    -1.218538713
  12    O       18.160351745    -6.767431519    -1.872173126
  13    O       18.154365713    -9.140069772    -1.131689463
  14    C       18.884353291    -5.525097058    -1.858810102
  15    C       20.296535764    -5.933393094    -2.250585807
  16    C       18.871408198   -10.386467994    -1.141035675
  17    C       20.290479611    -9.982180986    -0.770528068
  18    H       14.674653076    -9.605038673    -2.830797336
  19    H       14.678561311    -6.285551666    -0.179689103
  20    H       12.180543002    -9.637624045    -2.837235691
  21    H       12.184613035    -6.240170693    -0.182020030
  22    H       10.902015042    -7.935492561    -1.511985680
  23    H       18.414208157    -4.837587223    -2.582887516
  24    H       18.826373187    -5.087266602    -0.847303682
  25    H       20.707847517    -6.659994391    -1.536963921
  26    H       20.309185400    -6.415898928    -3.236849373
  27    H       20.964606808    -5.067240565    -2.282907307
  28    H       18.799179742   -10.835558621    -2.146735881
  29    H       18.405719435   -11.062824512    -0.403753484
  30    H       20.953402801   -10.852127159    -0.734301657
  31    H       20.698244516    -9.267642195    -1.498205002
  32    H       20.317331542    -9.486896764     0.209103269


           Empirical Formula: C12 H15 N O4  =    32 atoms



      MOLECULAR POINT GROUP   :   C2  


                  EIGENVALUES  
 -38.42933 -30.71613 -30.64515 -30.09501 -29.25143 -29.05052 -27.27100 -27.24205
 -26.55146 -25.32769 -23.25577 -23.24988 -21.53420 -21.14659 -20.51184 -20.38240
 -17.82314 -17.76146 -17.09877 -16.92695 -16.35174 -16.11718 -16.02851 -15.92150
 -15.72193 -15.49176 -14.91777 -14.16308 -13.88246 -13.84273 -13.42748 -13.38925
 -13.36686 -13.08528 -13.03043 -12.33671 -12.25729 -12.16475 -12.02226 -11.83549
 -11.05076 -10.56496 -10.50005 -10.49307 -10.22464  -8.86055  -1.13419  -0.92271
   1.06816   1.35366   1.51182   2.06203   2.37063   2.51145   3.17631   3.42083
   3.77347   3.85864   4.04948   4.11962   4.21502   4.39937   4.66952   4.68341
   4.90999   4.94756   5.13093   5.17937   5.21672   5.35991   5.58933   5.60893
   5.64686   5.78046   5.82408   5.91858   6.10546   6.15145   6.18537   6.27029
   6.29392   7.00037   7.11966


              NET ATOMIC CHARGES AND DIPOLE CONTRIBUTIONS

  ATOM NO.   TYPE          CHARGE      No. of ELECS.   s-Pop       p-Pop       
    1          N           0.134508        4.8655     1.46297     3.40253
    2          C          -0.026280        4.0263     1.10529     2.92099
    3          C          -0.026377        4.0264     1.10531     2.92107
    4          C          -0.169281        4.1693     1.08642     3.08286
    5          C          -0.169281        4.1693     1.08642     3.08286
    6          C          -0.109896        4.1099     1.08658     3.02331
    7          C          -0.510909        4.5109     1.01672     3.49418
    8          C           0.663351        3.3366     1.08315     2.25350
    9          C           0.663370        3.3366     1.08317     2.25346
   10          O          -0.617074        6.6171     1.88019     4.73689
   11          O          -0.616983        6.6170     1.88018     4.73680
   12          O          -0.371736        6.3717     1.87051     4.50123
   13          O          -0.371782        6.3718     1.87050     4.50128
   14          C          -0.001009        4.0010     1.08865     2.91236
   15          C          -0.461004        4.4610     1.05438     3.40662
   16          C          -0.000993        4.0010     1.08865     2.91234
   17          C          -0.461018        4.4610     1.05439     3.40663
   18          H           0.233655        0.7663     0.76634
   19          H           0.233739        0.7663     0.76626
   20          H           0.176952        0.8230     0.82305
   21          H           0.176953        0.8230     0.82305
   22          H           0.164692        0.8353     0.83531
   23          H           0.133502        0.8665     0.86650
   24          H           0.134395        0.8656     0.86561
   25          H           0.158386        0.8416     0.84161
   26          H           0.158373        0.8416     0.84163
   27          H           0.148539        0.8515     0.85146
   28          H           0.134731        0.8653     0.86527
   29          H           0.133193        0.8668     0.86681
   30          H           0.148522        0.8515     0.85148
   31          H           0.158348        0.8417     0.84165
   32          H           0.158414        0.8416     0.84159
 DIPOLE           X         Y         Z       TOTAL
 POINT-CHG.    -2.596     0.009    -0.015     2.596
 HYBRID        -0.177     0.000    -0.001     0.177
 SUM           -2.772     0.009    -0.015     2.772


          ATOMIC ORBITAL ELECTRON POPULATIONS

     Atom    s        px        py        pz   
    1  N   1.46297   1.09895   1.14967   1.15390
    2  C   1.10529   0.98218   0.97787   0.96094
    3  C   1.10531   0.98251   0.97694   0.96161
    4  C   1.08642   0.99889   1.04845   1.03553
    5  C   1.08642   0.99871   1.04883   1.03532
    6  C   1.08658   1.08885   0.96929   0.96518
    7  C   1.01672   0.82710   1.03169   1.63539
    8  C   1.08315   0.76178   0.81788   0.67383
    9  C   1.08317   0.76212   0.81749   0.67384
   10  O   1.88019   1.74227   1.40481   1.58980
   11  O   1.88018   1.74473   1.40273   1.58934
   12  O   1.87051   1.31792   1.39296   1.79036
   13  O   1.87050   1.31897   1.39155   1.79076
   14  C   1.08865   0.91413   0.86567   1.13257
   15  C   1.05438   1.05591   1.16480   1.18591
   16  C   1.08865   0.91476   0.86392   1.13366
   17  C   1.05439   1.05485   1.16480   1.18698
   18  H   0.76634
   19  H   0.76626
   20  H   0.82305
   21  H   0.82305
   22  H   0.83531
   23  H   0.86650
   24  H   0.86561
   25  H   0.84161
   26  H   0.84163
   27  H   0.85146
   28  H   0.86527
   29  H   0.86681
   30  H   0.85148
   31  H   0.84165
   32  H   0.84159

 **********************
 *                    *
 * JOB ENDED NORMALLY *
 *                    *
 **********************



 TOTAL JOB TIME:             2.76 SECONDS

 == MOPAC DONE ==
