 argument  1 = /lustre/ukt/milias/work/projects/open-collection/theoretical_chemistry/projects/adsorbate_on_surface/on_quartz/quartz/nwchem/Quartz-G_molecular_slab_117atoms/quartz/ecp/Q-G.geopt_crenbl_ecp_revpbe-d3bj_restart.nw



============================== echo of input deck ==============================
echo

restart Q-G_117atoms

permanent_dir /lustre/ukt/milias/scratch/Q-G_117atoms

driver
  maxiter 999
  xyz Qgeomconv
end

task dft optimize

#task dft frequencies
================================================================================


                                         
                                         


             Northwest Computational Chemistry Package (NWChem) 7.2.0
             --------------------------------------------------------


                    Environmental Molecular Sciences Laboratory
                       Pacific Northwest National Laboratory
                                Richland, WA 99352

                              Copyright (c) 1994-2022
                       Pacific Northwest National Laboratory
                            Battelle Memorial Institute

             NWChem is an open-source computational chemistry package
                        distributed under the terms of the
                      Educational Community License (ECL) 2.0
             A copy of the license is included with this distribution
                              in the LICENSE.TXT file

                                  ACKNOWLEDGMENT
                                  --------------

            This software and its documentation were developed at the
            EMSL at Pacific Northwest National Laboratory, a multiprogram
            national laboratory, operated for the U.S. Department of Energy
            by Battelle under Contract Number DE-AC05-76RL01830. Support
            for this work was provided by the Department of Energy Office
            of Biological and Environmental Research, Office of Basic
            Energy Sciences, and the Office of Advanced Scientific Computing.


           Job information
           ---------------

    hostname        = lxbk1136
    program         = /lustre/ukt/milias/work/software/nwchem/nwchem-7.2.0_gnu_openmpi_openblas/bin/LINUX64/nwchem
    date            = Wed Aug 30 15:02:51 2023

    compiled        = Sun_Jul_02_11:55:06_2023
    source          = /lustre/ukt/milias/work/software/nwchem/nwchem-7.2.0_gnu_openmpi_openblas
    nwchem branch   = 7.2.0
    nwchem revision = v7.2.0-beta1-192-gd0d141fdfb
    ga revision     = 5.8.0
    use scalapack   = F
    input           = /lustre/ukt/milias/work/projects/open-collection/theoretical_chemistry/projects/adsorbate_on_surface/on_quartz/quartz/nwchem/Quartz-G_molecular_slab_117atoms/quartz/ecp/Q-G.geopt_crenbl_ecp_revpbe-d3bj_restart.nw
    prefix          = Q-G_117atoms.
    data base       = /lustre/ukt/milias/scratch/Q-G_117atoms/Q-G_117atoms.db
    status          = restart
    nproc           =      140
    time left       =     -1s



           Memory information
           ------------------

    heap     =   26214400 doubles =    200.0 Mbytes
    stack    =   26214397 doubles =    200.0 Mbytes
    global   =   52428800 doubles =    400.0 Mbytes (distinct from heap & stack)
    total    =  104857597 doubles =    800.0 Mbytes
    verify   = yes
    hardfail = no 


           Directory information
           ---------------------

  0 permanent = /lustre/ukt/milias/scratch/Q-G_117atoms
  0 scratch   = .


           Previous task information
           -------------------------

    Theory    = dft                             
    Operation = optimize                      
    Status    = fail                          
    Qmmm      = F
    Ignore    = F


           Geometries in the database
           --------------------------

       Name                              Natoms  Last Modified
       --------------------------------  ------  ------------------------
    1  driverinitial                        117  Wed Aug 30 06:01:29 2023  
    2  geometry                             117  Wed Aug 30 13:52:07 2023  

  The geometry named "geometry" is the default for restart



           Basis sets in the database
           --------------------------

       Name                              Natoms  Last Modified
        --------------------------------  ------  ------------------------
    1  ao basis                               0  Tue Aug 29 16:15:29 2023  
    2  ecp basis                              1  Tue Aug 29 16:15:29 2023  

  The basis set named "ao basis" is the default AO basis for restart




                                NWChem Input Module
                                -------------------




                           NWChem Geometry Optimization
                           ----------------------------




                                    QuartzG ecp


  no constraints, skipping    0.0000000000000000     
 maximum gradient threshold         (gmax) =   0.000450
 rms gradient threshold             (grms) =   0.000300
 maximum cartesian step threshold   (xmax) =   0.001800
 rms cartesian step threshold       (xrms) =   0.001200
 fixed trust radius                (trust) =   0.300000
 maximum step size to saddle      (sadstp) =   0.100000
 energy precision                  (eprec) =   5.0D-06
 maximum number of steps          (nptopt) =  999
 initial hessian option           (inhess) =    0
 line search option               (linopt) =    1
 hessian update option            (modupd) =    1
 saddle point option              (modsad) =    0
 initial eigen-mode to follow     (moddir) =    0
 initial variable to follow       (vardir) =    0
 follow first negative mode     (firstneg) =    T
 apply conjugacy                    (opcg) =    F
 source of zmatrix                         =   autoz   


          -------------------
          Energy Minimization
          -------------------


 Names of Z-matrix variables 
    1              2              3              4              5         
    6              7              8              9             10         
   11             12             13             14             15         
   16             17             18             19             20         
   21             22             23             24             25         
   26             27             28             29             30         
   31             32             33             34             35         
   36             37             38             39             40         
   41             42             43             44             45         
   46             47             48             49             50         
   51             52             53             54             55         
   56             57             58             59             60         
   61             62             63             64             65         
   66             67             68             69             70         
   71             72             73             74             75         
   76             77             78             79             80         
   81             82             83             84             85         
   86             87             88             89             90         
   91             92             93             94             95         
   96             97             98             99            100         
  101            102            103            104            105         
  106            107            108            109            110         
  111            112            113            114            115         
  116            117            118            119            120         
  121            122            123            124            125         
  126            127            128            129            130         
  131            132            133            134            135         
  136            137            138            139            140         
  141            142            143            144            145         
  146            147            148            149            150         
  151            152            153            154            155         
  156            157            158            159            160         
  161            162            163            164            165         
  166            167            168            169            170         
  171            172            173            174            175         
  176            177            178            179            180         
  181            182            183            184            185         
  186            187            188            189            190         
  191            192            193            194            195         
  196            197            198            199            200         
  201            202            203            204            205         
  206            207            208            209            210         
  211            212            213            214            215         
  216            217            218            219            220         
  221            222            223            224            225         
  226            227            228            229            230         
  231            232            233            234            235         
  236            237            238            239            240         
  241            242            243            244            245         
  246            247            248            249            250         
  251            252            253            254            255         
  256            257            258            259            260         
  261            262            263            264            265         
  266            267            268            269            270         
  271            272            273            274            275         
  276            277            278            279            280         
  281            282            283            284            285         
  286            287            288            289            290         
  291            292            293            294            295         
  296            297            298            299            300         
  301            302            303            304            305         
  306            307            308            309            310         
  311            312            313            314            315         
  316            317            318            319            320         
  321            322            323            324            325         
  326            327            328            329            330         
  331            332            333            334            335         
  336            337            338            339            340         
  341            342            343            344            345         
  346            347            348            349            350         
  351            352            353            354            355         
  356            357            358            359            360         
  361            362            363            364            365         
  366            367            368            369            370         
  371            372            373            374            375         
  376            377            378            379            380         
  381            382            383            384            385         
  386            387            388            389            390         
  391            392            393            394            395         
  396            397            398            399            400         
  401            402            403            404            405         
  406            407            408            409            410         
  411            412            413            414            415         
  416            417            418            419            420         
  421            422            423            424            425         
  426            427            428            429            430         
  431            432            433            434            435         
  436            437            438            439            440         
  441            442            443            444            445         
  446            447            448            449            450         
  451            452            453            454            455         
  456            457            458            459            460         
  461            462            463            464            465         
  466            467            468            469            470         
  471            472            473            474            475         
  476            477            478            479            480         
  481            482            483            484            485         
  486            487            488            489            490         
  491            492            493            494            495         
  496            497            498            499            500         
  501            502            503            504            505         
  506            507            508            509            510         
  511            512            513            514            515         
  516            517            518            519            520         
  521            522            523            524            525         
  526            527            528            529            530         
  531            532            533            534            535         
  536            537            538            539            540         
  541            542            543            544            545         
  546            547            548            549            550         
  551            552            553            554            555         
  556            557            558         

 Variables with the same non-blank name are constrained to be equal


 Using old Hessian from previous optimization

          --------
          Step   0
          --------

                                 NWChem DFT Module
                                 -----------------


                                    QuartzG ecp



  Caching 1-el integrals 
   Time after variat. SCF:      6.0
   Time prior to 1st pass:      6.0

           Memory utilization after 1st SCF pass: 
           Heap Space remaining (MW):       25.98            25981488
          Stack Space remaining (MW):       26.19            26192212

   convergence    iter        energy       DeltaE   RMS-Dens  Diis-err    time
 ---------------- ----- ----------------- --------- --------- ---------  ------
 d= 0,ls=0.0,diis     1  -3804.6155693132 -1.86D+04  7.37D-06  5.01D-04   435.5
 d= 0,ls=0.0,diis     2  -3804.6155814205 -1.21D-05  1.64D-06  3.34D-06   443.4
 d= 0,ls=0.0,diis     3  -3804.6155805654  8.55D-07  1.06D-06  1.39D-05   447.6


         Total DFT energy =    -3804.615580565422
      One electron energy =   -35113.750192311127
           Coulomb energy =    16935.670032000737
    Exchange-Corr. energy =     -467.117723265190
 Nuclear repulsion energy =    14840.582303010158

 Numeric. integr. density =      600.000365325249

     Total iterative time =    441.6s




                         DFT ENERGY GRADIENTS

    atom               coordinates                        gradient
                 x          y          z           x          y          z
   1 O      -7.885198  -6.222109  -7.952367    0.000029   0.000069   0.000090
   2 H       8.789968  -1.230884  -2.901186    0.000311  -0.000090  -0.000375
   3 O      -1.510379   4.863035  -5.552121    0.000491   0.000341   0.000849
   4 O      -9.321723  -8.837414   0.932672   -0.000062   0.000139  -0.000198
   5 O      13.995140  -3.015792   6.953526    0.000006   0.000018  -0.000681
   6 Si      3.569601   3.558286   4.269987   -0.000419   0.000161   0.000231
   7 O      -3.764756  -3.711217  -6.028909    0.000036   0.000555   0.000357
   8 Si     11.624519   1.010062   0.416385    0.000480  -0.000493  -0.000566
   9 Si      3.577636  -3.366844  -3.488380    0.000991  -0.000420   0.000846
  10 Si     -5.656040  -6.257511  -5.757737   -0.000142  -0.000627  -0.000002
  11 H       5.483433   0.560213  -5.319540   -0.000110  -0.000394  -0.000217
  12 Si      5.858044   6.448070  -5.280794    0.000593   0.000332  -0.000005
  13 Si     -3.411009   3.469839  -3.432136    0.000264  -0.000176   0.000238
  14 Si    -11.713785  -0.990969  -0.162691   -0.000054   0.000626   0.000441
  15 Si     -8.088687  -6.102024   0.043659   -0.000403  -0.000183  -0.000173
  16 H      15.569365  -3.756349   7.425998    0.000100  -0.000053   0.000447
  17 H      -8.729551   1.353947  -3.262014    0.000432   0.000353   0.000387
  18 H      -1.795734  -9.300474   2.708360    0.000034  -0.000111  -0.000609
  19 O       3.987002   3.915597  -5.720576   -0.000318  -0.000055   0.000261
  20 O       7.044954  -8.544105   7.643938    0.000034  -0.000289  -0.000038
  21 O       1.316718 -14.838002   0.024377   -0.000255   0.000053   0.000681
  22 O     -10.208549  -3.774639   0.075651    0.000204  -0.000147  -0.000307
  23 O      -5.278237   1.342666  -4.821101   -0.000407  -0.000240  -0.000467
  24 O       5.245466   1.869773   6.312618    0.000055   0.000417   0.000255
  25 O      -1.676353  -6.006014   5.138537   -0.000223   0.000002   0.000242
  26 O      -6.932545  -6.304431  -2.889427    0.000280   0.000352   0.000193
  27 O     -14.689513  -1.420149  -1.061851    0.000307   0.000358  -0.000071
  28 O       1.301804  10.418237   1.691385   -0.000333  -0.000046  -0.000361
  29 O      -4.276310   4.516574   6.544398   -0.000714  -0.000585   0.001014
  30 H       2.196984   3.526513  -5.807240    0.000181   0.000178  -0.000252
  31 H      10.257429 -10.057812  -2.091732   -0.000322  -0.000855   0.000079
  32 O     -10.094220   0.714219  -2.223804   -0.000680  -0.000632  -0.000616
  33 O       1.818519  -4.714953  -5.748672    0.000447   0.000139   0.000014
  34 O      10.221724   0.249691   8.191673    0.000092  -0.000156   0.000130
  35 O       3.956859   8.938698  -5.720114   -0.000767   0.000356  -0.000101
  36 Si     -0.744755  11.798676  -0.241082    0.000158  -0.000132  -0.000284
  37 Si     -6.904640   5.997347   5.643700   -0.000367   0.000273   0.000118
  38 O       6.462076  -7.244556   2.691299   -0.000063   0.000078  -0.000165
  39 O      -0.203154 -11.387256  -3.472440    0.001744   0.001302  -0.000871
  40 H     -16.388598  -1.672661  -1.604775   -0.000302  -0.000241   0.000036
  41 H     -15.812057   3.678341   6.830969    0.000128  -0.000024   0.000359
  42 Si     11.230836  -1.856145   6.027881    0.000342  -0.000034   0.000360
  43 O      -0.573632   9.748639  -7.909874   -0.000136  -0.000817   0.000112
  44 O      -8.473439   9.554777  -1.376984    0.000086  -0.000046   0.000381
  45 Si      0.008790  -0.047423   0.505480    0.000877  -0.000295   0.001852
  46 Si      6.073337  -8.162098  -0.301222   -0.000003  -0.000109  -0.001263
  47 O      -6.470899   7.183461   2.749635    0.000273   0.000051  -0.000231
  48 H       9.632421   6.390829  -8.452427    0.000182   0.000061  -0.000152
  49 H     -10.673748  -2.013241   8.745788    0.000677  -0.000766  -0.000795
  50 Si     -1.418548 -10.865520  -6.319996   -0.000959  -0.000602   0.000272
  51 O      -3.472725  10.207469  -0.145525    0.000387   0.000028   0.000646
  52 Si      6.651474  -6.164719   5.642550    0.000418   0.000033   0.000062
  53 O       8.723334  -9.362111  -1.451160    0.000350   0.001232  -0.000044
  54 O     -11.676269   0.359516   2.702477   -0.000047  -0.000637   0.000112
  55 O       9.197199   8.827077   1.657447    0.000342  -0.000242   0.000273
  56 H       0.238035   6.542282   6.357899    0.000009   0.000411  -0.000119
  57 O       0.840030  -9.590491  -8.176884    0.000142   0.000067  -0.000137
  58 Si      0.940566 -11.774986  -0.536057   -0.000606  -0.000356  -0.000539
  59 O       1.876054   1.639748   2.403376    0.000031  -0.000091  -0.000375
  60 H      -9.197614  -6.138775  -9.185689   -0.000082  -0.000018  -0.000199
  61 H      -1.114323   6.340886  -6.566567   -0.000425  -0.000306  -0.000428
  62 O      -1.876946  -1.847292   2.267864    0.000537   0.000039   0.000684
  63 O      -5.740071  -5.252239   1.986439    0.000258  -0.000118   0.000141
  64 H      -1.491821  16.523052   0.982083   -0.000153   0.000082  -0.000093
  65 O      10.117464   3.792470   0.673437   -0.000109   0.000336   0.000361
  66 Si      7.999376   6.121186   0.631677    0.000207  -0.000017  -0.000989
  67 H      -8.017492   9.635352   8.793694    0.000010  -0.000068   0.000029
  68 O     -14.244125   2.912098   6.382819   -0.000177   0.000126  -0.000590
  69 H      -3.114341 -15.050668  -8.307365   -0.000059   0.000240  -0.000080
  70 H      -9.966853 -10.437567   1.453831    0.000031  -0.000111   0.000125
  71 H       3.357491  15.201471  -8.078196    0.000121  -0.000164  -0.000611
  72 H       7.236635  -9.923906   8.787159   -0.000026   0.000104   0.000120
  73 H       1.540870 -16.595771   0.349318    0.000115  -0.000155  -0.000470
  74 O      11.499914  -0.414718   3.248457   -0.000268   0.000699   0.000521
  75 O       5.120551  -5.665268  -1.996503    0.000264  -0.000042   0.000391
  76 H       6.700327   1.136366   7.140547   -0.000058  -0.000212  -0.000264
  77 H      -0.088945  -6.504437   5.869440    0.000021   0.000101  -0.000191
  78 O     -10.674094  -0.578782   7.649446   -0.000946   0.001035   0.001337
  79 O      -9.242880   3.877890   5.567620    0.000680  -0.000420  -0.000545
  80 H       2.097109  -9.573460  -9.475366   -0.000206  -0.000172   0.000144
  81 H      -1.980301  -3.303329  -6.066335    0.000031  -0.000257  -0.000313
  82 H      16.349781   1.726877  -0.827927    0.000161   0.000193   0.000358
  83 O      -3.729561  -8.740086  -6.107890   -0.000079   0.000005   0.000072
  84 O       4.026016  -4.545106   6.340502   -0.000234   0.000333   0.000526
  85 O      -0.964400 -10.430096   1.549463    0.000200  -0.000039   0.000705
  86 O       2.671065  13.700418  -7.352273   -0.000172   0.000441   0.000824
  87 H       2.434711   9.386872   2.654691    0.000074   0.000046   0.000130
  88 O       1.577261   5.516423   5.704920    0.000236  -0.000818   0.000109
  89 O      -5.264753  -2.329946   6.125244   -0.000775  -0.000733   0.000498
  90 H       1.390506  -6.177817  -6.769999   -0.000527  -0.000084   0.000104
  91 O       9.060267  -4.128944   5.848288   -0.000445  -0.000207  -0.000313
  92 O      -1.198240  14.805541   0.523431    0.000204   0.000065   0.000217
  93 O      -7.613997   8.309274   7.642813    0.000021   0.000167   0.000001
  94 O      14.626875   1.462712  -0.373360   -0.000383  -0.000124  -0.000549
  95 O       3.713573 -10.253538  -0.406891   -0.000292  -0.000231   0.001723
  96 H      -2.905696   3.361484   6.771649    0.000588   0.000341  -0.000664
  97 O       0.384285  11.597840  -3.199987   -0.000485  -0.000189  -0.000121
  98 O       5.499697  -1.169964  -4.682644    0.000279   0.000316   0.000495
  99 H      -5.257452  -0.366874  -5.511034    0.000251   0.000317   0.000210
 100 H      10.307455   1.400687   9.581753   -0.000068  -0.000021  -0.000142
 101 O      -2.427488 -13.528276  -7.629408    0.000194  -0.000189   0.000067
 102 H      -1.814669   9.755662  -9.225439   -0.000079   0.000445  -0.000163
 103 O       6.941262   6.431995  -2.328006   -0.001041  -0.000339   0.000392
 104 O       8.239967   6.451064  -7.308479   -0.000024  -0.000139  -0.000016
 105 H       9.876860  10.397890   2.223362   -0.000039   0.000257   0.000059
 106 Si      1.646350  11.053716  -6.023909    0.000979  -0.000110  -0.000014
 107 O      -1.666709   1.883079  -1.336525    0.000200  -0.000044  -0.001020
 108 O       1.693390  -1.854612  -1.452075   -0.002541   0.000763  -0.002810
 109 O       5.597596   5.201635   2.479331    0.000396   0.000189   0.000337
 110 Si     -5.916443   8.204248  -0.179663   -0.000151   0.000293  -0.000692
 111 O      10.068150  -0.645210  -1.727082   -0.000559  -0.000123   0.000537
 112 H      -6.564379  -1.395766   6.982314    0.000590   0.000449  -0.000340
 113 H       3.062417  -3.031752   6.582842    0.000050  -0.000150  -0.000341
 114 Si    -11.484082   1.663381   5.559267   -0.000055   0.000055  -0.000099
 115 O      -4.993442   5.749841  -1.954082    0.000069  -0.000105   0.000154
 116 Si     -3.663409  -3.879628   3.918973    0.000018   0.000129  -0.000433
 117 H      -9.997112  10.229584  -2.064342   -0.000148   0.000095  -0.000207

  no constraints, skipping    0.0000000000000000     

@ Step       Energy      Delta E   Gmax     Grms     Xrms     Xmax   Walltime
@ ---- ---------------- -------- -------- -------- -------- -------- --------
@    0   -3804.61558057  0.0D+00  0.00065  0.00012  0.00000  0.00000    489.9
                                              ok                    

 Taking step in negative mode    1  eval=-1.8D-04 grad=-9.7D-06 step= 5.5D-02
 Limiting step in negative mode    2  eval=-6.7D-07 grad= 1.1D-05 step=-9.0D-02
 Limiting step in negative mode    3  eval=-1.4D-07 grad=-1.5D-05 step= 9.0D-02
 Restricting large step in mode    4 eval= 1.5D-06 step=-1.8D+00 new=-3.0D-01
 Restricting large step in mode    5 eval= 1.2D-05 step=-2.1D+00 new=-3.0D-01
 Restricting large step in mode    6 eval= 2.7D-05 step= 3.6D-01 new= 3.0D-01
  no constraints, skipping    0.0000000000000000     
  no constraints, skipping    0.0000000000000000     
  no constraints, skipping    0.0000000000000000     
  no constraints, skipping    0.0000000000000000     
  no constraints, skipping    0.0000000000000000     
  no constraints, skipping    0.0000000000000000     
  no constraints, skipping    0.0000000000000000     
  no constraints, skipping    0.0000000000000000     

                                 NWChem DFT Module
                                 -----------------


                                    QuartzG ecp



  Caching 1-el integrals 
   Time after variat. SCF:    499.4
   Time prior to 1st pass:    499.4

           Memory utilization after 1st SCF pass: 
           Heap Space remaining (MW):       25.98            25981488
          Stack Space remaining (MW):       26.19            26192212

   convergence    iter        energy       DeltaE   RMS-Dens  Diis-err    time
 ---------------- ----- ----------------- --------- --------- ---------  ------
 d= 0,ls=0.0,diis     1  -3804.6154913406 -1.86D+04  2.42D-05  6.26D-03   509.1
 d= 0,ls=0.0,diis     2  -3804.6156158953 -1.25D-04  5.81D-06  4.18D-05   513.6
 d= 0,ls=0.0,diis     3  -3804.6156057727  1.01D-05  3.76D-06  1.66D-04   518.1
 d= 0,ls=0.0,diis     4  -3804.6156194435 -1.37D-05  2.59D-07  2.51D-07   522.6
 d= 0,ls=0.0,diis     5  -3804.6156194527 -9.11D-09  1.17D-07  1.43D-07   527.1


         Total DFT energy =    -3804.615619452654
      One electron energy =   -35117.214346035442
           Coulomb energy =    16937.389874315129
    Exchange-Corr. energy =     -467.117616171104
 Nuclear repulsion energy =    14842.326468438763

 Numeric. integr. density =      600.000371267362

     Total iterative time =     27.8s


 Line search: 
     step= 1.00 grad=-7.6D-05 hess= 3.8D-05 energy=  -3804.615619 mode=accept  
 new step= 1.00                   predicted energy=  -3804.615619
  no constraints, skipping    0.0000000000000000     
  no constraints, skipping    0.0000000000000000     
  no constraints, skipping    0.0000000000000000     
  no constraints, skipping    0.0000000000000000     
  no constraints, skipping    0.0000000000000000     
  no constraints, skipping    0.0000000000000000     
  no constraints, skipping    0.0000000000000000     
  no constraints, skipping    0.0000000000000000     

          --------
          Step   1
          --------

                                 NWChem DFT Module
                                 -----------------


                                    QuartzG ecp




  The DFT is already converged 

         Total DFT energy =  -3804.615619452654



                         DFT ENERGY GRADIENTS

    atom               coordinates                        gradient
                 x          y          z           x          y          z
   1 O      -7.893173  -6.220774  -7.948095    0.000103   0.000111   0.000043
   2 H       8.790026  -1.216543  -2.897278    0.000285   0.000050  -0.000448
   3 O      -1.514498   4.852919  -5.556005    0.000329   0.000020   0.000928
   4 O      -9.323855  -8.840280   0.947188   -0.000078   0.000055  -0.000150
   5 O      13.980548  -3.021042   6.967056    0.000103   0.000022  -0.000584
   6 Si      3.562167   3.557658   4.269628   -0.000517   0.000047   0.000320
   7 O      -3.777658  -3.707457  -6.018030   -0.000169   0.000534   0.000167
   8 Si     11.624006   1.010764   0.428941    0.000311  -0.000726  -0.000568
   9 Si      3.574712  -3.359863  -3.491576    0.000918  -0.000181   0.001101
  10 Si     -5.664592  -6.257673  -5.753209   -0.000110  -0.000393   0.000163
  11 H       5.473709   0.571460  -5.316599   -0.000195  -0.000432  -0.000203
  12 Si      5.868430   6.442293  -5.276120    0.000289   0.000207  -0.000270
  13 Si     -3.418694   3.466881  -3.434138    0.000603  -0.000302   0.000200
  14 Si    -11.713231  -0.992058  -0.151181   -0.000015   0.000562   0.000635
  15 Si     -8.091168  -6.107226   0.051044   -0.000322  -0.000355  -0.000092
  16 H      15.552181  -3.765204   7.441342   -0.000064  -0.000003   0.000369
  17 H      -8.736003   1.346898  -3.261682    0.000445   0.000252   0.000270
  18 H      -1.772896  -9.298382   2.708699   -0.000001  -0.000011  -0.000287
  19 O       3.996836   3.909751  -5.715533   -0.000062  -0.000258   0.000346
  20 O       7.023672  -8.542723   7.640244    0.000174  -0.000204  -0.000147
  21 O       1.322256 -14.836254   0.009913   -0.000165   0.000005   0.000687
  22 O     -10.210035  -3.777854   0.084286    0.000097  -0.000269  -0.000578
  23 O      -5.287206   1.338241  -4.818840   -0.000288   0.000297  -0.000433
  24 O       5.234050   1.862931   6.311239    0.000086   0.000353   0.000120
  25 O      -1.663210  -6.010919   5.128803   -0.000013   0.000170   0.000354
  26 O      -6.943110  -6.312437  -2.885536    0.000006   0.000321   0.000058
  27 O     -14.691749  -1.420858  -1.041549    0.000107   0.000343  -0.000055
  28 O       1.299223  10.426562   1.683828   -0.000296  -0.000082  -0.000349
  29 O      -4.268720   4.525781   6.543412   -0.000644  -0.000678   0.001069
  30 H       2.205635   3.526615  -5.805493    0.000239   0.000307  -0.000251
  31 H      10.273375 -10.030750  -2.102786   -0.000255  -0.000878   0.000091
  32 O     -10.097863   0.710484  -2.217492   -0.000714  -0.000506  -0.000390
  33 O       1.816868  -4.707344  -5.753987    0.000265  -0.000024  -0.000386
  34 O      10.208468   0.248869   8.198326    0.000244  -0.000110   0.000052
  35 O       3.969363   8.932694  -5.720444   -0.000399   0.000308  -0.000030
  36 Si     -0.745991  11.800371  -0.254818    0.000371  -0.000036  -0.000249
  37 Si     -6.897324   6.006065   5.643340   -0.000217   0.000358   0.000322
  38 O       6.462564  -7.250247   2.685347   -0.000029  -0.000403   0.000181
  39 O      -0.198441 -11.382327  -3.483059    0.001779   0.001221  -0.000830
  40 H     -16.390638  -1.673275  -1.584217   -0.000124  -0.000224   0.000049
  41 H     -15.797891   3.664446   6.860507    0.000048   0.000024   0.000386
  42 Si     11.219556  -1.857933   6.036428    0.000181  -0.000171  -0.000174
  43 O      -0.558396   9.729547  -7.920904   -0.000239  -0.000684  -0.000059
  44 O      -8.477474   9.556465  -1.380604    0.000007  -0.000015   0.000248
  45 Si      0.002515  -0.045778   0.502913    0.000725  -0.000524   0.001404
  46 Si      6.078745  -8.158324  -0.311563   -0.000095  -0.000128  -0.001129
  47 O      -6.468306   7.189322   2.746766    0.000184   0.000030  -0.000034
  48 H       9.648757   6.379155  -8.439300   -0.000017   0.000065   0.000002
  49 H     -10.645450  -2.016386   8.747124    0.000773  -0.000909  -0.000777
  50 Si     -1.418313 -10.857122  -6.327869   -0.000808  -0.000789   0.000445
  51 O      -3.474807  10.209915  -0.157772    0.000133  -0.000086   0.000519
  52 Si      6.639445  -6.164983   5.635426    0.000119   0.000148  -0.000210
  53 O       8.734406  -9.343706  -1.464289    0.000399   0.001246  -0.000154
  54 O     -11.667771   0.364949   2.710567   -0.000065  -0.000152  -0.000018
  55 O       9.195364   8.828477   1.665089    0.000386  -0.000093   0.000215
  56 H       0.228068   6.537578   6.359723    0.000061   0.000400  -0.000068
  57 O       0.835869  -9.573125  -8.184200   -0.000198   0.000187  -0.000098
  58 Si      0.949255 -11.772663  -0.549030   -0.000717  -0.000298  -0.000550
  59 O       1.870086   1.643722   2.397962   -0.000020   0.000017  -0.000457
  60 H      -9.208646  -6.139855  -9.178191   -0.000078  -0.000050  -0.000125
  61 H      -1.118612   6.329918  -6.572996   -0.000471  -0.000031  -0.000642
  62 O      -1.877864  -1.846987   2.268224    0.000486   0.000320   0.000807
  63 O      -5.737613  -5.256694   1.988428    0.000334  -0.000124   0.000295
  64 H      -1.495431  16.528160   0.952564   -0.000146   0.000095  -0.000085
  65 O      10.117566   3.792930   0.687399   -0.000199   0.000229   0.000486
  66 Si      7.999848   6.121309   0.640161    0.000459  -0.000042  -0.001095
  67 H      -8.011351   9.649278   8.786418   -0.000037  -0.000036   0.000014
  68 O     -14.230002   2.901601   6.405797   -0.000028   0.000087  -0.000646
  69 H      -3.108735 -15.043627  -8.316601   -0.000071   0.000187  -0.000070
  70 H      -9.969383 -10.438790   1.472317    0.000063  -0.000008   0.000103
  71 H       3.364332  15.188685  -8.088811    0.000173  -0.000140  -0.000623
  72 H       7.206999  -9.923202   8.784069   -0.000072   0.000077   0.000126
  73 H       1.542849 -16.594584   0.333387    0.000075  -0.000062  -0.000487
  74 O      11.496395  -0.414455   3.259694   -0.000116   0.001008   0.000664
  75 O       5.116929  -5.660831  -2.002136    0.000073  -0.000114   0.000087
  76 H       6.686443   1.130111   7.144525    0.000046  -0.000283  -0.000085
  77 H      -0.072490  -6.506488   5.854873   -0.000065  -0.000107  -0.000245
  78 O     -10.645614  -0.580927   7.651584   -0.001067   0.001310   0.001251
  79 O      -9.235490   3.885529   5.572527    0.000595  -0.000362  -0.000625
  80 H       2.096382  -9.550705  -9.479755    0.000017  -0.000117   0.000088
  81 H      -1.993156  -3.298807  -6.056746    0.000111  -0.000194  -0.000196
  82 H      16.352484   1.719576  -0.807815    0.000089   0.000135   0.000374
  83 O      -3.733162  -8.735856  -6.110744   -0.000011  -0.000014  -0.000187
  84 O       4.011551  -4.543379   6.320023   -0.000229   0.000353   0.000527
  85 O      -0.950040 -10.425364   1.540109    0.000180  -0.000127   0.000370
  86 O       2.676496  13.688301  -7.362673   -0.000305   0.000327   0.000918
  87 H       2.432207   9.401109   2.653213    0.000087   0.000093   0.000138
  88 O       1.568389   5.514335   5.704849   -0.000009  -0.000759   0.000021
  89 O      -5.256633  -2.342237   6.130570   -0.000390  -0.000661   0.000441
  90 H       1.395219  -6.173360  -6.773055   -0.000206  -0.000036   0.000321
  91 O       9.047811  -4.129219   5.853601   -0.000229  -0.000120   0.000141
  92 O      -1.201011  14.809234   0.499705    0.000178  -0.000055   0.000157
  93 O      -7.604539   8.320149   7.640177    0.000121   0.000039  -0.000030
  94 O      14.627840   1.461484  -0.356830   -0.000245  -0.000033  -0.000508
  95 O       3.725241 -10.255784  -0.423473   -0.000093  -0.000176   0.001661
  96 H      -2.902032   3.366305   6.770345    0.000500   0.000462  -0.000686
  97 O       0.385981  11.591249  -3.211930   -0.000540  -0.000034  -0.000168
  98 O       5.495368  -1.160714  -4.683244    0.000160   0.000421   0.000353
  99 H      -5.268059  -0.377514  -5.497194    0.000107  -0.000279   0.000259
 100 H      10.286279   1.400910   9.588042   -0.000170   0.000005  -0.000108
 101 O      -2.424267 -13.519730  -7.639413    0.000176  -0.000107   0.000113
 102 H      -1.791172   9.728822  -9.243778    0.000071   0.000341  -0.000001
 103 O       6.946706   6.429863  -2.321597   -0.001019  -0.000203   0.000384
 104 O       8.253977   6.441595  -7.298914    0.000150  -0.000098  -0.000042
 105 H       9.875260  10.398123   2.233290   -0.000082   0.000126   0.000049
 106 Si      1.654343  11.042271  -6.031659    0.000934  -0.000203   0.000098
 107 O      -1.680365   1.882678  -1.332349   -0.000144   0.000006  -0.000499
 108 O       1.689612  -1.849969  -1.454864   -0.002249   0.000722  -0.002751
 109 O       5.594704   5.201569   2.484248    0.000306   0.000083   0.000339
 110 Si     -5.918657   8.207303  -0.185700   -0.000070   0.000511  -0.000803
 111 O      10.067660  -0.639724  -1.717969   -0.000421  -0.000078   0.000727
 112 H      -6.567696  -1.418815   6.983490    0.000290   0.000363  -0.000248
 113 H       3.052447  -3.026437   6.559068    0.000035  -0.000127  -0.000325
 114 Si    -11.469416   1.663545   5.568824   -0.000147  -0.000364  -0.000034
 115 O      -4.998501   5.751837  -1.960517    0.000087  -0.000118   0.000137
 116 Si     -3.656975  -3.885218   3.918152    0.000111   0.000176  -0.000720
 117 H     -10.002248  10.230032  -2.066174   -0.000041   0.000047  -0.000142

  no constraints, skipping    0.0000000000000000     

  Step       Energy      Delta E   Gmax     Grms     Xrms     Xmax   Walltime
  ---- ---------------- -------- -------- -------- -------- -------- --------
@    1   -3804.61561945 -3.9D-05  0.00048  0.00011  0.00949  0.02977    573.9
                                              ok                    

 Limiting step in negative mode    1  eval=-2.4D-04 grad= 4.3D-05 step=-9.0D-02
 Limiting step in negative mode    2  eval=-6.2D-05 grad= 2.8D-05 step=-9.0D-02
 Limiting step in negative mode    3  eval=-1.5D-05 grad= 2.9D-05 step=-9.0D-02
 Restricting large step in mode    4 eval= 4.2D-06 step= 6.2D+00 new= 3.0D-01
 Restricting large step in mode    5 eval= 8.4D-06 step= 3.5D+00 new= 3.0D-01
 Restricting large step in mode    6 eval= 1.6D-05 step=-6.7D-01 new=-3.0D-01
 Restricting large step in mode    8 eval= 4.1D-05 step= 7.2D-01 new= 3.0D-01
  no constraints, skipping    0.0000000000000000     
  no constraints, skipping    0.0000000000000000     
  no constraints, skipping    0.0000000000000000     
  no constraints, skipping    0.0000000000000000     
  no constraints, skipping    0.0000000000000000     
  no constraints, skipping    0.0000000000000000     
  no constraints, skipping    0.0000000000000000     
  no constraints, skipping    0.0000000000000000     

                                 NWChem DFT Module
                                 -----------------


                                    QuartzG ecp



  Caching 1-el integrals 
   Time after variat. SCF:    583.4
   Time prior to 1st pass:    583.4

           Memory utilization after 1st SCF pass: 
           Heap Space remaining (MW):       25.98            25981488
          Stack Space remaining (MW):       26.19            26192212

   convergence    iter        energy       DeltaE   RMS-Dens  Diis-err    time
 ---------------- ----- ----------------- --------- --------- ---------  ------
 d= 0,ls=0.0,diis     1  -3804.6154249199 -1.86D+04  3.40D-05  1.01D-02   593.1
 d= 0,ls=0.0,diis     2  -3804.6156817353 -2.57D-04  6.79D-06  6.14D-05   597.6
 d= 0,ls=0.0,diis     3  -3804.6156677606  1.40D-05  4.41D-06  2.35D-04   601.9
 d= 0,ls=0.0,diis     4  -3804.6156869682 -1.92D-05  3.99D-07  6.42D-07   606.2
 d= 0,ls=0.0,diis     5  -3804.6156869944 -2.61D-08  1.79D-07  3.35D-07   610.6


         Total DFT energy =    -3804.615686994352
      One electron energy =   -35118.035263650163
           Coulomb energy =    16937.816402998997
    Exchange-Corr. energy =     -467.118274017715
 Nuclear repulsion energy =    14842.721447674528

 Numeric. integr. density =      600.000325736614

     Total iterative time =     27.2s


 Line search: 
     step= 1.00 grad=-1.2D-04 hess= 5.6D-05 energy=  -3804.615687 mode=downhill
 new step= 1.10                   predicted energy=  -3804.615688
  no constraints, skipping    0.0000000000000000     
  no constraints, skipping    0.0000000000000000     
  no constraints, skipping    0.0000000000000000     
  no constraints, skipping    0.0000000000000000     
  no constraints, skipping    0.0000000000000000     
  no constraints, skipping    0.0000000000000000     
  no constraints, skipping    0.0000000000000000     
  no constraints, skipping    0.0000000000000000     

          --------
          Step   2
          --------

                                 NWChem DFT Module
                                 -----------------


                                    QuartzG ecp



  Caching 1-el integrals 
   Time after variat. SCF:    622.4
   Time prior to 1st pass:    622.4

           Memory utilization after 1st SCF pass: 
           Heap Space remaining (MW):       25.98            25981488
          Stack Space remaining (MW):       26.19            26192212

   convergence    iter        energy       DeltaE   RMS-Dens  Diis-err    time
 ---------------- ----- ----------------- --------- --------- ---------  ------
 d= 0,ls=0.0,diis     1  -3804.6156855327 -1.86D+04  3.47D-06  1.06D-04   641.3
 d= 0,ls=0.0,diis     2  -3804.6156882087 -2.68D-06  7.02D-07  6.64D-07   646.1
 d= 0,ls=0.0,diis     3  -3804.6156880599  1.49D-07  4.56D-07  2.51D-06   651.2


         Total DFT energy =    -3804.615688059925
      One electron energy =   -35118.128281526006
           Coulomb energy =    16937.862550195256
    Exchange-Corr. energy =     -467.117980825987
 Nuclear repulsion energy =    14842.768024096813

 Numeric. integr. density =      600.000321200677

     Total iterative time =     28.8s




                         DFT ENERGY GRADIENTS

    atom               coordinates                        gradient
                 x          y          z           x          y          z
   1 O      -7.887609  -6.228492  -7.955801   -0.000027   0.000179   0.000112
   2 H       8.795040  -1.223497  -2.891073    0.000518   0.000380  -0.000223
   3 O      -1.516482   4.860272  -5.563574    0.000639   0.000383   0.000788
   4 O      -9.337519  -8.832665   0.956164   -0.000157  -0.000104  -0.000004
   5 O      13.976261  -3.017010   6.977782    0.000137   0.000096  -0.000413
   6 Si      3.552448   3.565299   4.259380   -0.000683   0.000612   0.000106
   7 O      -3.779260  -3.715527  -6.011716    0.000311   0.000474   0.000144
   8 Si     11.621225   1.012125   0.435484    0.000223  -0.000111  -0.000319
   9 Si      3.580490  -3.365258  -3.500905    0.000966   0.000257   0.000923
  10 Si     -5.667743  -6.264499  -5.752353    0.000176  -0.000269  -0.000016
  11 H       5.505538   0.557118  -5.332112    0.000070  -0.000219  -0.000140
  12 Si      5.870167   6.443620  -5.285567    0.000533   0.000173  -0.000639
  13 Si     -3.419705   3.468574  -3.444932    0.000427  -0.000364   0.000199
  14 Si    -11.706393  -0.983262  -0.149778    0.000444   0.000296   0.000517
  15 Si     -8.097361  -6.106116   0.049545   -0.000046  -0.000004  -0.000107
  16 H      15.545741  -3.767481   7.448731   -0.000161  -0.000038   0.000278
  17 H      -8.723458   1.346621  -3.262298    0.000721   0.000252   0.000036
  18 H      -1.760238  -9.289150   2.711589   -0.000168  -0.000108  -0.000122
  19 O       4.018802   3.897330  -5.727611    0.000426   0.000094   0.000743
  20 O       6.994813  -8.533469   7.642504    0.000185   0.000327  -0.000492
  21 O       1.322431 -14.834809   0.022165    0.000043   0.000112   0.000776
  22 O     -10.210467  -3.771965   0.085114   -0.000004  -0.000287  -0.000506
  23 O      -5.288941   1.341629  -4.832601   -0.000385   0.000703  -0.000098
  24 O       5.224113   1.877688   6.309149    0.000137   0.000033   0.000314
  25 O      -1.653949  -6.014240   5.110915    0.000114   0.000285   0.000051
  26 O      -6.958503  -6.320420  -2.890062   -0.000253   0.000056  -0.000196
  27 O     -14.685301  -1.405175  -1.043539   -0.000404   0.000300  -0.000081
  28 O       1.304307  10.430914   1.695035   -0.000178  -0.000319  -0.000488
  29 O      -4.270094   4.522364   6.562602   -0.000693  -0.000875   0.001071
  30 H       2.235876   3.481691  -5.826919   -0.000243  -0.000391  -0.000364
  31 H      10.292962 -10.013602  -2.091779   -0.000090  -0.000934   0.000081
  32 O     -10.085806   0.718101  -2.212420   -0.001038  -0.000481  -0.000057
  33 O       1.818635  -4.715406  -5.758603    0.000229   0.000126  -0.000211
  34 O      10.199627   0.250453   8.202260    0.000149  -0.000023   0.000194
  35 O       3.959382   8.924830  -5.724862    0.000154  -0.000106  -0.000066
  36 Si     -0.742664  11.801165  -0.244056    0.000160   0.000059  -0.000095
  37 Si     -6.892141   6.006252   5.651052   -0.000025   0.000467   0.000154
  38 O       6.460407  -7.247520   2.684686   -0.000201  -0.000222   0.000365
  39 O      -0.196429 -11.391115  -3.480906    0.001708   0.001117  -0.000801
  40 H     -16.381560  -1.654701  -1.593528    0.000282  -0.000183   0.000123
  41 H     -15.790115   3.640345   6.888522    0.000135  -0.000030   0.000355
  42 Si     11.215363  -1.857770   6.042504    0.000345  -0.000510  -0.000464
  43 O      -0.575387   9.745099  -7.905146   -0.000468  -0.000332  -0.000064
  44 O      -8.473540   9.554686  -1.362563   -0.000299   0.000022   0.000098
  45 Si      0.003653  -0.048254   0.488884    0.000392  -0.000222   0.000559
  46 Si      6.084970  -8.159058  -0.311804    0.000040  -0.000392  -0.000713
  47 O      -6.455240   7.180697   2.753006    0.000066   0.000043   0.000153
  48 H       9.651385   6.414375  -8.446844   -0.000243   0.000049   0.000214
  49 H     -10.640235  -2.027629   8.743577    0.000653  -0.000999  -0.000736
  50 Si     -1.423569 -10.866327  -6.322658   -0.001031  -0.000724   0.000349
  51 O      -3.466299  10.201066  -0.155251   -0.000159  -0.000467   0.000289
  52 Si      6.630461  -6.158235   5.632094   -0.000141  -0.000492  -0.000513
  53 O       8.747913  -9.333882  -1.459442    0.000428   0.001418  -0.000280
  54 O     -11.662766   0.370578   2.713815   -0.000253  -0.000055   0.000074
  55 O       9.193335   8.831917   1.654345    0.000380   0.000334  -0.000012
  56 H       0.198389   6.536578   6.326177    0.000044   0.000530  -0.000087
  57 O       0.825102  -9.584922  -8.187907    0.000051   0.000125   0.000025
  58 Si      0.955166 -11.772676  -0.547374   -0.000983  -0.000611  -0.000706
  59 O       1.865648   1.641036   2.392527    0.000053  -0.000259   0.000375
  60 H      -9.196512  -6.154054  -9.192917    0.000061  -0.000101  -0.000054
  61 H      -1.114166   6.340248  -6.573345   -0.000517   0.000105  -0.000741
  62 O      -1.875254  -1.852349   2.252529    0.000582   0.000345   0.000965
  63 O      -5.738237  -5.257861   1.980308    0.000221  -0.000024   0.000281
  64 H      -1.510338  16.524125   0.969652   -0.000111   0.000003  -0.000108
  65 O      10.113610   3.793815   0.686280   -0.000237   0.000010   0.000356
  66 Si      7.996890   6.124142   0.632265    0.000713   0.000051  -0.001048
  67 H      -8.009132   9.661291   8.779183   -0.000063   0.000044   0.000072
  68 O     -14.220903   2.884399   6.427553   -0.000139   0.000125  -0.000590
  69 H      -3.117432 -15.058732  -8.297469   -0.000113   0.000019  -0.000101
  70 H      -9.993878 -10.425087   1.485402    0.000071   0.000148   0.000046
  71 H       3.386038  15.179469  -8.082052    0.000314  -0.000102  -0.000611
  72 H       7.163157  -9.915062   8.788131   -0.000092  -0.000202   0.000325
  73 H       1.525728 -16.595121   0.345880   -0.000067  -0.000055  -0.000539
  74 O      11.492658  -0.415703   3.264799   -0.000287   0.000576   0.000475
  75 O       5.119627  -5.664459  -2.005160   -0.000016  -0.000185   0.000234
  76 H       6.678594   1.149999   7.143214    0.000062  -0.000149  -0.000087
  77 H      -0.059541  -6.498949   5.837302    0.000035  -0.000213  -0.000108
  78 O     -10.624581  -0.592016   7.647919   -0.001089   0.001335   0.001290
  79 O      -9.232328   3.887809   5.581273    0.000500  -0.000322  -0.000574
  80 H       2.067269  -9.558207  -9.500899   -0.000106  -0.000058  -0.000004
  81 H      -1.995732  -3.306870  -6.043332   -0.000493  -0.000258  -0.000105
  82 H      16.348227   1.720690  -0.808570   -0.000022   0.000172   0.000405
  83 O      -3.736086  -8.743168  -6.100283   -0.000081   0.000158   0.000106
  84 O       4.008273  -4.522727   6.303169    0.000024   0.000461   0.000193
  85 O      -0.939152 -10.414048   1.538919    0.000288   0.000144   0.000270
  86 O       2.682657  13.685256  -7.357809   -0.000546   0.000177   0.000939
  87 H       2.439261   9.413420   2.670220    0.000077   0.000241   0.000195
  88 O       1.551849   5.521909   5.684379   -0.000107  -0.000961   0.000066
  89 O      -5.248613  -2.345036   6.120121   -0.000016  -0.000596   0.000363
  90 H       1.400146  -6.181989  -6.778501   -0.000103  -0.000153   0.000150
  91 O       9.046328  -4.130788   5.859870    0.000060   0.000210   0.000422
  92 O      -1.211137  14.806414   0.515930    0.000136  -0.000020   0.000152
  93 O      -7.600999   8.327627   7.638429    0.000135  -0.000083  -0.000150
  94 O      14.624870   1.460516  -0.354520    0.000049  -0.000212  -0.000765
  95 O       3.734712 -10.259806  -0.427262    0.000013   0.000079   0.001686
  96 H      -2.914700   3.352606   6.801404    0.000334   0.000646  -0.000743
  97 O       0.396631  11.601900  -3.199161   -0.000235   0.000294  -0.000141
  98 O       5.505192  -1.175440  -4.701035   -0.000205   0.000095   0.000135
  99 H      -5.266560  -0.373121  -5.515535    0.000268  -0.000671  -0.000134
 100 H      10.275588   1.396024   9.597469   -0.000165   0.000011  -0.000081
 101 O      -2.434104 -13.530229  -7.628880    0.000230  -0.000039   0.000131
 102 H      -1.810654   9.735624  -9.225217    0.000240   0.000134   0.000049
 103 O       6.945892   6.431863  -2.329883   -0.001287  -0.000054   0.000554
 104 O       8.255675   6.463682  -7.307734    0.000192   0.000031  -0.000165
 105 H       9.878512  10.395369   2.231763   -0.000135  -0.000190   0.000074
 106 Si      1.650024  11.044975  -6.023729    0.000452  -0.000251   0.000191
 107 O      -1.682948   1.875975  -1.346336   -0.000289  -0.000522  -0.000226
 108 O       1.697795  -1.849439  -1.466732   -0.002038   0.000269  -0.002724
 109 O       5.588781   5.205434   2.473393    0.000422   0.000098   0.000105
 110 Si     -5.911025   8.201316  -0.179403    0.000314   0.000570  -0.000305
 111 O      10.065920  -0.644084  -1.707701   -0.000564  -0.000371   0.000812
 112 H      -6.574281  -1.433419   6.965229    0.000043   0.000414  -0.000268
 113 H       3.055153  -3.003126   6.549964   -0.000030  -0.000169  -0.000121
 114 Si    -11.458851   1.659564   5.575385    0.000189  -0.000354  -0.000202
 115 O      -4.997820   5.751650  -1.965633    0.000057   0.000274  -0.000175
 116 Si     -3.652058  -3.889026   3.905865   -0.000121  -0.000076  -0.000599
 117 H      -9.999065  10.232359  -2.041238    0.000184  -0.000018  -0.000024

  no constraints, skipping    0.0000000000000000     

  Step       Energy      Delta E   Gmax     Grms     Xrms     Xmax   Walltime
  ---- ---------------- -------- -------- -------- -------- -------- --------
@    2   -3804.61568806 -6.9D-05  0.00068  0.00015  0.01117  0.04456    695.3
                                              ok                    

 Limiting step in negative mode    1  eval=-2.3D-04 grad=-4.7D-05 step= 9.0D-02
 Limiting step in negative mode    2  eval=-5.3D-06 grad=-1.3D-05 step= 9.0D-02
 Limiting step in negative mode    3  eval=-1.9D-07 grad=-2.6D-05 step= 9.0D-02
 Restricting large step in mode    4 eval= 2.6D-06 step= 5.3D+00 new= 3.0D-01
 Restricting large step in mode    5 eval= 1.5D-05 step=-4.5D-01 new=-3.0D-01
 Restricting large step in mode    6 eval= 2.8D-05 step=-4.8D-01 new=-3.0D-01
 Restricting large step in mode    7 eval= 2.9D-05 step= 9.1D-01 new= 3.0D-01
 Restricting large step in mode    8 eval= 4.2D-05 step= 3.0D-01 new= 3.0D-01
  no constraints, skipping    0.0000000000000000     
  no constraints, skipping    0.0000000000000000     
  no constraints, skipping    0.0000000000000000     
  no constraints, skipping    0.0000000000000000     
  no constraints, skipping    0.0000000000000000     
  no constraints, skipping    0.0000000000000000     
  no constraints, skipping    0.0000000000000000     
  no constraints, skipping    0.0000000000000000     

                                 NWChem DFT Module
                                 -----------------


                                    QuartzG ecp



  Caching 1-el integrals 
   Time after variat. SCF:    705.1
   Time prior to 1st pass:    705.1

           Memory utilization after 1st SCF pass: 
           Heap Space remaining (MW):       25.98            25981488
          Stack Space remaining (MW):       26.19            26192212

   convergence    iter        energy       DeltaE   RMS-Dens  Diis-err    time
 ---------------- ----- ----------------- --------- --------- ---------  ------
 d= 0,ls=0.0,diis     1  -3804.6153949618 -1.86D+04  4.06D-05  1.43D-02   714.9
 d= 0,ls=0.0,diis     2  -3804.6157579113 -3.63D-04  8.69D-06  9.65D-05   719.2
 d= 0,ls=0.0,diis     3  -3804.6157346570  2.33D-05  5.68D-06  3.84D-04   723.5
 d= 0,ls=0.0,diis     4  -3804.6157661559 -3.15D-05  4.70D-07  8.13D-07   727.6
 d= 0,ls=0.0,diis     5  -3804.6157661861 -3.02D-08  2.08D-07  4.61D-07   732.4


         Total DFT energy =    -3804.615766186060
      One electron energy =   -35121.242196324158
           Coulomb energy =    16939.407694398295
    Exchange-Corr. energy =     -467.119234405844
 Nuclear repulsion energy =    14844.337970145647

 Numeric. integr. density =      600.000286623469

     Total iterative time =     27.3s


 Line search: 
     step= 1.00 grad=-1.4D-04 hess= 6.5D-05 energy=  -3804.615766 mode=downhill
 new step= 1.10                   predicted energy=  -3804.615767
  no constraints, skipping    0.0000000000000000     
  no constraints, skipping    0.0000000000000000     
  no constraints, skipping    0.0000000000000000     
  no constraints, skipping    0.0000000000000000     
  no constraints, skipping    0.0000000000000000     
  no constraints, skipping    0.0000000000000000     
  no constraints, skipping    0.0000000000000000     
  no constraints, skipping    0.0000000000000000     

          --------
          Step   3
          --------

                                 NWChem DFT Module
                                 -----------------


                                    QuartzG ecp



  Caching 1-el integrals 
   Time after variat. SCF:   1611.7
   Time prior to 1st pass:   1611.7

           Memory utilization after 1st SCF pass: 
           Heap Space remaining (MW):       25.98            25981488
          Stack Space remaining (MW):       26.19            26192212

   convergence    iter        energy       DeltaE   RMS-Dens  Diis-err    time
 ---------------- ----- ----------------- --------- --------- ---------  ------
 d= 0,ls=0.0,diis     1  -3804.6157635381 -1.86D+04  4.16D-06  1.50D-04  1625.4
 d= 0,ls=0.0,diis     2  -3804.6157673360 -3.80D-06  8.94D-07  1.03D-06  1633.3
 d= 0,ls=0.0,diis     3  -3804.6157670914  2.45D-07  5.84D-07  4.05D-06  1640.3


         Total DFT energy =    -3804.615767091445
      One electron energy =   -35121.547849268361
           Coulomb energy =    16939.559465430670
    Exchange-Corr. energy =     -467.119401211758
 Nuclear repulsion energy =    14844.492017958006

 Numeric. integr. density =      600.000286449062

     Total iterative time =     28.6s




                         DFT ENERGY GRADIENTS

    atom               coordinates                        gradient
                 x          y          z           x          y          z
   1 O      -7.881130  -6.234102  -7.958416    0.000020   0.000098   0.000136
   2 H       8.784706  -1.214392  -2.906272    0.000355   0.000669  -0.000699
   3 O      -1.507023   4.856633  -5.576161    0.000509   0.000013   0.000408
   4 O      -9.339966  -8.843220   0.960538   -0.000027  -0.000036  -0.000022
   5 O      13.961141  -3.010785   6.994428    0.000131   0.000213  -0.000306
   6 Si      3.542888   3.562096   4.249375   -0.000890   0.000441  -0.000694
   7 O      -3.769578  -3.734912  -5.999867    0.000719   0.000187   0.000369
   8 Si     11.615632   0.996213   0.431469    0.000309  -0.000240  -0.000328
   9 Si      3.579541  -3.365893  -3.505801    0.001022   0.000273   0.000934
  10 Si     -5.665469  -6.278190  -5.750715    0.000336  -0.000252   0.000014
  11 H       5.479581   0.569375  -5.328770   -0.000101  -0.000280   0.000156
  12 Si      5.870572   6.447039  -5.286648    0.000586  -0.000017  -0.001013
  13 Si     -3.416410   3.471164  -3.458282    0.000406   0.000310   0.000072
  14 Si    -11.703139  -0.993769  -0.142465    0.000722   0.000176   0.000051
  15 Si     -8.098672  -6.118619   0.049520    0.000133   0.000436   0.000108
  16 H      15.527561  -3.766243   7.467350   -0.000233  -0.000080   0.000196
  17 H      -8.733755   1.349824  -3.260410    0.000379   0.000319   0.000166
  18 H      -1.724392  -9.249132   2.717848   -0.000243   0.000084   0.000184
  19 O       4.006832   3.909836  -5.730977   -0.000015   0.000152   0.000458
  20 O       6.965020  -8.528890   7.636974    0.000015   0.000104  -0.000489
  21 O       1.313190 -14.823628   0.042217   -0.000109   0.000342   0.000675
  22 O     -10.210117  -3.782918   0.089638   -0.000000  -0.000257  -0.000186
  23 O      -5.292303   1.349716  -4.845169   -0.000536   0.000786   0.000105
  24 O       5.206001   1.874483   6.307248    0.000534  -0.000223   0.000671
  25 O      -1.652668  -6.005113   5.107253    0.000353  -0.000068  -0.000079
  26 O      -6.964143  -6.338424  -2.891925   -0.000240  -0.000269  -0.000593
  27 O     -14.683569  -1.411981  -1.033225   -0.000426   0.000246  -0.000022
  28 O       1.298565  10.450905   1.710184   -0.000053  -0.000405  -0.000440
  29 O      -4.267972   4.527280   6.576073   -0.001178  -0.000765   0.000975
  30 H       2.221857   3.502929  -5.829258    0.000032  -0.000193  -0.000271
  31 H      10.309697  -9.993348  -2.102510   -0.000280  -0.000858   0.000129
  32 O     -10.085492   0.709735  -2.205501   -0.000737  -0.000594  -0.000255
  33 O       1.817057  -4.716989  -5.762550    0.000128   0.000501  -0.000002
  34 O      10.179128   0.259925   8.193043    0.000118  -0.000171  -0.000181
  35 O       3.970912   8.937585  -5.720028    0.000406  -0.000314  -0.000065
  36 Si     -0.742239  11.815061  -0.239770    0.000695   0.000528   0.000214
  37 Si     -6.885176   6.008834   5.648699    0.000420   0.000483  -0.000215
  38 O       6.464662  -7.247149   2.675630    0.000109  -0.000182   0.000439
  39 O      -0.195877 -11.393553  -3.476914    0.001580   0.001096  -0.000795
  40 H     -16.379382  -1.660118  -1.585456    0.000257  -0.000172   0.000072
  41 H     -15.770316   3.599893   6.931747    0.000171  -0.000030   0.000332
  42 Si     11.202997  -1.856962   6.045625    0.000381  -0.000800  -0.000230
  43 O      -0.551020   9.788863  -7.910122   -0.000351   0.000060  -0.000271
  44 O      -8.473720   9.544904  -1.356404   -0.000346   0.000077   0.000029
  45 Si     -0.001521  -0.051209   0.480260    0.000935   0.000468   0.000924
  46 Si      6.093684  -8.159378  -0.321466   -0.000378  -0.001078  -0.000480
  47 O      -6.439585   7.172591   2.749111   -0.000069  -0.000037   0.000323
  48 H       9.648661   6.398171  -8.451314    0.000022  -0.000005  -0.000008
  49 H     -10.608645  -2.028808   8.757095    0.000627  -0.000721  -0.000990
  50 Si     -1.425407 -10.881004  -6.319228   -0.001133  -0.000552   0.000458
  51 O      -3.466113  10.210340  -0.158783   -0.000656  -0.000263   0.000131
  52 Si      6.618476  -6.155324   5.622435   -0.000427  -0.000474  -0.000267
  53 O       8.762204  -9.322689  -1.467506    0.000714   0.001524  -0.000307
  54 O     -11.655239   0.357512   2.724284   -0.000533  -0.000199   0.000212
  55 O       9.195320   8.817942   1.655990    0.000059  -0.000007  -0.000494
  56 H       0.167130   6.526284   6.283034    0.000196   0.000346  -0.000352
  57 O       0.819370  -9.603417  -8.191700    0.000039  -0.000078   0.000296
  58 Si      0.960375 -11.763472  -0.544613   -0.000794  -0.000805  -0.000728
  59 O       1.857430   1.635324   2.386865    0.000125  -0.000348   0.000776
  60 H      -9.189160  -6.160984  -9.196375    0.000071  -0.000117  -0.000020
  61 H      -1.091569   6.340368  -6.571842   -0.000245  -0.000191  -0.000168
  62 O      -1.886524  -1.851996   2.241190    0.000327   0.000027   0.000967
  63 O      -5.740604  -5.266270   1.977477    0.000006  -0.000108   0.000189
  64 H      -1.522116  16.538650   0.961741   -0.000073  -0.000023  -0.000120
  65 O      10.111907   3.779793   0.682763   -0.000094  -0.000340   0.000467
  66 Si      7.998010   6.112898   0.631297    0.000894   0.000077  -0.000393
  67 H      -8.018592   9.677150   8.755780   -0.000085   0.000025   0.000037
  68 O     -14.200406   2.851248   6.461383   -0.000124   0.000092  -0.000540
  69 H      -3.112109 -15.088399  -8.269710   -0.000189  -0.000261  -0.000199
  70 H      -9.999128 -10.434246   1.491133   -0.000026   0.000058   0.000073
  71 H       3.442481  15.205139  -8.037025    0.000210  -0.000484  -0.000356
  72 H       7.130035  -9.906984   8.786470   -0.000052   0.000090   0.000144
  73 H       1.511863 -16.582367   0.377928   -0.000023  -0.000137  -0.000495
  74 O      11.485794  -0.423992   3.263646   -0.000573   0.000835   0.000382
  75 O       5.124528  -5.664438  -2.014886    0.000076  -0.000173   0.000163
  76 H       6.660712   1.147847   7.140645   -0.000264  -0.000019  -0.000298
  77 H      -0.055696  -6.462586   5.845838   -0.000211   0.000075  -0.000015
  78 O     -10.575342  -0.601479   7.651659   -0.001171   0.001171   0.001450
  79 O      -9.225397   3.889540   5.579847    0.000283  -0.000099  -0.000510
  80 H       2.047846  -9.564808  -9.517682    0.000005   0.000085  -0.000257
  81 H      -1.986197  -3.326510  -6.033015   -0.000718  -0.000303  -0.000225
  82 H      16.344973   1.686993  -0.815657    0.000163   0.000106   0.000383
  83 O      -3.740193  -8.760525  -6.101693   -0.000201   0.000216   0.000059
  84 O       3.997247  -4.512826   6.278750    0.000452   0.000199   0.000065
  85 O      -0.919632 -10.381124   1.538527    0.000347   0.000030  -0.000182
  86 O       2.721836  13.712790  -7.327906   -0.000430   0.000487   0.000506
  87 H       2.430835   9.439864   2.694955    0.000055   0.000311   0.000183
  88 O       1.539873   5.524557   5.662939   -0.000193  -0.000825   0.000336
  89 O      -5.260658  -2.344013   6.110340    0.000172  -0.000556   0.000286
  90 H       1.406881  -6.186135  -6.781763    0.000059  -0.000220   0.000072
  91 O       9.036721  -4.131247   5.859295    0.000279   0.000406   0.000059
  92 O      -1.219187  14.820302   0.513129    0.000052  -0.000101   0.000140
  93 O      -7.602934   8.338179   7.624002    0.000067   0.000023  -0.000046
  94 O      14.619326   1.439065  -0.362318   -0.000082  -0.000030  -0.000782
  95 O       3.747430 -10.262490  -0.438936    0.000097   0.000308   0.001616
  96 H      -2.923178   3.349239   6.836910    0.000656   0.000561  -0.000721
  97 O       0.408008  11.612510  -3.190988   -0.000184  -0.000012  -0.000582
  98 O       5.493500  -1.166976  -4.707581   -0.000234   0.000023  -0.000178
  99 H      -5.271851  -0.364873  -5.526331    0.000370  -0.000578  -0.000229
 100 H      10.254407   1.417390   9.579164   -0.000173   0.000255   0.000152
 101 O      -2.433784 -13.552481  -7.611913    0.000277   0.000192   0.000319
 102 H      -1.785392   9.771214  -9.230495    0.000286   0.000088   0.000109
 103 O       6.947674   6.429022  -2.330643   -0.001320   0.000329   0.000855
 104 O       8.254300   6.457023  -7.310149   -0.000217   0.000101   0.000159
 105 H       9.883590  10.377378   2.241146   -0.000078  -0.000118   0.000195
 106 Si      1.670282  11.069955  -6.013985    0.000121   0.000204   0.000568
 107 O      -1.682123   1.870617  -1.362982   -0.000124  -0.001144  -0.000422
 108 O       1.694678  -1.854703  -1.470610   -0.002266   0.000344  -0.002863
 109 O       5.586356   5.194502   2.466417    0.000346   0.000232  -0.000048
 110 Si     -5.902814   8.199534  -0.181855    0.000379  -0.000116   0.000110
 111 O      10.054704  -0.657237  -1.709979   -0.000441  -0.000648   0.001313
 112 H      -6.606613  -1.450052   6.945583   -0.000165   0.000442  -0.000179
 113 H       3.052149  -2.986613   6.519175   -0.000232  -0.000102  -0.000059
 114 Si    -11.436875   1.646985   5.585158    0.000557  -0.000419   0.000097
 115 O      -4.987607   5.757359  -1.976874   -0.000208   0.000415  -0.000269
 116 Si     -3.658905  -3.887125   3.899642   -0.000229   0.000227  -0.000551
 117 H     -10.003662  10.217388  -2.029958    0.000226  -0.000070   0.000023

  no constraints, skipping    0.0000000000000000     

  Step       Energy      Delta E   Gmax     Grms     Xrms     Xmax   Walltime
  ---- ---------------- -------- -------- -------- -------- -------- --------
@    3   -3804.61576709 -7.9D-05  0.00076  0.00015  0.01455  0.05719   1686.5
                                              ok                    

 Limiting step in negative mode    1  eval=-2.3D-04 grad=-2.8D-05 step= 9.0D-02
 Limiting step in negative mode    2  eval=-6.6D-08 grad= 2.0D-05 step=-9.0D-02
 Restricting large step in mode    3 eval= 4.4D-07 step=-2.4D+01 new=-3.0D-01
 Restricting large step in mode    4 eval= 1.8D-06 step= 4.8D-01 new= 3.0D-01
 Restricting large step in mode    5 eval= 1.4D-05 step= 3.0D+00 new= 3.0D-01
 Restricting large step in mode    8 eval= 4.0D-05 step= 6.5D-01 new= 3.0D-01
 Restricting large step in mode    9 eval= 5.7D-05 step= 3.0D-01 new= 3.0D-01
  no constraints, skipping    0.0000000000000000     
  no constraints, skipping    0.0000000000000000     
  no constraints, skipping    0.0000000000000000     
  no constraints, skipping    0.0000000000000000     
  no constraints, skipping    0.0000000000000000     
  no constraints, skipping    0.0000000000000000     
  no constraints, skipping    0.0000000000000000     
  no constraints, skipping    0.0000000000000000     

                                 NWChem DFT Module
                                 -----------------


                                    QuartzG ecp



  Caching 1-el integrals 
   Time after variat. SCF:   1696.2
   Time prior to 1st pass:   1696.3

           Memory utilization after 1st SCF pass: 
           Heap Space remaining (MW):       25.98            25981488
          Stack Space remaining (MW):       26.19            26192212

   convergence    iter        energy       DeltaE   RMS-Dens  Diis-err    time
 ---------------- ----- ----------------- --------- --------- ---------  ------
 d= 0,ls=0.0,diis     1  -3804.6156286031 -1.87D+04  3.01D-05  7.95D-03  1706.6
 d= 0,ls=0.0,diis     2  -3804.6158310285 -2.02D-04  8.22D-06  8.96D-05  1713.7
 d= 0,ls=0.0,diis     3  -3804.6158093261  2.17D-05  5.39D-06  3.57D-04  1718.3
 d= 0,ls=0.0,diis     4  -3804.6158386600 -2.93D-05  3.64D-07  4.65D-07  1722.6
 d= 0,ls=0.0,diis     5  -3804.6158386749 -1.50D-08  1.66D-07  2.96D-07  1726.8


         Total DFT energy =    -3804.615838674930
      One electron energy =   -35124.193361760888
           Coulomb energy =    16940.877193974589
    Exchange-Corr. energy =     -467.118864120501
 Nuclear repulsion energy =    14845.819193231870

 Numeric. integr. density =      600.000309782168

     Total iterative time =     30.5s


 Line search: 
     step= 1.00 grad=-1.3D-04 hess= 5.4D-05 energy=  -3804.615839 mode=downhill
 new step= 1.16                   predicted energy=  -3804.615840
  no constraints, skipping    0.0000000000000000     
  no constraints, skipping    0.0000000000000000     
  no constraints, skipping    0.0000000000000000     
  no constraints, skipping    0.0000000000000000     
  no constraints, skipping    0.0000000000000000     
  no constraints, skipping    0.0000000000000000     
  no constraints, skipping    0.0000000000000000     
  no constraints, skipping    0.0000000000000000     

          --------
          Step   4
          --------

                                 NWChem DFT Module
                                 -----------------


                                    QuartzG ecp



  Caching 1-el integrals 
   Time after variat. SCF:   1737.6
   Time prior to 1st pass:   1737.6

           Memory utilization after 1st SCF pass: 
           Heap Space remaining (MW):       25.98            25981488
          Stack Space remaining (MW):       26.19            26192212

   convergence    iter        energy       DeltaE   RMS-Dens  Diis-err    time
 ---------------- ----- ----------------- --------- --------- ---------  ------
 d= 0,ls=0.0,diis     1  -3804.6158358966 -1.87D+04  4.81D-06  2.03D-04  1751.5
 d= 0,ls=0.0,diis     2  -3804.6158410578 -5.16D-06  1.32D-06  2.32D-06  1763.6
 d= 0,ls=0.0,diis     3  -3804.6158404982  5.60D-07  8.66D-07  9.21D-06  1768.7


         Total DFT energy =    -3804.615840498238
      One electron energy =   -35124.650146296044
           Coulomb energy =    16941.106549865857
    Exchange-Corr. energy =     -467.119190656828
 Nuclear repulsion energy =    14846.046946588776

 Numeric. integr. density =      600.000316077972

     Total iterative time =     31.1s




                         DFT ENERGY GRADIENTS

    atom               coordinates                        gradient
                 x          y          z           x          y          z
   1 O      -7.882722  -6.228280  -7.953461   -0.000012  -0.000072   0.000112
   2 H       8.782167  -1.222190  -2.911631    0.000516   0.000784  -0.000430
   3 O      -1.517738   4.850711  -5.595486    0.000312  -0.000081   0.000555
   4 O      -9.337855  -8.848838   0.978377    0.000068   0.000084  -0.000337
   5 O      13.965460  -3.024819   6.988962    0.000090   0.000440  -0.000344
   6 Si      3.548269   3.559867   4.249432   -0.000550  -0.000328  -0.000824
   7 O      -3.768909  -3.744431  -5.978270    0.000145  -0.000071   0.000412
   8 Si     11.619127   0.987151   0.422848    0.000124  -0.000150  -0.000464
   9 Si      3.575641  -3.364388  -3.506234    0.001282  -0.000201   0.001522
  10 Si     -5.670430  -6.284268  -5.742665    0.000619   0.000170  -0.000469
  11 H       5.483898   0.570073  -5.326995    0.000016  -0.000243   0.000372
  12 Si      5.877662   6.456185  -5.278847    0.000734  -0.000481  -0.001403
  13 Si     -3.419370   3.464956  -3.471259    0.000054  -0.000138   0.000206
  14 Si    -11.704561  -1.000475  -0.144163    0.000815  -0.000096   0.000164
  15 Si     -8.104278  -6.124100   0.057684    0.000072   0.000648   0.000409
  16 H      15.527472  -3.793740   7.455634   -0.000133  -0.000241   0.000196
  17 H      -8.725262   1.335186  -3.258259   -0.000105   0.000208   0.000648
  18 H      -1.710235  -9.232089   2.725081   -0.000200   0.000038   0.000344
  19 O       4.016413   3.918524  -5.728353    0.000027   0.000224   0.000621
  20 O       6.940665  -8.519025   7.639355   -0.000034  -0.000229  -0.000257
  21 O       1.305679 -14.817681   0.050897   -0.000252   0.000494   0.000633
  22 O     -10.219562  -3.791971   0.093012    0.000010   0.000019  -0.000231
  23 O      -5.287254   1.328509  -4.844338   -0.000558  -0.000159  -0.000373
  24 O       5.205469   1.862735   6.303452    0.000230   0.000278   0.000316
  25 O      -1.647375  -5.996316   5.091878    0.000073  -0.000238  -0.000420
  26 O      -6.973448  -6.351379  -2.884750   -0.000396  -0.000484  -0.000250
  27 O     -14.684622  -1.406595  -1.041444    0.000075   0.000410   0.000076
  28 O       1.279123  10.451590   1.725323   -0.000076  -0.000114  -0.000142
  29 O      -4.267690   4.517752   6.566310   -0.001249  -0.000548   0.000840
  30 H       2.233655   3.508895  -5.843422    0.000097   0.000029  -0.000507
  31 H      10.311428  -9.983768  -2.093432   -0.000325  -0.000817   0.000194
  32 O     -10.077852   0.695698  -2.206100   -0.000215  -0.000560  -0.000780
  33 O       1.803394  -4.715069  -5.756678    0.000086   0.000520  -0.000046
  34 O      10.194388   0.258170   8.186391    0.000232   0.000203  -0.000079
  35 O       3.973478   8.944988  -5.708286    0.000280  -0.000346   0.000128
  36 Si     -0.754813  11.812730  -0.235877    0.000003   0.000648  -0.000390
  37 Si     -6.883480   6.001646   5.638156    0.000450   0.000222  -0.000389
  38 O       6.458885  -7.241445   2.674690    0.000571  -0.000179   0.000333
  39 O      -0.198961 -11.390491  -3.474650    0.001717   0.001301  -0.000493
  40 H     -16.379916  -1.648460  -1.600667   -0.000226  -0.000244  -0.000101
  41 H     -15.775249   3.597918   6.921165   -0.000123   0.000115   0.000405
  42 Si     11.210335  -1.863453   6.039730   -0.000227  -0.000976   0.000149
  43 O      -0.542346   9.805874  -7.906616    0.000144   0.000122   0.000143
  44 O      -8.484028   9.534915  -1.363615    0.000020  -0.000093   0.000073
  45 Si      0.000453  -0.039631   0.475308    0.000844   0.000446   0.001724
  46 Si      6.089353  -8.156205  -0.321912   -0.000571  -0.000955  -0.000133
  47 O      -6.440292   7.159863   2.736932    0.000133   0.000017   0.000414
  48 H       9.648103   6.417467  -8.453578    0.000123  -0.000008  -0.000148
  49 H     -10.636682  -2.012671   8.775240    0.000342  -0.000591  -0.000916
  50 Si     -1.426326 -10.880435  -6.318111   -0.001029  -0.000350   0.000144
  51 O      -3.473278  10.199336  -0.167835   -0.000232  -0.000445   0.000370
  52 Si      6.610388  -6.146337   5.620545   -0.000837  -0.000075  -0.000188
  53 O       8.760571  -9.316599  -1.463357    0.000560   0.001560  -0.000316
  54 O     -11.657033   0.352336   2.722261   -0.000556  -0.000147   0.000535
  55 O       9.210122   8.808127   1.670330   -0.000209  -0.000387  -0.000574
  56 H       0.162652   6.511155   6.282516   -0.000003   0.000402  -0.000417
  57 O       0.817100  -9.595557  -8.187047    0.000122  -0.000202   0.000610
  58 Si      0.955934 -11.758737  -0.543228   -0.000879  -0.001050  -0.000879
  59 O       1.859657   1.646167   2.379407    0.000392   0.000301   0.000083
  60 H      -9.190573  -6.139315  -9.190704    0.000038  -0.000025  -0.000031
  61 H      -1.090807   6.333492  -6.586231   -0.000128  -0.000246  -0.000230
  62 O      -1.888096  -1.842773   2.229313    0.000566  -0.000283   0.000319
  63 O      -5.745324  -5.258036   1.978007   -0.000176  -0.000313  -0.000161
  64 H      -1.549721  16.533769   0.966325   -0.000129   0.000099  -0.000125
  65 O      10.117015   3.770342   0.685541   -0.000127  -0.000381   0.000834
  66 Si      8.008639   6.108443   0.639625    0.001417   0.000144   0.000182
  67 H      -8.013662   9.678346   8.736989   -0.000110   0.000061   0.000053
  68 O     -14.203699   2.848594   6.455336   -0.000093  -0.000011  -0.000497
  69 H      -3.095286 -15.093619  -8.269456    0.000004   0.000029  -0.000066
  70 H      -9.990463 -10.439289   1.519998   -0.000115  -0.000141   0.000229
  71 H       3.456872  15.220626  -8.012158    0.000159  -0.000499  -0.000346
  72 H       7.099442  -9.895589   8.791047   -0.000039   0.000268   0.000008
  73 H       1.512944 -16.574173   0.394166    0.000093  -0.000246  -0.000438
  74 O      11.500829  -0.432063   3.256169    0.000070   0.001365   0.000102
  75 O       5.121172  -5.662750  -2.018109    0.000075  -0.000127  -0.000185
  76 H       6.659947   1.139682   7.140983   -0.000225  -0.000219  -0.000188
  77 H      -0.045521  -6.435320   5.832732   -0.000079   0.000089   0.000091
  78 O     -10.577870  -0.598232   7.654502   -0.000804   0.000960   0.001510
  79 O      -9.226729   3.886071   5.574463    0.000132  -0.000223  -0.000382
  80 H       2.038498  -9.549275  -9.519648    0.000029   0.000155  -0.000415
  81 H      -1.981970  -3.343735  -6.004516   -0.000228  -0.000139  -0.000162
  82 H      16.344838   1.670066  -0.840778    0.000147   0.000088   0.000373
  83 O      -3.747257  -8.767683  -6.098065   -0.000184  -0.000048   0.000311
  84 O       3.997114  -4.489501   6.272506    0.000647  -0.000250   0.000116
  85 O      -0.917411 -10.367365   1.539816    0.000262   0.000133  -0.000344
  86 O       2.734867  13.726425  -7.308539   -0.000180   0.000695   0.000450
  87 H       2.407255   9.429950   2.704864    0.000229  -0.000025   0.000159
  88 O       1.548719   5.522487   5.669793   -0.000057  -0.000679   0.000639
  89 O      -5.251319  -2.335030   6.110897    0.000381  -0.000883  -0.000065
  90 H       1.396691  -6.185220  -6.776411   -0.000023  -0.000223   0.000018
  91 O       9.039480  -4.134251   5.855196    0.000532  -0.000007  -0.000078
  92 O      -1.241844  14.816034   0.517949    0.000261  -0.000259   0.000213
  93 O      -7.598551   8.335679   7.609294   -0.000006   0.000080  -0.000055
  94 O      14.620008   1.427223  -0.381736   -0.000156  -0.000136  -0.000681
  95 O       3.745689 -10.261298  -0.444442    0.000044   0.000247   0.001129
  96 H      -2.935269   3.327120   6.835527    0.000764   0.000386  -0.000662
  97 O       0.411960  11.617112  -3.180743    0.000357  -0.000122  -0.000528
  98 O       5.489782  -1.169593  -4.715909   -0.000363   0.000034  -0.000490
  99 H      -5.258795  -0.389952  -5.512700    0.000424   0.000227   0.000210
 100 H      10.283866   1.411410   9.574940   -0.000053   0.000052   0.000121
 101 O      -2.426277 -13.553825  -7.612788    0.000009  -0.000044   0.000274
 102 H      -1.780024   9.779007  -9.224594   -0.000040  -0.000036  -0.000187
 103 O       6.957204   6.435401  -2.322485   -0.001495   0.000577   0.000991
 104 O       8.258567   6.472162  -7.305911   -0.000357   0.000092   0.000221
 105 H       9.900006  10.368515   2.251877    0.000016   0.000046   0.000182
 106 Si      1.675032  11.081399  -6.004270   -0.000705   0.000515   0.000376
 107 O      -1.672769   1.883701  -1.371754    0.000504  -0.000839  -0.000524
 108 O       1.696666  -1.845413  -1.472090   -0.002541   0.000762  -0.002788
 109 O       5.593650   5.188930   2.469158   -0.000159  -0.000105  -0.000175
 110 Si     -5.911095   8.189280  -0.193942   -0.000178  -0.000068   0.000447
 111 O      10.052298  -0.664720  -1.716717   -0.000651  -0.000939   0.000712
 112 H      -6.596739  -1.450263   6.958319   -0.000244   0.000655   0.000128
 113 H       3.072470  -2.949593   6.511710   -0.000354   0.000215  -0.000017
 114 Si    -11.438211   1.645186   5.580210    0.000836  -0.000178  -0.000553
 115 O      -4.996933   5.750688  -1.995316   -0.000021   0.000427  -0.000520
 116 Si     -3.658163  -3.876209   3.893469   -0.000206   0.000835   0.000181
 117 H     -10.016665  10.205713  -2.034574   -0.000153   0.000073  -0.000115

  no constraints, skipping    0.0000000000000000     

  Step       Energy      Delta E   Gmax     Grms     Xrms     Xmax   Walltime
  ---- ---------------- -------- -------- -------- -------- -------- --------
@    4   -3804.61584050 -7.3D-05  0.00084  0.00016  0.01037  0.03750   1810.5
                                              ok                    

 Taking step in negative mode    1  eval=-2.3D-04 grad= 1.5D-05 step=-6.3D-02
[...]
  357 Torsion                 13   107    45    62         -48.99091   28.60925
  358 Torsion                 13   107    45   108          71.53945   29.94365
  359 Torsion                 13   115   110    44         155.10771    1.37068
  360 Torsion                 13   115   110    47         -83.07316    1.32995
  361 Torsion                 13   115   110    51          32.70328   -0.24728
  362 Torsion                 14    22    15    26         -61.52522   -4.82046
  363 Torsion                 14    22    15    63          54.63339   -5.07681
  364 Torsion                 14    54   114    68        -165.05617   16.59420
  365 Torsion                 14    54   114    78         -45.26603   16.27464
  366 Torsion                 14    54   114    79          71.75546   15.05729
  367 Torsion                 15    22    14    27         149.42388    4.63658
  368 Torsion                 15    22    14    32          27.15377    4.36510
  369 Torsion                 15    22    14    54         -91.57339    4.54380
  370 Torsion                 15    26    10    83         113.13860   -5.29026
  371 Torsion                 15    63   116    25        -170.10178   18.49728
  372 Torsion                 15    63   116    62         -53.14082   18.65561
  373 Torsion                 15    63   116    89          65.39889   17.80873
  374 Torsion                 16     5    42    34         170.12145    9.41635
  375 Torsion                 16     5    42    74         -69.98029    9.51428
  376 Torsion                 16     5    42    91          52.15843    9.34032
  377 Torsion                 17    32    14    22         -15.95608    7.61967
  378 Torsion                 17    32    14    27        -137.50217    7.07082
  379 Torsion                 17    32    14    54         100.32668    7.29372
  380 Torsion                 18    85    58    21         134.36328  -10.40716
  381 Torsion                 18    85    58    39        -103.52008   -9.91348
  382 Torsion                 18    85    58    95          12.72247  -10.04525
  383 Torsion                 19    12    35   106          32.53954    9.14367
  384 Torsion                 19    12   103    66          12.50338  -14.77872
  385 Torsion                 19    12   104    48         -56.11635    2.30406
  386 Torsion                 20    52    38    46         119.03371  -17.18060
  387 Torsion                 20    52    84   113         132.35151   -4.67982
  388 Torsion                 20    52    91    42        -151.34245  -12.29409
  389 Torsion                 21    58    39    50         172.52818   24.96783
  390 Torsion                 21    58    95    46        -154.01061   15.67009
  391 Torsion                 22    14    27    40         -96.70635  -23.12135
  392 Torsion                 22    14    54   114          33.75361  -12.19260
  393 Torsion                 22    15     4    70        -165.32823   -1.09108
  394 Torsion                 22    15    63   116         -30.10761  -19.30359
  395 Torsion                 23    13     3    61         117.89865   13.29270
  396 Torsion                 23    13   107    45          -4.10452  -29.19632
  397 Torsion                 23    13   115   110         167.78835   -0.39372
  398 Torsion                 24     6    59    45         125.03574  -30.58742
  399 Torsion                 24     6    88    56         -81.88994   49.16909
  400 Torsion                 24     6   109    66          68.84351   21.30319
  401 Torsion                 25   116    62    45           2.86340  -47.91309
  402 Torsion                 25   116    89   112        -119.32922   33.08077
  403 Torsion                 26    10     1    60          58.04957    1.01013
  404 Torsion                 26    10     7    81         105.94732    0.19377
  405 Torsion                 26    10    83    50         -93.61695    2.74693
  406 Torsion                 26    15     4    70          74.14642   -1.39055
  407 Torsion                 26    15    63   116          85.62285  -19.49348
  408 Torsion                 27    14    54   114         153.87171  -12.04965
  409 Torsion                 28    36    51   110         -28.20618   27.68330
  410 Torsion                 28    36    92    64         -90.65159    7.49556
  411 Torsion                 28    36    97   106          80.49914   45.94872
  412 Torsion                 29    37    47   110           0.40301  -32.75518
  413 Torsion                 29    37    79   114         -30.33521  -39.76053
  414 Torsion                 29    37    93    67          66.22038   71.38367
  415 Torsion                 30    19    12    35         -12.03477    3.37899
  416 Torsion                 30    19    12   103         105.51932    3.21927
  417 Torsion                 30    19    12   104        -132.53588    3.37830
  418 Torsion                 31    53    46    38         -67.34458  -89.33435
  419 Torsion                 31    53    46    75          53.17489  -89.46064
  420 Torsion                 31    53    46    95         172.07746  -88.93202
  421 Torsion                 32    14    27    40          22.41457  -22.55583
  422 Torsion                 32    14    54   114         -82.28928  -12.30115
  423 Torsion                 33     9    75    46         -68.24371   -2.17770
  424 Torsion                 33     9   108    45        -113.78821    9.82569
  425 Torsion                 34    42    91    52          60.63438   12.07255
  426 Torsion                 35    12   103    66         127.54304  -14.10855
  427 Torsion                 35    12   104    48        -172.86674    1.94842
  428 Torsion                 35   106    43   102        -142.76836   -2.64801
  429 Torsion                 35   106    86    71         -44.43136  -17.71489
  430 Torsion                 35   106    97    36         -69.82728  -47.97081
  431 Torsion                 36    51   110    44        -175.18405  -33.67988
  432 Torsion                 36    51   110    47          62.66461  -33.38991
  433 Torsion                 36    51   110   115         -53.58625  -32.70450
  434 Torsion                 36    97   106    43          47.14325  -47.36882
  435 Torsion                 36    97   106    86         166.98677  -47.53097
  436 Torsion                 37    47   110    44         164.47809   20.81657
  437 Torsion                 37    47   110    51         -72.38878   21.11541
  438 Torsion                 37    47   110   115          42.45852   20.90390
  439 Torsion                 37    79   114    54         -58.58431   42.40039
  440 Torsion                 37    79   114    68         178.32821   41.11904
  441 Torsion                 37    79   114    78          59.48501   41.94772
  442 Torsion                 38    46    95    58          66.40920  -17.45748
  443 Torsion                 38    52    20    72         -47.99733   20.05879
  444 Torsion                 38    52    84   113        -105.74207   -4.40043
  445 Torsion                 38    52    91    42          86.63076  -12.89559
  446 Torsion                 39    50    57    80         102.06881   -1.66516
  447 Torsion                 39    50   101    69          64.01188  -14.78669
  448 Torsion                 39    58    21    73        -143.43745   84.70768
  449 Torsion                 39    58    95    46          86.95503   15.64449
  450 Torsion                 40    27    14    54         145.52876  -22.83003
  451 Torsion                 41    68   114    54         -66.68331   22.87820
  452 Torsion                 41    68   114    78         173.43951   22.67944
  453 Torsion                 41    68   114    79          55.51540   23.71321
  454 Torsion                 42    74     8    65          32.99666  -41.07004
  455 Torsion                 42    74     8    94         153.09143  -40.74524
  456 Torsion                 42    74     8   111         -83.07818  -41.12200
  457 Torsion                 42    91    52    84         -31.35012  -12.70127
  458 Torsion                 43   106    86    71        -162.37587  -17.77132
  459 Torsion                 45    59     6    88           3.74970  -29.16406
  460 Torsion                 45    59     6   109        -117.43901  -31.03608
  461 Torsion                 45    62   116    63        -118.25668  -49.21022
  462 Torsion                 45    62   116    89         124.18273  -48.40814
  463 Torsion                 45   107    13   115         117.15519  -30.76928
  464 Torsion                 45   108     9    75         128.59747    9.86101
  465 Torsion                 45   108     9    98           7.33654   10.75983
  466 Torsion                 46    38    52    84          -3.09473  -17.45038
  467 Torsion                 46    38    52    91        -118.24082  -16.10237
  468 Torsion                 46    75     9    98         167.32677   -3.33780
  469 Torsion                 46    75     9   108          50.36133   -2.43912
  470 Torsion                 46    95    58    85         -31.74887   15.29061
  471 Torsion                 47    37    29    96        -105.74429  -31.69905
  472 Torsion                 47    37    79   114          87.63621  -40.20822
  473 Torsion                 47    37    93    67         -55.41881   69.99839
  474 Torsion                 47   110    44   117         -65.35233    1.00903
  475 Torsion                 48   104    12   103          65.58248    2.85278
  476 Torsion                 49    78   114    54        -101.24797  -30.94902
  477 Torsion                 49    78   114    68          19.92641  -30.50181
  478 Torsion                 49    78   114    79         140.31871  -30.24546
  479 Torsion                 50    39    58    85          48.80238   24.52436
  480 Torsion                 50    39    58    95         -67.28554   24.99804
  481 Torsion                 51    36    28    87          13.83965  -42.55236
  482 Torsion                 51    36    92    64          28.51458    5.43620
  483 Torsion                 51    36    97   106         -35.55469   47.47362
  484 Torsion                 51   110    44   117         174.13084    2.21716
  485 Torsion                 52    38    46    53         168.39145   12.37350
  486 Torsion                 52    38    46    75          46.32368   12.56119
  487 Torsion                 52    38    46    95         -68.43756   12.77169
  488 Torsion                 52    91    42    74         -57.43627   12.33155
  489 Torsion                 53    46    95    58        -171.36892  -17.59637
  490 Torsion                 56    88     6    59          37.19268   46.81859
  491 Torsion                 56    88     6   109         156.34125   47.33053
  492 Torsion                 57    50    39    58          78.20818  -25.56870
  493 Torsion                 57    50   101    69        -176.15141  -14.72361
  494 Torsion                 58    39    50    83         -38.60986  -25.99786
  495 Torsion                 58    39    50   101        -161.94347  -25.63912
  496 Torsion                 58    95    46    75         -49.73044  -17.22408
  497 Torsion                 59     6    24    76         123.25750   10.39092
  498 Torsion                 59     6   109    66         -49.66778   22.20277
  499 Torsion                 59    45    62   116         -70.47844   49.13470
  500 Torsion                 60     1    10    83         179.77748    0.45405
  501 Torsion                 61     3    13   107        -125.14431   13.23702
  502 Torsion                 61     3    13   115          -6.52884   13.31035
  503 Torsion                 62   116    25    77          37.59315    1.83205
  504 Torsion                 62   116    89   112         123.66124   34.01784
  505 Torsion                 63    15     4    70         -46.37347   -1.77089
  506 Torsion                 63   116    25    77         156.75089    2.25663
  507 Torsion                 63   116    89   112           5.03002   34.53421
  508 Torsion                 64    92    36    97         146.19241    4.44630
  509 Torsion                 65     8    94    82         -94.94806  -80.45878
  510 Torsion                 65    66    55   105        -162.31932   69.64377
  511 Torsion                 66    65     8    74         -90.65686    5.22913
  512 Torsion                 66    65     8    94         150.36197    5.19742
  513 Torsion                 66    65     8   111          28.08416    5.13644
  514 Torsion                 66   103    12   104        -109.62698  -14.64657
  515 Torsion                 66   109     6    88        -166.62265   23.29201
  516 Torsion                 67    93    37    79        -176.97093   68.87270
  517 Torsion                 69   101    50    83         -58.39681  -14.56095
  518 Torsion                 71    86   106    97          77.76682  -17.61139
  519 Torsion                 72    20    52    84          73.68367   20.58861
  520 Torsion                 72    20    52    91        -169.45669   19.37575
  521 Torsion                 73    21    58    85         -20.40358   85.52671
  522 Torsion                 73    21    58    95          98.81214   84.75693
  523 Torsion                 74     8    94    82         147.31175  -80.15033
  524 Torsion                 74    42    34   100        -100.06171    3.56475
  525 Torsion                 75     9    33    90          -7.63363    5.03899
  526 Torsion                 76    24     6    88        -119.78077    7.17145
  527 Torsion                 76    24     6   109           4.67226   10.44718
  528 Torsion                 77    25   116    89         -81.51951    2.74261
  529 Torsion                 79    37    29    96          11.88472  -32.78511
  530 Torsion                 79    37    47   110        -114.73721  -30.03206
  531 Torsion                 80    57    50    83        -139.47496   -1.37290
  532 Torsion                 80    57    50   101         -19.10194   -1.48500
  533 Torsion                 81     7    10    83         -11.71848    0.10385
  534 Torsion                 82    94     8   111          24.20161  -79.98561
  535 Torsion                 86   106    43   102         -22.36651   -3.00186
  536 Torsion                 87    28    36    92         135.36332  -43.22297
  537 Torsion                 87    28    36    97        -102.40344  -41.98082
  538 Torsion                 90    33     9    98         116.91575    5.38201
  539 Torsion                 90    33     9   108        -126.11902    5.57848
  540 Torsion                 91    42    34   100         141.52751    4.06700
  541 Torsion                 91    52    84   113          11.83768   -4.80624
  542 Torsion                 92    36    51   110        -150.54435   28.11978
  543 Torsion                 92    36    97   106        -155.56948   47.87535
  544 Torsion                 93    37    29    96         132.36603  -32.82729
  545 Torsion                 93    37    47   110         122.48296  -31.98940
  546 Torsion                 93    37    79   114        -150.27084  -38.77543
  547 Torsion                 97    36    51   110          90.49980   29.14808
  548 Torsion                 97   106    43   102          98.85368   -3.43560
  549 Torsion                 99    23    13   107         -37.63499    4.20036
  550 Torsion                 99    23    13   115        -156.84454    5.16677
  551 Torsion                103    12    35   106         -85.40337    8.38009
  552 Torsion                103    66    55   105          77.16602   69.81702
  553 Torsion                104    12    35   106         152.47062    8.88386
  554 Torsion                105    55    66   109         -43.37918   69.64314
  555 Torsion                107    13   115   110          50.75729    1.03023
  556 Torsion                107    45    62   116         168.94244   49.60905
  557 Torsion                108    45    62   116          50.03257   47.42029
  558 Torsion                115   110    44   117          55.20530    0.79670



                                NWChem Input Module
                                -------------------




                                     CITATION
                                     --------
                Please cite the following reference when publishing
                           results obtained with NWChem:

          E. Apra, E. J. Bylaska, W. A. de Jong, N. Govind, K. Kowalski,
       T. P. Straatsma, M. Valiev, H. J. J. van Dam, Y. Alexeev, J. Anchell,
       V. Anisimov, F. W. Aquino, R. Atta-Fynn, J. Autschbach, N. P. Bauman,
     J. C. Becca, D. E. Bernholdt, K. Bhaskaran-Nair, S. Bogatko, P. Borowski,
         J. Boschen, J. Brabec, A. Bruner, E. Cauet, Y. Chen, G. N. Chuev,
      C. J. Cramer, J. Daily, M. J. O. Deegan, T. H. Dunning Jr., M. Dupuis,
   K. G. Dyall, G. I. Fann, S. A. Fischer, A. Fonari, H. Fruchtl, L. Gagliardi,
      J. Garza, N. Gawande, S. Ghosh, K. Glaesemann, A. W. Gotz, J. Hammond,
       V. Helms, E. D. Hermes, K. Hirao, S. Hirata, M. Jacquelin, L. Jensen,
   B. G. Johnson, H. Jonsson, R. A. Kendall, M. Klemm, R. Kobayashi, V. Konkov,
      S. Krishnamoorthy, M. Krishnan, Z. Lin, R. D. Lins, R. J. Littlefield,
      A. J. Logsdail, K. Lopata, W. Ma, A. V. Marenich, J. Martin del Campo,
   D. Mejia-Rodriguez, J. E. Moore, J. M. Mullin, T. Nakajima, D. R. Nascimento,
    J. A. Nichols, P. J. Nichols, J. Nieplocha, A. Otero-de-la-Roza, B. Palmer,
    A. Panyala, T. Pirojsirikul, B. Peng, R. Peverati, J. Pittner, L. Pollack,
   R. M. Richard, P. Sadayappan, G. C. Schatz, W. A. Shelton, D. W. Silverstein,
   D. M. A. Smith, T. A. Soares, D. Song, M. Swart, H. L. Taylor, G. S. Thomas,
            V. Tipparaju, D. G. Truhlar, K. Tsemekhman, T. Van Voorhis,
      A. Vazquez-Mayagoitia, P. Verma, O. Villa, A. Vishnu, K. D. Vogiatzis,
        D. Wang, J. H. Weare, M. J. Williamson, T. L. Windus, K. Wolinski,
        A. T. Wong, Q. Wu, C. Yang, Q. Yu, M. Zacharias, Z. Zhang, Y. Zhao,
                                and R. J. Harrison
                        "NWChem: Past, present, and future
                         J. Chem. Phys. 152, 184102 (2020)
                               doi:10.1063/5.0004997

                                      AUTHORS
                                      -------
  E. Apra, E. J. Bylaska, N. Govind, K. Kowalski, M. Valiev, D. Mejia-Rodriguez,
       A. Kunitsa, N. P. Bauman, A. Panyala, W. A. de Jong, T. P. Straatsma,
   H. J. J. van Dam, D. Wang, T. L. Windus, J. Hammond, J. Autschbach, A. Woods,
    K. Bhaskaran-Nair, J. Brabec, K. Lopata, S. A. Fischer, S. Krishnamoorthy,
     M. Jacquelin, W. Ma, M. Klemm, O. Villa, Y. Chen, V. Anisimov, F. Aquino,
     S. Hirata, M. T. Hackler, E. Hermes, L. Jensen, J. E. Moore, J. C. Becca,
      V. Konjkov, T. Risthaus, M. Malagoli, A. Marenich, A. Otero-de-la-Roza,
        J. Mullin, P. Nichols, R. Peverati, J. Pittner, Y. Zhao, P.-D. Fan,
        A. Fonari, M. J. Williamson, R. J. Harrison, J. R. Rehr, M. Dupuis,
     D. Silverstein, D. M. A. Smith, J. Nieplocha, V. Tipparaju, M. Krishnan,
     B. E. Van Kuiken, A. Vazquez-Mayagoitia, M. Swart, Q. Wu, T. Van Voorhis,
     A. A. Auer, M. Nooijen, L. D. Crosby, E. Brown, G. Cisneros, G. I. Fann,
   H. Fruchtl, J. Garza, K. Hirao, R. A. Kendall, J. A. Nichols, K. Tsemekhman,
    K. Wolinski, J. Anchell, D. E. Bernholdt, P. Borowski, T. Clark, D. Clerc,
   H. Dachsel, M. J. O. Deegan, K. Dyall, D. Elwood, E. Glendening, M. Gutowski,
   A. C. Hess, J. Jaffe, B. G. Johnson, J. Ju, R. Kobayashi, R. Kutteh, Z. Lin,
   R. Littlefield, X. Long, B. Meng, T. Nakajima, S. Niu, L. Pollack, M. Rosing,
   K. Glaesemann, G. Sandrone, M. Stave, H. Taylor, G. Thomas, J. H. van Lenthe,
                               A. T. Wong, Z. Zhang.

 Total times  cpu:    23009.5s     wall:    24099.9s
