
     Program PWSCF v.6.5 starts on 12Jun2021 at 13:59: 1 

     This program is part of the open-source Quantum ESPRESSO suite
     for quantum simulation of materials; please cite
         "P. Giannozzi et al., J. Phys.:Condens. Matter 21 395502 (2009);
         "P. Giannozzi et al., J. Phys.:Condens. Matter 29 465901 (2017);
          URL http://www.quantum-espresso.org", 
     in publications or presentations arising from this work. More details at
     http://www.quantum-espresso.org/quote

     Parallel version (MPI & OpenMP), running on       8 processor cores
     Number of MPI processes:                 8
     Threads/MPI process:                     1

     MPI processes distributed on     1 nodes
     R & G space division:  proc/nbgrp/npool/nimage =       8
     Waiting for input...
     Reading input from standard input

     Current dimensions of program PWSCF are:
     Max number of different atomic species (ntypx) = 10
     Max number of k-points (npk) =  40000
     Max angular momentum in pseudopotentials (lmaxx) =  3

     Subspace diagonalization in iterative solution of the eigenvalue problem:
     one sub-group per band group will be used
     scalapack distributed-memory algorithm (size of sub-group:  2*  2 procs)


     Parallelization info
     --------------------
     sticks:   dense  smooth     PW     G-vecs:    dense   smooth      PW
     Min         177     177     52                 4468     4468     719
     Max         178     178     53                 4472     4472     723
     Sum        1417    1417    421                35749    35749    5769



     bravais-lattice index     =            2
     lattice parameter (alat)  =      10.2000  a.u.
     unit-cell volume          =     265.3020 (a.u.)^3
     number of atoms/cell      =            2
     number of atomic types    =            1
     number of electrons       =         8.00
     number of Kohn-Sham states=            4
     kinetic-energy cutoff     =     100.0000  Ry
     charge density cutoff     =     400.0000  Ry
     convergence threshold     =      1.0E-06
     mixing beta               =       0.7000
     number of iterations used =            8  plain     mixing
     Exchange-correlation= PBE
                           (   1   4   3   4   0   0   0)

     celldm(1)=  10.200000  celldm(2)=   0.000000  celldm(3)=   0.000000
     celldm(4)=   0.000000  celldm(5)=   0.000000  celldm(6)=   0.000000

     crystal axes: (cart. coord. in units of alat)
               a(1) = (  -0.500000   0.000000   0.500000 )  
               a(2) = (   0.000000   0.500000   0.500000 )  
               a(3) = (  -0.500000   0.500000   0.000000 )  

     reciprocal axes: (cart. coord. in units 2 pi/alat)
               b(1) = ( -1.000000 -1.000000  1.000000 )  
               b(2) = (  1.000000  1.000000  1.000000 )  
               b(3) = ( -1.000000  1.000000 -1.000000 )  


     PseudoPot. # 1 for Si read from file:
     ./Si_r.upf
     MD5 check sum: c84abb4b0aac9c93a8e9f74896432a0a
     Pseudo is Norm-conserving + core correction, Zval =  4.0
     Generated using ONCVPSP code by D. R. Hamann
     Using radial grid of 1528 points,  6 beta functions with: 
                l(1) =   0
                l(2) =   0
                l(3) =   1
                l(4) =   1
                l(5) =   2
                l(6) =   2

     atomic species   valence    mass     pseudopotential
        Si             4.00    28.08600     Si( 1.00)

     48 Sym. Ops., with inversion, found (24 have fractional translation)



   Cartesian axes

     site n.     atom                  positions (alat units)
         1           Si  tau(   1) = (   0.0000000   0.0000000   0.0000000  )
         2           Si  tau(   2) = (   0.2500000   0.2500000   0.2500000  )

     number of k points=   413

     Number of k-points >= 100: set verbosity='high' to print them.

     Dense  grid:    35749 G-vectors     FFT dimensions: (  48,  48,  48)

     Estimated max dynamical RAM per process >      20.15 MB

     Estimated total dynamical RAM >     161.18 MB

     Initial potential from superposition of free atoms

     starting charge    7.99877, renormalised to    8.00000
     Starting wfcs are    8 randomized atomic wfcs

     total cpu time spent up to now is        2.5 secs

     Self-consistent Calculation

     iteration #  1     ecut=   100.00 Ry     beta= 0.70
     Davidson diagonalization with overlap
     ethr =  1.00E-02,  avg # of iterations =  2.0

     Threshold (ethr) on eigenvalues was too large:
     Diagonalizing with lowered threshold

     Davidson diagonalization with overlap
     ethr =  7.37E-04,  avg # of iterations =  1.1

     total cpu time spent up to now is        9.6 secs

     total energy              =     -16.92124884 Ry
     Harris-Foulkes estimate   =     -16.93635094 Ry
     estimated scf accuracy    <       0.05690429 Ry

     iteration #  2     ecut=   100.00 Ry     beta= 0.70
     Davidson diagonalization with overlap
     ethr =  7.11E-04,  avg # of iterations =  1.0

     total cpu time spent up to now is       12.6 secs

     total energy              =     -16.92321826 Ry
     Harris-Foulkes estimate   =     -16.92348991 Ry
     estimated scf accuracy    <       0.00255138 Ry

     iteration #  3     ecut=   100.00 Ry     beta= 0.70
     Davidson diagonalization with overlap
     ethr =  3.19E-05,  avg # of iterations =  2.6

     total cpu time spent up to now is       16.8 secs

     total energy              =     -16.92367983 Ry
     Harris-Foulkes estimate   =     -16.92370817 Ry
     estimated scf accuracy    <       0.00006461 Ry

     iteration #  4     ecut=   100.00 Ry     beta= 0.70
     Davidson diagonalization with overlap
     ethr =  8.08E-07,  avg # of iterations =  2.6

     total cpu time spent up to now is       21.5 secs

     total energy              =     -16.92370608 Ry
     Harris-Foulkes estimate   =     -16.92370891 Ry
     estimated scf accuracy    <       0.00000761 Ry

     iteration #  5     ecut=   100.00 Ry     beta= 0.70
     Davidson diagonalization with overlap
     ethr =  9.52E-08,  avg # of iterations =  2.1

     total cpu time spent up to now is       25.6 secs

     End of self-consistent calculation

     Number of k-points >= 100: set verbosity='high' to print the bands.

     highest occupied level (ev):     6.4248

!    total energy              =     -16.92370736 Ry
     Harris-Foulkes estimate   =     -16.92370741 Ry
     estimated scf accuracy    <       0.00000014 Ry

     The total energy is the sum of the following terms:

     one-electron contribution =       5.10182512 Ry
     hartree contribution      =       1.07885248 Ry
     xc contribution           =      -6.20462638 Ry
     ewald contribution        =     -16.89975857 Ry

     convergence has been achieved in   5 iterations

     Writing output data file ./si.save/

     init_run     :      2.16s CPU      2.33s WALL (       1 calls)
     electrons    :     21.52s CPU     23.12s WALL (       1 calls)

     Called by init_run:
     wfcinit      :      2.03s CPU      2.20s WALL (       1 calls)
     potinit      :      0.03s CPU      0.03s WALL (       1 calls)
     hinit0       :      0.06s CPU      0.06s WALL (       1 calls)

     Called by electrons:
     c_bands      :     18.67s CPU     20.02s WALL (       6 calls)
     sum_band     :      2.78s CPU      3.03s WALL (       6 calls)
     v_of_rho     :      0.07s CPU      0.07s WALL (       6 calls)
     mix_rho      :      0.00s CPU      0.00s WALL (       6 calls)

     Called by c_bands:
     init_us_2    :      1.26s CPU      1.33s WALL (    5369 calls)
     cegterg      :     16.70s CPU     17.99s WALL (    2478 calls)

     Called by sum_band:

     Called by *egterg:
     h_psi        :     13.95s CPU     15.14s WALL (    7624 calls)
     g_psi        :      0.10s CPU      0.11s WALL (    4733 calls)
     cdiaghg      :      2.27s CPU      2.39s WALL (    6798 calls)

     Called by h_psi:
     h_psi:calbec :      0.90s CPU      0.98s WALL (    7624 calls)
     vloc_psi     :     12.50s CPU     13.57s WALL (    7624 calls)
     add_vuspsi   :      0.49s CPU      0.53s WALL (    7624 calls)

     General routines
     calbec       :      0.88s CPU      0.96s WALL (    7624 calls)
     fft          :      0.03s CPU      0.03s WALL (      61 calls)
     ffts         :      0.00s CPU      0.00s WALL (       6 calls)
     fftw         :     13.37s CPU     14.53s WALL (   68888 calls)

     Parallel routines
     fft_scatt_xy :      1.45s CPU      1.58s WALL (   68955 calls)
     fft_scatt_yz :      4.68s CPU      5.13s WALL (   68955 calls)

     PWSCF        :     24.25s CPU     27.03s WALL


   This run was terminated on:  13:59:28  12Jun2021            

=------------------------------------------------------------------------------=
   JOB DONE.
=------------------------------------------------------------------------------=
