
     Program PWSCF v.7.4.1 starts on 17Feb2026 at 13: 5:30 

     This program is part of the open-source Quantum ESPRESSO suite
     for quantum simulation of materials; please cite
         "P. Giannozzi et al., J. Phys.:Condens. Matter 21 395502 (2009);
         "P. Giannozzi et al., J. Phys.:Condens. Matter 29 465901 (2017);
         "P. Giannozzi et al., J. Chem. Phys. 152 154105 (2020);
          URL http://www.quantum-espresso.org", 
     in publications or presentations arising from this work. More details at
     http://www.quantum-espresso.org/quote

     Serial version
     15299 MiB available memory on the printing compute node when the environment starts

     Waiting for input...
     Reading input from standard input

     Current dimensions of program PWSCF are:
     Max number of different atomic species (ntypx) = 10
     Max number of k-points (npk) =  40000
     Max angular momentum in pseudopotentials (lmaxx) =  4
     Message from routine setup:
     using ibrav=0 with symmetry is DISCOURAGED, use correct ibrav instead


     G-vector sticks info
     --------------------
     sticks:   dense  smooth     PW     G-vecs:    dense   smooth      PW
     Sum         955     955    283                19195    19195    3143

     Using Slab Decomposition



     bravais-lattice index     =            0
     lattice parameter (alat)  =       7.2555  a.u.
     unit-cell volume          =     270.0773 (a.u.)^3
     number of atoms/cell      =            2
     number of atomic types    =            1
     number of electrons       =         8.00
     number of Kohn-Sham states=            8
     kinetic-energy cutoff     =      65.0000  Ry
     charge density cutoff     =     260.0000  Ry
     scf convergence threshold =      1.0E-10
     mixing beta               =       0.7000
     number of iterations used =            8  plain     mixing
     Exchange-correlation= PBE
                           (   1   4   3   4   0   0   0)

     celldm(1)=   7.255506  celldm(2)=   0.000000  celldm(3)=   0.000000
     celldm(4)=   0.000000  celldm(5)=   0.000000  celldm(6)=   0.000000

     crystal axes: (cart. coord. in units of alat)
               a(1) = (   0.000000   0.707107   0.707107 )  
               a(2) = (   0.707107   0.000000   0.707107 )  
               a(3) = (   0.707107   0.707107   0.000000 )  

     reciprocal axes: (cart. coord. in units 2 pi/alat)
               b(1) = ( -0.707107  0.707107  0.707107 )  
               b(2) = (  0.707107 -0.707107  0.707107 )  
               b(3) = (  0.707107  0.707107 -0.707107 )  


     PseudoPot. # 1 for Si read from file:
     ./Si.upf
     MD5 check sum: 02fab3f35e82123ef5bf1cb05d5b1a5e
     Pseudo is Norm-conserving + core correction, Zval =  4.0
     Generated using ONCVPSP code by D. R. Hamann
     Using radial grid of 1510 points,  6 beta functions with: 
                l(1) =   0
                l(2) =   0
                l(3) =   1
                l(4) =   1
                l(5) =   2
                l(6) =   2

     atomic species   valence    mass     pseudopotential
     Si                4.00    28.08500     Si( 1.00)

     48 Sym. Ops., with inversion, found (24 have fractional translation)



   Cartesian axes

     site n.     atom                  positions (alat units)
         1        Si     tau(   1) = (   0.3535534   1.0606602   1.0606602  )
         2        Si     tau(   2) = (   0.0000000   0.0000000   0.0000000  )

     number of k points=   120  Gaussian smearing, width (Ry)=  0.0100

     Number of k-points >= 100: set verbosity='high' to print them.

     Dense  grid:    19195 G-vectors     FFT dimensions: (  40,  40,  40)

     Estimated max dynamical RAM per process >      51.47 MB

     Initial potential from superposition of free atoms

     starting charge       7.9988, renormalised to       8.0000
     Starting wfcs are    8 randomized atomic wfcs

     total cpu time spent up to now is        1.3 secs

     Self-consistent Calculation

     iteration #  1     ecut=    65.00 Ry     beta= 0.70
     Davidson diagonalization with overlap
     ethr =  1.00E-02,  avg # of iterations =  4.8

     Threshold (ethr) on eigenvalues was too large:
     Diagonalizing with lowered threshold

     Davidson diagonalization with overlap
     ethr =  6.54E-04,  avg # of iterations =  1.8

     total cpu time spent up to now is       11.9 secs

     total energy              =     -16.92246826 Ry
     estimated scf accuracy    <       0.05590287 Ry

     iteration #  2     ecut=    65.00 Ry     beta= 0.70
     Davidson diagonalization with overlap
     ethr =  6.99E-04,  avg # of iterations =  1.0

     total cpu time spent up to now is       14.9 secs

     total energy              =     -16.92476064 Ry
     estimated scf accuracy    <       0.00217372 Ry

     iteration #  3     ecut=    65.00 Ry     beta= 0.70
     Davidson diagonalization with overlap
     ethr =  2.72E-05,  avg # of iterations =  4.6

     total cpu time spent up to now is       18.6 secs

     total energy              =     -16.92487431 Ry
     estimated scf accuracy    <       0.00003897 Ry

     iteration #  4     ecut=    65.00 Ry     beta= 0.70
     Davidson diagonalization with overlap
     ethr =  4.87E-07,  avg # of iterations =  3.7

     total cpu time spent up to now is       22.6 secs

     total energy              =     -16.92488352 Ry
     estimated scf accuracy    <       0.00000018 Ry

     iteration #  5     ecut=    65.00 Ry     beta= 0.70
     Davidson diagonalization with overlap
     ethr =  2.19E-09,  avg # of iterations =  3.7

     total cpu time spent up to now is       26.7 secs

     total energy              =     -16.92488384 Ry
     estimated scf accuracy    <          9.8E-09 Ry

     iteration #  6     ecut=    65.00 Ry     beta= 0.70
     Davidson diagonalization with overlap
     ethr =  1.22E-10,  avg # of iterations =  2.0

     total cpu time spent up to now is       30.2 secs

     total energy              =     -16.92488384 Ry
     estimated scf accuracy    <          2.4E-10 Ry

     iteration #  7     ecut=    65.00 Ry     beta= 0.70
     Davidson diagonalization with overlap
     ethr =  2.99E-12,  avg # of iterations =  3.0

     total cpu time spent up to now is       33.8 secs

     End of self-consistent calculation

     Number of k-points >= 100: set verbosity='high' to print the bands.

     the Fermi energy is     6.5148 ev

!    total energy              =     -16.92488384 Ry
     estimated scf accuracy    <          3.8E-11 Ry
     smearing contrib. (-TS)   =      -0.00000022 Ry
     internal energy E=F+TS    =     -16.92488363 Ry

     The total energy is F=E-TS. E is the sum of the following terms:
     one-electron contribution =       4.96416554 Ry
     hartree contribution      =       1.09478255 Ry
     xc contribution           =      -6.18426922 Ry
     ewald contribution        =     -16.79956250 Ry

     convergence has been achieved in   7 iterations

     Forces acting on atoms (cartesian axes, Ry/au):

     atom    1 type  1   force =     0.00000000    0.00000000    0.00000000
     atom    2 type  1   force =     0.00000000    0.00000000    0.00000000

     Total force =     0.000000     Total SCF correction =     0.000000


     Computing stress (Cartesian axis) and pressure

          total   stress  (Ry/bohr**3)                   (kbar)     P=       19.93
   0.00013547   0.00000000  -0.00000000           19.93        0.00       -0.00
   0.00000000   0.00013547  -0.00000000            0.00       19.93       -0.00
  -0.00000000  -0.00000000   0.00013547           -0.00       -0.00       19.93


     Writing all to output data dir ./pwscf.save/ :
     XML data file, charge density, pseudopotentials, collected wavefunctions

     init_run     :      1.35s CPU      1.25s WALL (       1 calls)
     electrons    :     32.03s CPU     32.46s WALL (       1 calls)
     forces       :      0.44s CPU      0.41s WALL (       1 calls)
     stress       :      1.79s CPU      1.65s WALL (       1 calls)

     Called by init_run:
     wfcinit      :      1.23s CPU      1.14s WALL (       1 calls)
     potinit      :      0.04s CPU      0.04s WALL (       1 calls)
     hinit0       :      0.06s CPU      0.05s WALL (       1 calls)

     Called by electrons:
     c_bands      :     27.74s CPU     28.42s WALL (       8 calls)
     sum_band     :      4.15s CPU      3.91s WALL (       8 calls)
     v_of_rho     :      0.14s CPU      0.14s WALL (       8 calls)
     mix_rho      :      0.01s CPU      0.01s WALL (       8 calls)

     Called by c_bands:
     init_us_2    :      0.95s CPU      0.89s WALL (    2280 calls)
     cegterg      :     25.59s CPU     26.39s WALL (     960 calls)

     Called by *egterg:
     cdiaghg      :      0.17s CPU      0.16s WALL (    3800 calls)
     h_psi        :     23.89s CPU     24.79s WALL (    4040 calls)
     g_psi        :      0.08s CPU      0.07s WALL (    2960 calls)

     Called by h_psi:
     h_psi:calbec :      1.78s CPU      1.67s WALL (    4040 calls)
     vloc_psi     :     20.55s CPU     21.65s WALL (    4040 calls)
     add_vuspsi   :      1.51s CPU      1.42s WALL (    4040 calls)

     General routines
     calbec       :      3.08s CPU      2.86s WALL (    6080 calls)
     fft          :      0.08s CPU      0.07s WALL (     105 calls)
     ffts         :      0.01s CPU      0.01s WALL (       8 calls)
     fftw         :     22.04s CPU     23.08s WALL (   51524 calls)


     PWSCF        :     35.65s CPU     35.85s WALL


   This run was terminated on:  13: 6: 6  17Feb2026            

=------------------------------------------------------------------------------=
   JOB DONE.
=------------------------------------------------------------------------------=
