

 Parallel Execution: Process Information
 ==============================================================================
 Rank   Node Name                              NodeID   MyNodeRank  NodeMaster
    0   adf1                                      0          0          0
    1   adf1                                      0          1         -1
    2   adf1                                      0          2         -1
    3   adf1                                      0          3         -1
    4   adf1                                      0          4         -1
    5   adf1                                      0          5         -1
    6   adf1                                      0          6         -1
    7   adf1                                      0          7         -1
    8   adf1                                      0          8         -1
    9   adf1                                      0          9         -1
   10   adf1                                      0         10         -1
   11   adf1                                      0         11         -1
 ==============================================================================


May use up to 22932MB of RAM as shared memory on node 0

 *******************************************************************************
 *                                                                             *
 *  --------------------------------                                           *
 *   Amsterdam Modeling Suite (AMS)              2020.202                      *
 *  --------------------------------                                           *
 *                                               r90167 2020-12-05             *
 *                                                                             *
 *                                                                             *
 *                              =================                              *
 *                              |               |                              *
 *                              |     A M S     |                              *
 *                              |               |                              *
 *                              =================                              *
 *                                                                             *
 *                                                                             *
 *   Online information and documentation:  https://www.scm.com/support/       *
 *   E-mail:  support@scm.com   info@scm.com                                   *
 *                                                                             *
 *   Scientific publications using AMS results must be properly referenced     *
 *   See the User Manuals (or the web site) for recommended citations          *
 *   The terms and conditions of the End User License Agreement apply to       *
 *   the use of AMS, https://www.scm.com/license-terms/                        *
 *                                                                             *
 **********************  x86_64_linux_intel / intelmpi  ************************
 
 Licensed to: Dr. Miroslav Ilias / Matej Bel University, Department Chemistry, Fac. Natural Sciences / Banska Bystrica / SLOVAKIA
 SCM User ID: u17848
  
 AMS 2020.202  RunTime: Jan21-2021 14:47:14  Nodes: 1  Procs: 12

 AMS jobname: ams
 AMS jobid  : 72683466

 Start   directory: /home/milias/Work/projects/open-collection/theoretical_chemistry/projects/nmr_diplomovky/reference_compounds/durene/ams/nmr_shieldings/tmp.milias.24292.0.noindex/
 Results directory: /home/milias/Work/projects/open-collection/theoretical_chemistry/projects/nmr_diplomovky/reference_compounds/durene/ams/nmr_shieldings/Durene.nmr_shield_blyp_tz2p_cosmo-chcl3.results/
 Scratch directory: /tmp/amstmp_ams_kid0.72683466/


 Communication costs MPI_COMM_WORLD:      2.830 usec per message,   0.0274 usec per 8-byte item
 Communication costs for intra-node:      2.751 usec per message,   0.0275 usec per 8-byte item

 RNG seed: -1269794754 -1857387425 -945123499 1901905590 -1568393594 2086971011 -893170350 -415181411



                       *********************************************************************
                       *  ADF 2020.202  RunTime: Jan21-2021 14:47:14  Nodes: 1  Procs: 12  *
                       *********************************************************************
  
       ****************************
       * SINGLE POINT CALCULATION *
       ****************************
 
--------
Geometry
--------
Atoms
  Index Symbol   x (angstrom)   y (angstrom)   z (angstrom)
      1      C     0.00000000    -0.70738763    -1.23509937       adf.R=1.700
      2      C     0.00000000     0.70738763    -1.23509937       adf.R=1.700
      3      C     0.00000000    -0.70738763     1.23509937       adf.R=1.700
      4      C     0.00000000     0.70738763     1.23509937       adf.R=1.700
      5      C     0.00000000    -1.37691882     0.00000000       adf.R=1.700
      6      C     0.00000000     1.37691882     0.00000000       adf.R=1.700
      7      C     0.00000000    -1.49484808    -2.53238698       adf.R=1.700
      8      C     0.00000000     1.49484808    -2.53238698       adf.R=1.700
      9      C     0.00000000    -1.49484808     2.53238698       adf.R=1.700
     10      C     0.00000000     1.49484808     2.53238698       adf.R=1.700
     11      H     0.00000000    -2.46834660     0.00000000       adf.R=1.350
     12      H     0.00000000     2.46834660     0.00000000       adf.R=1.350
     13      H     0.00000000    -2.57335178    -2.33831883       adf.R=1.350
     14      H    -0.88179079    -1.26281845    -3.14729146       adf.R=1.350
     15      H     0.88179079    -1.26281845    -3.14729146       adf.R=1.350
     16      H     0.00000000     2.57335178    -2.33831883       adf.R=1.350
     17      H     0.88179079     1.26281845    -3.14729146       adf.R=1.350
     18      H    -0.88179079     1.26281845    -3.14729146       adf.R=1.350
     19      H    -0.88179079    -1.26281845     3.14729146       adf.R=1.350
     20      H     0.00000000    -2.57335178     2.33831883       adf.R=1.350
     21      H     0.88179079    -1.26281845     3.14729146       adf.R=1.350
     22      H     0.88179079     1.26281845     3.14729146       adf.R=1.350
     23      H     0.00000000     2.57335178     2.33831883       adf.R=1.350
     24      H    -0.88179079     1.26281845     3.14729146       adf.R=1.350
 
Total System Charge             0.00000
Bonding info available!
 
 
----------------
ADF Engine Input
----------------
 
 Basis
 Type TZ2P
 Core None
 End
 Save TAPE10
 XC
 GGA BLYP
 End
 Relativity
 Level None
 End
 Solvation
 Surf Delley
 Solv name=Chloroform cav0=0.0 cav1=0.0067639
 Charged method=CONJ
 C-Mat POT
 SCF VAR ALL
 CSMRSP
 End
 

 Title: *** (NO TITLE) ***

 *** adf ***



 ===========================
 A T T A C H E D   F I L E S
 ===========================
  



 ===============================
 M O D E L   P A R A M E T E R S
 ===============================
  
 DENSITY FUNCTIONAL POTENTIAL (scf)
    LDA:                               Exchange only                           == Not Default ==
    Gradient Corrections:              Becke88 LYP                             == Not Default ==

 SPIN  (restricted / unrestr.)
    Molecule:                          Restricted                               
    Fragments:                         Restricted                               

 OTHER ASPECTS
    Relativistic Corrections:          ---                                     == Not Default ==

    Nuclear Charge Density Model:      Point Charge Nuclei                      
    Core Treatment:                    Frozen Orbital(s)                        

    Hyperfine or Zeeman Interaction:   ---                                      

 SOLVATION
-------------------------------------------

  The Delley construction of COSMO surface surface is calculated

       Division Level for Surface Triangles (NDIV)                  3
       Final Division Level for Triangles (NFDIV)                   1
       Radius of the Solvent (RSOL)                           3.17000 angstr
  Dielectric Constant (EPSL)                                  4.80000

       COSMO equation is solved iteratively-               conjugate-gradient

       Maximun of Iterations for Charges (NCIX)                  1000
       Criterion for Charge convergence (CCNV)                1.0E-08

  COSMO charges included variationally in SCF

       COSMO included at every SCF cycle

  Geometry-dependent empirical factor                         0.00000

  C-Matrix calculated in cspmtx

  In cspmtx, C-Matrix calculated using fitted potential

-------------------------------------------



 Fragment File(s)
 ----------------
 C:
         file : /home/milias/Work/projects/open-collection/theoretical_chemistry/projects/nmr_diplomovky/reference_compounds/durene/ams/nmr_shieldings/Durene.nmr_shield_blyp_tz2p_cosmo-chcl3.results/t21.312447F9.C
         jobid: 0
         title: Carbon (TZ2P)
 H:
         file : /home/milias/Work/projects/open-collection/theoretical_chemistry/projects/nmr_diplomovky/reference_compounds/durene/ams/nmr_shieldings/Durene.nmr_shield_blyp_tz2p_cosmo-chcl3.results/t21.5FDAA83B.H
         jobid: 0
         title: Hydrogen (TZ2P)



 ===============
 G E O M E T R Y  ***  3D  Molecule  ***
 ===============
  

 ATOMS
 =====                            X Y Z                    CHARGE                     RADIUS
                                (Angstrom)             Nucl     +Core       At.Mass (Angstrom)
                       --------------------------    ----------------       ------- ----------
    1  C               0.0000   -0.7074   -1.2351      6.00      6.00       12.0000    1.7000
    2  C               0.0000    0.7074   -1.2351      6.00      6.00       12.0000    1.7000
    3  C               0.0000   -0.7074    1.2351      6.00      6.00       12.0000    1.7000
    4  C               0.0000    0.7074    1.2351      6.00      6.00       12.0000    1.7000
    5  C               0.0000   -1.3769    0.0000      6.00      6.00       12.0000    1.7000
    6  C               0.0000    1.3769    0.0000      6.00      6.00       12.0000    1.7000
    7  C               0.0000   -1.4948   -2.5324      6.00      6.00       12.0000    1.7000
    8  C               0.0000    1.4948   -2.5324      6.00      6.00       12.0000    1.7000
    9  C               0.0000   -1.4948    2.5324      6.00      6.00       12.0000    1.7000
   10  C               0.0000    1.4948    2.5324      6.00      6.00       12.0000    1.7000
   11  H               0.0000   -2.4683    0.0000      1.00      1.00        1.0078    1.3500
   12  H               0.0000    2.4683    0.0000      1.00      1.00        1.0078    1.3500
   13  H               0.0000   -2.5734   -2.3383      1.00      1.00        1.0078    1.3500
   14  H              -0.8818   -1.2628   -3.1473      1.00      1.00        1.0078    1.3500
   15  H               0.8818   -1.2628   -3.1473      1.00      1.00        1.0078    1.3500
   16  H               0.0000    2.5734   -2.3383      1.00      1.00        1.0078    1.3500
   17  H               0.8818    1.2628   -3.1473      1.00      1.00        1.0078    1.3500
   18  H              -0.8818    1.2628   -3.1473      1.00      1.00        1.0078    1.3500
   19  H              -0.8818   -1.2628    3.1473      1.00      1.00        1.0078    1.3500
   20  H               0.0000   -2.5734    2.3383      1.00      1.00        1.0078    1.3500
   21  H               0.8818   -1.2628    3.1473      1.00      1.00        1.0078    1.3500
   22  H               0.8818    1.2628    3.1473      1.00      1.00        1.0078    1.3500
   23  H               0.0000    2.5734    2.3383      1.00      1.00        1.0078    1.3500
   24  H              -0.8818    1.2628    3.1473      1.00      1.00        1.0078    1.3500


 FRAGMENTS
 =========                                     Atoms in this Fragment     Cart. coord.s (Angstrom)
                                               -------------------------------------------------------
    1  C                                                 1  C            0.0000   -0.7074   -1.2351
    2  C                                                 2  C            0.0000    0.7074   -1.2351
    3  C                                                 3  C            0.0000   -0.7074    1.2351
    4  C                                                 4  C            0.0000    0.7074    1.2351
    5  C                                                 5  C            0.0000   -1.3769    0.0000
    6  C                                                 6  C            0.0000    1.3769    0.0000
    7  C                                                 7  C            0.0000   -1.4948   -2.5324
    8  C                                                 8  C            0.0000    1.4948   -2.5324
    9  C                                                 9  C            0.0000   -1.4948    2.5324
   10  C                                                10  C            0.0000    1.4948    2.5324
   11  H                                                11  H            0.0000   -2.4683    0.0000
   12  H                                                12  H            0.0000    2.4683    0.0000
   13  H                                                13  H            0.0000   -2.5734   -2.3383
   14  H                                                14  H           -0.8818   -1.2628   -3.1473
   15  H                                                15  H            0.8818   -1.2628   -3.1473
   16  H                                                16  H            0.0000    2.5734   -2.3383
   17  H                                                17  H            0.8818    1.2628   -3.1473
   18  H                                                18  H           -0.8818    1.2628   -3.1473
   19  H                                                19  H           -0.8818   -1.2628    3.1473
   20  H                                                20  H            0.0000   -2.5734    2.3383
   21  H                                                21  H            0.8818   -1.2628    3.1473
   22  H                                                22  H            0.8818    1.2628    3.1473
   23  H                                                23  H            0.0000    2.5734    2.3383
   24  H                                                24  H           -0.8818    1.2628    3.1473



 =====================================
 S Y M M E T R Y ,   E L E C T R O N S
 =====================================
  
 Symmetry: D(2H)

 Irreducible Representations, including subspecies
 -------------------------------------------------
 A.g
 B1.g
 B2.g
 B3.g
 A.u
 B1.u
 B2.u
 B3.u


 Configuration of Valence Electrons
 ==================================
 ( determined in the SCF procedure )

 Total:   74

 Net Charge: 0 (Nuclei minus Electrons)

 Aufbau principle for MO occupations will be applied through SCF cycle no.     150
 Thereafter, the program will assign electrons to MOs that are spatially
 similar to the occupied MOs in a "reference" cycle ("KeepOrbitals").
 The reference cycle is always the PREVIOUS cycle: it will evolve with
 the SCF procedure.
1
 ***************************************************************************************************



                                      ****************************************
                                      *  B U I L D : (Fragments, Functions)  *
                                      ****************************************
  



 =======
 S F O s  ***  (Symmetrized Fragment Orbitals)  ***
 =======
  
 SFOs are linear combinations of (valence) Fragment Orbitals (FOs), such that the SFOs transform as the
 irreducible representations of the (molecular) symmetry group. Each SFO is therefore characterized by
 an irrep of the molecule and by a few (or only one) generating FOs.
 The SFOs constitute a symmetry-adapted basis for the Fock matrix. The MO eigenvector coefficients in
 this basis provide a direct interpretation of the MOs in terms of Frontier Orbital Theory.

 The SFOs are combined with auxiliary Core Functions (CFs) to ensure orthogonalization on the (frozen)
 Core Orbitals (COs). The Core-orthogonalized SFOs (CSFOs) constitute the true Fock basis.

 The FOs, and hence also the (C)SFOs are combinations of the elementary basis functions (BAS). The basis
 functions that participate in the description of the SFOs depend on the irrep. The indices of the
 involved functions are printed below for each irrep.
 (The complete list of primitive basis functions is printed in another section)

 Total nr. of (C)SFOs (summation over all irreps) :   414

 NOTE: a (C)SFO that is defined as a combination of more than one FO is usually NOT normalized.



                                       === A.g ===
 Nr. of SFOs :   73
 Cartesian basis functions that participate in this irrep (total number =   342) :
      1    31    61    91     2    32    62    92     3    33
     63    93     4    34    64    94     5    35    65    95
      8    38    68    98    11    41    71   101    14    44
     74   104     7    37    67    97    10    40    70   100
     13    43    73   103    20    50    80   110    19    49
     79   109    15    18    45    48    75    78   105   108
     30    60    90   120    29    59    89   119    23    28
     53    58    83    88   113   118    22    27    52    57
     82    87   112   117   121   151   122   152   123   153
    124   154   125   155   127   157   130   160   133   163
    140   170   135   138   165   168   149   179   142   147
    172   177   181   211   241   271   182   212   242   272
    183   213   243   273   184   214   244   274   185   215
    245   275   188   218   248   278   191   221   251   281
    194   224   254   284   187   217   247   277   190   220
    250   280   193   223   253   283   200   230   260   290
    199   229   259   289   195   198   225   228   255   258
    285   288   210   240   270   300   209   239   269   299
    203   208   233   238   263   268   293   298   202   207
    232   237   262   267   292   297   301   313   302   314
    303   315   305   317   312   324   307   310   319   322
    325   361   409   445   326   362   410   446   327   363
    411   447   330   366   414   450   329   365   413   449
    336   372   420   456   335   371   419   455   331   334
    367   370   415   418   451   454   337   349   373   385
    397   421   433   457   338   350   374   386   398   422
    434   458   339   351   375   387   399   423   435   459
    342   354   378   390   402   426   438   462   340   341
    352   353   376   377   388   389   400   401   424   425
    436   437   460   461   348   360   384   396   408   432
    444   468   345   347   357   359   381   383   393   395
    405   407   429   431   441   443   465   467   343   344
    346   355   356   358   379   380   382   391   392   394
    403   404   406   427   428   430   439   440   442   463
    464   466

    SFO  (index         Fragment          Generating    Expansion in Fragment Orbitals
  indx  incl.CFs)   Occup   Orb.Energy   FragmentType  Coeff.   Orbital     on Fragment
 --------------------------------------------------------------------------------------
     1       1      2.000     -10.063 au  C             0.50      1 S               1
                        (    -273.823 eV)               0.50      1 S               2
                                                        0.50      1 S               3
                                                        0.50      1 S               4
     2       2      2.000      -0.500 au  C             0.50      2 S               1
                        (     -13.609 eV)               0.50      2 S               2
                                                        0.50      2 S               3
                                                        0.50      2 S               4
     3       3       --         0.374 au  C             0.50      3 S               1
                        (      10.173 eV)               0.50      3 S               2
                                                        0.50      3 S               3
                                                        0.50      3 S               4
     4       4       --         5.411 au  C             0.50      4 S               1
                        (     147.253 eV)               0.50      4 S               2
                                                        0.50      4 S               3
                                                        0.50      4 S               4
     5       5       --        50.155 au  C             0.50      5 S               1
                        (    1364.777 eV)               0.50      5 S               2
                                                        0.50      5 S               3
                                                        0.50      5 S               4
     6       6      0.667      -0.193 au  C             0.50      1 P:y             1
                        (      -5.243 eV)              -0.50      1 P:y             2
                                                        0.50      1 P:y             3
                                                       -0.50      1 P:y             4
     7       7       --         0.169 au  C             0.50      2 P:y             1
                        (       4.588 eV)              -0.50      2 P:y             2
                                                        0.50      2 P:y             3
                                                       -0.50      2 P:y             4
     8       8       --         2.015 au  C             0.50      3 P:y             1
                        (      54.822 eV)              -0.50      3 P:y             2
                                                        0.50      3 P:y             3
                                                       -0.50      3 P:y             4
     9       9      0.667      -0.193 au  C             0.50      1 P:z             1
                        (      -5.243 eV)               0.50      1 P:z             2
                                                       -0.50      1 P:z             3
                                                       -0.50      1 P:z             4
    10      10       --         0.169 au  C             0.50      2 P:z             1
                        (       4.588 eV)               0.50      2 P:z             2
                                                       -0.50      2 P:z             3
                                                       -0.50      2 P:z             4
    11      11       --         2.015 au  C             0.50      3 P:z             1
                        (      54.822 eV)               0.50      3 P:z             2
                                                       -0.50      3 P:z             3
                                                       -0.50      3 P:z             4
    12      12       --         1.243 au  C             0.50      1 D:z2            1
                        (      33.823 eV)               0.50      1 D:z2            2
                                                        0.50      1 D:z2            3
                                                        0.50      1 D:z2            4
    13      13       --         1.243 au  C             0.50      1 D:x2-y2         1
                        (      33.823 eV)               0.50      1 D:x2-y2         2
                                                        0.50      1 D:x2-y2         3
                                                        0.50      1 D:x2-y2         4
    14      14       --         1.243 au  C             0.50      1 D:yz            1
                        (      33.823 eV)              -0.50      1 D:yz            2
                                                       -0.50      1 D:yz            3
                                                        0.50      1 D:yz            4
    15      15       --         4.016 au  C             0.50      1 F:z3            1
                        (     109.288 eV)               0.50      1 F:z3            2
                                                       -0.50      1 F:z3            3
                                                       -0.50      1 F:z3            4
    16      16       --         4.016 au  C             0.50      1 F:z             1
                        (     109.288 eV)               0.50      1 F:z             2
                                                       -0.50      1 F:z             3
                                                       -0.50      1 F:z             4
    17      17       --         4.016 au  C             0.50      1 F:z2y           1
                        (     109.288 eV)              -0.50      1 F:z2y           2
                                                        0.50      1 F:z2y           3
                                                       -0.50      1 F:z2y           4
    18      18       --         4.016 au  C             0.50      1 F:y             1
                        (     109.288 eV)              -0.50      1 F:y             2
                                                        0.50      1 F:y             3
                                                       -0.50      1 F:y             4
    19      19      2.000     -10.063 au  C             0.71      1 S               5
                        (    -273.823 eV)               0.71      1 S               6
    20      20      2.000      -0.500 au  C             0.71      2 S               5
                        (     -13.609 eV)               0.71      2 S               6
    21      21       --         0.374 au  C             0.71      3 S               5
                        (      10.173 eV)               0.71      3 S               6
    22      22       --         5.411 au  C             0.71      4 S               5
                        (     147.253 eV)               0.71      4 S               6
    23      23       --        50.155 au  C             0.71      5 S               5
                        (    1364.777 eV)               0.71      5 S               6
    24      24      0.667      -0.193 au  C             0.71      1 P:y             5
                        (      -5.243 eV)              -0.71      1 P:y             6
    25      25       --         0.169 au  C             0.71      2 P:y             5
                        (       4.588 eV)              -0.71      2 P:y             6
    26      26       --         2.015 au  C             0.71      3 P:y             5
                        (      54.822 eV)              -0.71      3 P:y             6
    27      27       --         1.243 au  C             0.71      1 D:z2            5
                        (      33.823 eV)               0.71      1 D:z2            6
    28      28       --         1.243 au  C             0.71      1 D:x2-y2         5
                        (      33.823 eV)               0.71      1 D:x2-y2         6
    29      29       --         4.016 au  C             0.71      1 F:z2y           5
                        (     109.288 eV)              -0.71      1 F:z2y           6
    30      30       --         4.016 au  C             0.71      1 F:y             5
                        (     109.288 eV)              -0.71      1 F:y             6
    31      31      2.000     -10.063 au  C             0.50      1 S               7
                        (    -273.823 eV)               0.50      1 S               8
                                                        0.50      1 S               9
                                                        0.50      1 S              10
    32      32      2.000      -0.500 au  C             0.50      2 S               7
                        (     -13.609 eV)               0.50      2 S               8
                                                        0.50      2 S               9
                                                        0.50      2 S              10
    33      33       --         0.374 au  C             0.50      3 S               7
                        (      10.173 eV)               0.50      3 S               8
                                                        0.50      3 S               9
                                                        0.50      3 S              10
    34      34       --         5.411 au  C             0.50      4 S               7
                        (     147.253 eV)               0.50      4 S               8
                                                        0.50      4 S               9
                                                        0.50      4 S              10
    35      35       --        50.155 au  C             0.50      5 S               7
                        (    1364.777 eV)               0.50      5 S               8
                                                        0.50      5 S               9
                                                        0.50      5 S              10
    36      36      0.667      -0.193 au  C             0.50      1 P:y             7
                        (      -5.243 eV)              -0.50      1 P:y             8
                                                        0.50      1 P:y             9
                                                       -0.50      1 P:y            10
    37      37       --         0.169 au  C             0.50      2 P:y             7
                        (       4.588 eV)              -0.50      2 P:y             8
                                                        0.50      2 P:y             9
                                                       -0.50      2 P:y            10
    38      38       --         2.015 au  C             0.50      3 P:y             7
                        (      54.822 eV)              -0.50      3 P:y             8
                                                        0.50      3 P:y             9
                                                       -0.50      3 P:y            10
    39      39      0.667      -0.193 au  C             0.50      1 P:z             7
                        (      -5.243 eV)               0.50      1 P:z             8
                                                       -0.50      1 P:z             9
                                                       -0.50      1 P:z            10
    40      40       --         0.169 au  C             0.50      2 P:z             7
                        (       4.588 eV)               0.50      2 P:z             8
                                                       -0.50      2 P:z             9
                                                       -0.50      2 P:z            10
    41      41       --         2.015 au  C             0.50      3 P:z             7
                        (      54.822 eV)               0.50      3 P:z             8
                                                       -0.50      3 P:z             9
                                                       -0.50      3 P:z            10
    42      42       --         1.243 au  C             0.50      1 D:z2            7
                        (      33.823 eV)               0.50      1 D:z2            8
                                                        0.50      1 D:z2            9
                                                        0.50      1 D:z2           10
    43      43       --         1.243 au  C             0.50      1 D:x2-y2         7
                        (      33.823 eV)               0.50      1 D:x2-y2         8
                                                        0.50      1 D:x2-y2         9
                                                        0.50      1 D:x2-y2        10
    44      44       --         1.243 au  C             0.50      1 D:yz            7
                        (      33.823 eV)              -0.50      1 D:yz            8
                                                       -0.50      1 D:yz            9
                                                        0.50      1 D:yz           10
    45      45       --         4.016 au  C             0.50      1 F:z3            7
                        (     109.288 eV)               0.50      1 F:z3            8
                                                       -0.50      1 F:z3            9
                                                       -0.50      1 F:z3           10
    46      46       --         4.016 au  C             0.50      1 F:z             7
                        (     109.288 eV)               0.50      1 F:z             8
                                                       -0.50      1 F:z             9
                                                       -0.50      1 F:z            10
    47      47       --         4.016 au  C             0.50      1 F:z2y           7
                        (     109.288 eV)              -0.50      1 F:z2y           8
                                                        0.50      1 F:z2y           9
                                                       -0.50      1 F:z2y          10
    48      48       --         4.016 au  C             0.50      1 F:y             7
                        (     109.288 eV)              -0.50      1 F:y             8
                                                        0.50      1 F:y             9
                                                       -0.50      1 F:y            10
    49      49      1.000      -0.240 au  H             0.71      1 S              11
                        (      -6.532 eV)               0.71      1 S              12
    50      50       --         0.088 au  H             0.71      2 S              11
                        (       2.394 eV)               0.71      2 S              12
    51      51       --         1.502 au  H             0.71      3 S              11
                        (      40.877 eV)               0.71      3 S              12
    52      52       --         0.406 au  H             0.71      1 P:y            11
                        (      11.052 eV)              -0.71      1 P:y            12
    53      53       --         2.570 au  H             0.71      1 D:z2           11
                        (      69.925 eV)               0.71      1 D:z2           12
    54      54       --         2.570 au  H             0.71      1 D:x2-y2        11
                        (      69.925 eV)               0.71      1 D:x2-y2        12
    55      55      1.000      -0.240 au  H             0.50      1 S              13
                        (      -6.532 eV)               0.50      1 S              16
                                                        0.50      1 S              20
                                                        0.50      1 S              23
    56      56       --         0.088 au  H             0.50      2 S              13
                        (       2.394 eV)               0.50      2 S              16
                                                        0.50      2 S              20
                                                        0.50      2 S              23
    57      57       --         1.502 au  H             0.50      3 S              13
                        (      40.877 eV)               0.50      3 S              16
                                                        0.50      3 S              20
                                                        0.50      3 S              23
    58      58       --         0.406 au  H             0.50      1 P:y            13
                        (      11.052 eV)              -0.50      1 P:y            16
                                                        0.50      1 P:y            20
                                                       -0.50      1 P:y            23
    59      59       --         0.406 au  H             0.50      1 P:z            13
                        (      11.052 eV)               0.50      1 P:z            16
                                                       -0.50      1 P:z            20
                                                       -0.50      1 P:z            23
    60      60       --         2.570 au  H             0.50      1 D:z2           13
                        (      69.925 eV)               0.50      1 D:z2           16
                                                        0.50      1 D:z2           20
                                                        0.50      1 D:z2           23
    61      61       --         2.570 au  H             0.50      1 D:x2-y2        13
                        (      69.925 eV)               0.50      1 D:x2-y2        16
                                                        0.50      1 D:x2-y2        20
                                                        0.50      1 D:x2-y2        23
    62      62       --         2.570 au  H             0.50      1 D:yz           13
                        (      69.925 eV)              -0.50      1 D:yz           16
                                                       -0.50      1 D:yz           20
                                                        0.50      1 D:yz           23
    63      63      1.000      -0.240 au  H             0.35      1 S              14
                        (      -6.532 eV)               0.35      1 S              15
                                                        0.35      1 S              17
                                                        0.35      1 S              18
                                                        0.35      1 S              19
                                                        0.35      1 S              21
                                                        0.35      1 S              22
                                                        0.35      1 S              24
    64      64       --         0.088 au  H             0.35      2 S              14
                        (       2.394 eV)               0.35      2 S              15
                                                        0.35      2 S              17
                                                        0.35      2 S              18
                                                        0.35      2 S              19
                                                        0.35      2 S              21
                                                        0.35      2 S              22
                                                        0.35      2 S              24
    65      65       --         1.502 au  H             0.35      3 S              14
                        (      40.877 eV)               0.35      3 S              15
                                                        0.35      3 S              17
                                                        0.35      3 S              18
                                                        0.35      3 S              19
                                                        0.35      3 S              21
                                                        0.35      3 S              22
                                                        0.35      3 S              24
    66      66       --         0.406 au  H             0.35      1 P:x            14
                        (      11.052 eV)              -0.35      1 P:x            15
                                                       -0.35      1 P:x            17
                                                        0.35      1 P:x            18
                                                        0.35      1 P:x            19
                                                       -0.35      1 P:x            21
                                                       -0.35      1 P:x            22
                                                        0.35      1 P:x            24
    67      67       --         0.406 au  H             0.35      1 P:y            14
                        (      11.052 eV)               0.35      1 P:y            15
                                                       -0.35      1 P:y            17
                                                       -0.35      1 P:y            18
                                                        0.35      1 P:y            19
                                                        0.35      1 P:y            21
                                                       -0.35      1 P:y            22
                                                       -0.35      1 P:y            24
    68      68       --         0.406 au  H             0.35      1 P:z            14
                        (      11.052 eV)               0.35      1 P:z            15
                                                        0.35      1 P:z            17
                                                        0.35      1 P:z            18
                                                       -0.35      1 P:z            19
                                                       -0.35      1 P:z            21
                                                       -0.35      1 P:z            22
                                                       -0.35      1 P:z            24
    69      69       --         2.570 au  H             0.35      1 D:z2           14
                        (      69.925 eV)               0.35      1 D:z2           15
                                                        0.35      1 D:z2           17
                                                        0.35      1 D:z2           18
                                                        0.35      1 D:z2           19
                                                        0.35      1 D:z2           21
                                                        0.35      1 D:z2           22
                                                        0.35      1 D:z2           24
    70      70       --         2.570 au  H             0.35      1 D:x2-y2        14
                        (      69.925 eV)               0.35      1 D:x2-y2        15
                                                        0.35      1 D:x2-y2        17
                                                        0.35      1 D:x2-y2        18
                                                        0.35      1 D:x2-y2        19
                                                        0.35      1 D:x2-y2        21
                                                        0.35      1 D:x2-y2        22
                                                        0.35      1 D:x2-y2        24
    71      71       --         2.570 au  H             0.35      1 D:xy           14
                        (      69.925 eV)              -0.35      1 D:xy           15
                                                        0.35      1 D:xy           17
                                                       -0.35      1 D:xy           18
                                                        0.35      1 D:xy           19
                                                       -0.35      1 D:xy           21
                                                        0.35      1 D:xy           22
                                                       -0.35      1 D:xy           24
    72      72       --         2.570 au  H             0.35      1 D:xz           14
                        (      69.925 eV)              -0.35      1 D:xz           15
                                                       -0.35      1 D:xz           17
                                                        0.35      1 D:xz           18
                                                       -0.35      1 D:xz           19
                                                        0.35      1 D:xz           21
                                                        0.35      1 D:xz           22
                                                       -0.35      1 D:xz           24
    73      73       --         2.570 au  H             0.35      1 D:yz           14
                        (      69.925 eV)               0.35      1 D:yz           15
                                                       -0.35      1 D:yz           17
                                                       -0.35      1 D:yz           18
                                                       -0.35      1 D:yz           19
                                                       -0.35      1 D:yz           21
                                                        0.35      1 D:yz           22
                                                        0.35      1 D:yz           24



                                       === B1.g ===
 Nr. of SFOs :   38
 Cartesian basis functions that participate in this irrep (total number =   198) :
      6    36    66    96     9    39    69    99    12    42
     72   102    17    47    77   107    16    46    76   106
     26    56    86   116    25    55    85   115    21    24
     51    54    81    84   111   114   126   156   129   159
    132   162   136   166   146   176   141   144   171   174
    186   216   246   276   189   219   249   279   192   222
    252   282   197   227   257   287   196   226   256   286
    206   236   266   296   205   235   265   295   201   204
    231   234   261   264   291   294   304   316   308   320
    328   364   412   448   333   369   417   453   332   368
    416   452   337   349   373   385   397   421   433   457
    338   350   374   386   398   422   434   458   339   351
    375   387   399   423   435   459   342   354   378   390
    402   426   438   462   340   341   352   353   376   377
    388   389   400   401   424   425   436   437   460   461
    348   360   384   396   408   432   444   468   345   347
    357   359   381   383   393   395   405   407   429   431
    441   443   465   467   343   344   346   355   356   358
    379   380   382   391   392   394   403   404   406   427
    428   430   439   440   442   463   464   466

    SFO  (index         Fragment          Generating    Expansion in Fragment Orbitals
  indx  incl.CFs)   Occup   Orb.Energy   FragmentType  Coeff.   Orbital     on Fragment
 --------------------------------------------------------------------------------------
     1       1      0.667      -0.193 au  C             0.50      1 P:x             1
                        (      -5.243 eV)              -0.50      1 P:x             2
                                                        0.50      1 P:x             3
                                                       -0.50      1 P:x             4
     2       2       --         0.169 au  C             0.50      2 P:x             1
                        (       4.588 eV)              -0.50      2 P:x             2
                                                        0.50      2 P:x             3
                                                       -0.50      2 P:x             4
     3       3       --         2.015 au  C             0.50      3 P:x             1
                        (      54.822 eV)              -0.50      3 P:x             2
                                                        0.50      3 P:x             3
                                                       -0.50      3 P:x             4
     4       4       --         1.243 au  C             0.50      1 D:xy            1
                        (      33.823 eV)               0.50      1 D:xy            2
                                                        0.50      1 D:xy            3
                                                        0.50      1 D:xy            4
     5       5       --         1.243 au  C             0.50      1 D:xz            1
                        (      33.823 eV)              -0.50      1 D:xz            2
                                                       -0.50      1 D:xz            3
                                                        0.50      1 D:xz            4
     6       6       --         4.016 au  C             0.50      1 F:xyz           1
                        (     109.288 eV)               0.50      1 F:xyz           2
                                                       -0.50      1 F:xyz           3
                                                       -0.50      1 F:xyz           4
     7       7       --         4.016 au  C             0.50      1 F:z2x           1
                        (     109.288 eV)              -0.50      1 F:z2x           2
                                                        0.50      1 F:z2x           3
                                                       -0.50      1 F:z2x           4
     8       8       --         4.016 au  C             0.50      1 F:x             1
                        (     109.288 eV)              -0.50      1 F:x             2
                                                        0.50      1 F:x             3
                                                       -0.50      1 F:x             4
     9       9      0.667      -0.193 au  C             0.71      1 P:x             5
                        (      -5.243 eV)              -0.71      1 P:x             6
    10      10       --         0.169 au  C             0.71      2 P:x             5
                        (       4.588 eV)              -0.71      2 P:x             6
    11      11       --         2.015 au  C             0.71      3 P:x             5
                        (      54.822 eV)              -0.71      3 P:x             6
    12      12       --         1.243 au  C             0.71      1 D:xy            5
                        (      33.823 eV)               0.71      1 D:xy            6
    13      13       --         4.016 au  C             0.71      1 F:z2x           5
                        (     109.288 eV)              -0.71      1 F:z2x           6
    14      14       --         4.016 au  C             0.71      1 F:x             5
                        (     109.288 eV)              -0.71      1 F:x             6
    15      15      0.667      -0.193 au  C             0.50      1 P:x             7
                        (      -5.243 eV)              -0.50      1 P:x             8
                                                        0.50      1 P:x             9
                                                       -0.50      1 P:x            10
    16      16       --         0.169 au  C             0.50      2 P:x             7
                        (       4.588 eV)              -0.50      2 P:x             8
                                                        0.50      2 P:x             9
                                                       -0.50      2 P:x            10
    17      17       --         2.015 au  C             0.50      3 P:x             7
                        (      54.822 eV)              -0.50      3 P:x             8
                                                        0.50      3 P:x             9
                                                       -0.50      3 P:x            10
    18      18       --         1.243 au  C             0.50      1 D:xy            7
                        (      33.823 eV)               0.50      1 D:xy            8
                                                        0.50      1 D:xy            9
                                                        0.50      1 D:xy           10
    19      19       --         1.243 au  C             0.50      1 D:xz            7
                        (      33.823 eV)              -0.50      1 D:xz            8
                                                       -0.50      1 D:xz            9
                                                        0.50      1 D:xz           10
    20      20       --         4.016 au  C             0.50      1 F:xyz           7
                        (     109.288 eV)               0.50      1 F:xyz           8
                                                       -0.50      1 F:xyz           9
                                                       -0.50      1 F:xyz          10
    21      21       --         4.016 au  C             0.50      1 F:z2x           7
                        (     109.288 eV)              -0.50      1 F:z2x           8
                                                        0.50      1 F:z2x           9
                                                       -0.50      1 F:z2x          10
    22      22       --         4.016 au  C             0.50      1 F:x             7
                        (     109.288 eV)              -0.50      1 F:x             8
                                                        0.50      1 F:x             9
                                                       -0.50      1 F:x            10
    23      23       --         0.406 au  H             0.71      1 P:x            11
                        (      11.052 eV)              -0.71      1 P:x            12
    24      24       --         2.570 au  H             0.71      1 D:xy           11
                        (      69.925 eV)               0.71      1 D:xy           12
    25      25       --         0.406 au  H             0.50      1 P:x            13
                        (      11.052 eV)              -0.50      1 P:x            16
                                                        0.50      1 P:x            20
                                                       -0.50      1 P:x            23
    26      26       --         2.570 au  H             0.50      1 D:xy           13
                        (      69.925 eV)               0.50      1 D:xy           16
                                                        0.50      1 D:xy           20
                                                        0.50      1 D:xy           23
    27      27       --         2.570 au  H             0.50      1 D:xz           13
                        (      69.925 eV)              -0.50      1 D:xz           16
                                                       -0.50      1 D:xz           20
                                                        0.50      1 D:xz           23
    28      28      1.000      -0.240 au  H             0.35      1 S              14
                        (      -6.532 eV)              -0.35      1 S              15
                                                        0.35      1 S              17
                                                       -0.35      1 S              18
                                                        0.35      1 S              19
                                                       -0.35      1 S              21
                                                        0.35      1 S              22
                                                       -0.35      1 S              24
    29      29       --         0.088 au  H             0.35      2 S              14
                        (       2.394 eV)              -0.35      2 S              15
                                                        0.35      2 S              17
                                                       -0.35      2 S              18
                                                        0.35      2 S              19
                                                       -0.35      2 S              21
                                                        0.35      2 S              22
                                                       -0.35      2 S              24
    30      30       --         1.502 au  H             0.35      3 S              14
                        (      40.877 eV)              -0.35      3 S              15
                                                        0.35      3 S              17
                                                       -0.35      3 S              18
                                                        0.35      3 S              19
                                                       -0.35      3 S              21
                                                        0.35      3 S              22
                                                       -0.35      3 S              24
    31      31       --         0.406 au  H             0.35      1 P:x            14
                        (      11.052 eV)               0.35      1 P:x            15
                                                       -0.35      1 P:x            17
                                                       -0.35      1 P:x            18
                                                        0.35      1 P:x            19
                                                        0.35      1 P:x            21
                                                       -0.35      1 P:x            22
                                                       -0.35      1 P:x            24
    32      32       --         0.406 au  H             0.35      1 P:y            14
                        (      11.052 eV)              -0.35      1 P:y            15
                                                       -0.35      1 P:y            17
                                                        0.35      1 P:y            18
                                                        0.35      1 P:y            19
                                                       -0.35      1 P:y            21
                                                       -0.35      1 P:y            22
                                                        0.35      1 P:y            24
    33      33       --         0.406 au  H             0.35      1 P:z            14
                        (      11.052 eV)              -0.35      1 P:z            15
                                                        0.35      1 P:z            17
                                                       -0.35      1 P:z            18
                                                       -0.35      1 P:z            19
                                                        0.35      1 P:z            21
                                                       -0.35      1 P:z            22
                                                        0.35      1 P:z            24
    34      34       --         2.570 au  H             0.35      1 D:z2           14
                        (      69.925 eV)              -0.35      1 D:z2           15
                                                        0.35      1 D:z2           17
                                                       -0.35      1 D:z2           18
                                                        0.35      1 D:z2           19
                                                       -0.35      1 D:z2           21
                                                        0.35      1 D:z2           22
                                                       -0.35      1 D:z2           24
    35      35       --         2.570 au  H             0.35      1 D:x2-y2        14
                        (      69.925 eV)              -0.35      1 D:x2-y2        15
                                                        0.35      1 D:x2-y2        17
                                                       -0.35      1 D:x2-y2        18
                                                        0.35      1 D:x2-y2        19
                                                       -0.35      1 D:x2-y2        21
                                                        0.35      1 D:x2-y2        22
                                                       -0.35      1 D:x2-y2        24
    36      36       --         2.570 au  H             0.35      1 D:xy           14
                        (      69.925 eV)               0.35      1 D:xy           15
                                                        0.35      1 D:xy           17
                                                        0.35      1 D:xy           18
                                                        0.35      1 D:xy           19
                                                        0.35      1 D:xy           21
                                                        0.35      1 D:xy           22
                                                        0.35      1 D:xy           24
    37      37       --         2.570 au  H             0.35      1 D:xz           14
                        (      69.925 eV)               0.35      1 D:xz           15
                                                       -0.35      1 D:xz           17
                                                       -0.35      1 D:xz           18
                                                       -0.35      1 D:xz           19
                                                       -0.35      1 D:xz           21
                                                        0.35      1 D:xz           22
                                                        0.35      1 D:xz           24
    38      38       --         2.570 au  H             0.35      1 D:yz           14
                        (      69.925 eV)              -0.35      1 D:yz           15
                                                       -0.35      1 D:yz           17
                                                        0.35      1 D:yz           18
                                                       -0.35      1 D:yz           19
                                                        0.35      1 D:yz           21
                                                        0.35      1 D:yz           22
                                                       -0.35      1 D:yz           24



                                       === B2.g ===
 Nr. of SFOs :   33
 Cartesian basis functions that participate in this irrep (total number =   186) :
      6    36    66    96     9    39    69    99    12    42
     72   102    17    47    77   107    16    46    76   106
     26    56    86   116    25    55    85   115    21    24
     51    54    81    84   111   114   137   167   145   175
    186   216   246   276   189   219   249   279   192   222
    252   282   197   227   257   287   196   226   256   286
    206   236   266   296   205   235   265   295   201   204
    231   234   261   264   291   294   309   321   328   364
    412   448   333   369   417   453   332   368   416   452
    337   349   373   385   397   421   433   457   338   350
    374   386   398   422   434   458   339   351   375   387
    399   423   435   459   342   354   378   390   402   426
    438   462   340   341   352   353   376   377   388   389
    400   401   424   425   436   437   460   461   348   360
    384   396   408   432   444   468   345   347   357   359
    381   383   393   395   405   407   429   431   441   443
    465   467   343   344   346   355   356   358   379   380
    382   391   392   394   403   404   406   427   428   430
    439   440   442   463   464   466

    SFO  (index         Fragment          Generating    Expansion in Fragment Orbitals
  indx  incl.CFs)   Occup   Orb.Energy   FragmentType  Coeff.   Orbital     on Fragment
 --------------------------------------------------------------------------------------
     1       1      0.667      -0.193 au  C             0.50      1 P:x             1
                        (      -5.243 eV)               0.50      1 P:x             2
                                                       -0.50      1 P:x             3
                                                       -0.50      1 P:x             4
     2       2       --         0.169 au  C             0.50      2 P:x             1
                        (       4.588 eV)               0.50      2 P:x             2
                                                       -0.50      2 P:x             3
                                                       -0.50      2 P:x             4
     3       3       --         2.015 au  C             0.50      3 P:x             1
                        (      54.822 eV)               0.50      3 P:x             2
                                                       -0.50      3 P:x             3
                                                       -0.50      3 P:x             4
     4       4       --         1.243 au  C             0.50      1 D:xy            1
                        (      33.823 eV)              -0.50      1 D:xy            2
                                                       -0.50      1 D:xy            3
                                                        0.50      1 D:xy            4
     5       5       --         1.243 au  C             0.50      1 D:xz            1
                        (      33.823 eV)               0.50      1 D:xz            2
                                                        0.50      1 D:xz            3
                                                        0.50      1 D:xz            4
     6       6       --         4.016 au  C             0.50      1 F:xyz           1
                        (     109.288 eV)              -0.50      1 F:xyz           2
                                                        0.50      1 F:xyz           3
                                                       -0.50      1 F:xyz           4
     7       7       --         4.016 au  C             0.50      1 F:z2x           1
                        (     109.288 eV)               0.50      1 F:z2x           2
                                                       -0.50      1 F:z2x           3
                                                       -0.50      1 F:z2x           4
     8       8       --         4.016 au  C             0.50      1 F:x             1
                        (     109.288 eV)               0.50      1 F:x             2
                                                       -0.50      1 F:x             3
                                                       -0.50      1 F:x             4
     9       9       --         1.243 au  C             0.71      1 D:xz            5
                        (      33.823 eV)               0.71      1 D:xz            6
    10      10       --         4.016 au  C             0.71      1 F:xyz           5
                        (     109.288 eV)              -0.71      1 F:xyz           6
    11      11      0.667      -0.193 au  C             0.50      1 P:x             7
                        (      -5.243 eV)               0.50      1 P:x             8
                                                       -0.50      1 P:x             9
                                                       -0.50      1 P:x            10
    12      12       --         0.169 au  C             0.50      2 P:x             7
                        (       4.588 eV)               0.50      2 P:x             8
                                                       -0.50      2 P:x             9
                                                       -0.50      2 P:x            10
    13      13       --         2.015 au  C             0.50      3 P:x             7
                        (      54.822 eV)               0.50      3 P:x             8
                                                       -0.50      3 P:x             9
                                                       -0.50      3 P:x            10
    14      14       --         1.243 au  C             0.50      1 D:xy            7
                        (      33.823 eV)              -0.50      1 D:xy            8
                                                       -0.50      1 D:xy            9
                                                        0.50      1 D:xy           10
    15      15       --         1.243 au  C             0.50      1 D:xz            7
                        (      33.823 eV)               0.50      1 D:xz            8
                                                        0.50      1 D:xz            9
                                                        0.50      1 D:xz           10
    16      16       --         4.016 au  C             0.50      1 F:xyz           7
                        (     109.288 eV)              -0.50      1 F:xyz           8
                                                        0.50      1 F:xyz           9
                                                       -0.50      1 F:xyz          10
    17      17       --         4.016 au  C             0.50      1 F:z2x           7
                        (     109.288 eV)               0.50      1 F:z2x           8
                                                       -0.50      1 F:z2x           9
                                                       -0.50      1 F:z2x          10
    18      18       --         4.016 au  C             0.50      1 F:x             7
                        (     109.288 eV)               0.50      1 F:x             8
                                                       -0.50      1 F:x             9
                                                       -0.50      1 F:x            10
    19      19       --         2.570 au  H             0.71      1 D:xz           11
                        (      69.925 eV)               0.71      1 D:xz           12
    20      20       --         0.406 au  H             0.50      1 P:x            13
                        (      11.052 eV)               0.50      1 P:x            16
                                                       -0.50      1 P:x            20
                                                       -0.50      1 P:x            23
    21      21       --         2.570 au  H             0.50      1 D:xy           13
                        (      69.925 eV)              -0.50      1 D:xy           16
                                                       -0.50      1 D:xy           20
                                                        0.50      1 D:xy           23
    22      22       --         2.570 au  H             0.50      1 D:xz           13
                        (      69.925 eV)               0.50      1 D:xz           16
                                                        0.50      1 D:xz           20
                                                        0.50      1 D:xz           23
    23      23      1.000      -0.240 au  H             0.35      1 S              14
                        (      -6.532 eV)              -0.35      1 S              15
                                                       -0.35      1 S              17
                                                        0.35      1 S              18
                                                       -0.35      1 S              19
                                                        0.35      1 S              21
                                                        0.35      1 S              22
                                                       -0.35      1 S              24
    24      24       --         0.088 au  H             0.35      2 S              14
                        (       2.394 eV)              -0.35      2 S              15
                                                       -0.35      2 S              17
                                                        0.35      2 S              18
                                                       -0.35      2 S              19
                                                        0.35      2 S              21
                                                        0.35      2 S              22
                                                       -0.35      2 S              24
    25      25       --         1.502 au  H             0.35      3 S              14
                        (      40.877 eV)              -0.35      3 S              15
                                                       -0.35      3 S              17
                                                        0.35      3 S              18
                                                       -0.35      3 S              19
                                                        0.35      3 S              21
                                                        0.35      3 S              22
                                                       -0.35      3 S              24
    26      26       --         0.406 au  H             0.35      1 P:x            14
                        (      11.052 eV)               0.35      1 P:x            15
                                                        0.35      1 P:x            17
                                                        0.35      1 P:x            18
                                                       -0.35      1 P:x            19
                                                       -0.35      1 P:x            21
                                                       -0.35      1 P:x            22
                                                       -0.35      1 P:x            24
    27      27       --         0.406 au  H             0.35      1 P:y            14
                        (      11.052 eV)              -0.35      1 P:y            15
                                                        0.35      1 P:y            17
                                                       -0.35      1 P:y            18
                                                       -0.35      1 P:y            19
                                                        0.35      1 P:y            21
                                                       -0.35      1 P:y            22
                                                        0.35      1 P:y            24
    28      28       --         0.406 au  H             0.35      1 P:z            14
                        (      11.052 eV)              -0.35      1 P:z            15
                                                       -0.35      1 P:z            17
                                                        0.35      1 P:z            18
                                                        0.35      1 P:z            19
                                                       -0.35      1 P:z            21
                                                       -0.35      1 P:z            22
                                                        0.35      1 P:z            24
    29      29       --         2.570 au  H             0.35      1 D:z2           14
                        (      69.925 eV)              -0.35      1 D:z2           15
                                                       -0.35      1 D:z2           17
                                                        0.35      1 D:z2           18
                                                       -0.35      1 D:z2           19
                                                        0.35      1 D:z2           21
                                                        0.35      1 D:z2           22
                                                       -0.35      1 D:z2           24
    30      30       --         2.570 au  H             0.35      1 D:x2-y2        14
                        (      69.925 eV)              -0.35      1 D:x2-y2        15
                                                       -0.35      1 D:x2-y2        17
                                                        0.35      1 D:x2-y2        18
                                                       -0.35      1 D:x2-y2        19
                                                        0.35      1 D:x2-y2        21
                                                        0.35      1 D:x2-y2        22
                                                       -0.35      1 D:x2-y2        24
    31      31       --         2.570 au  H             0.35      1 D:xy           14
                        (      69.925 eV)               0.35      1 D:xy           15
                                                       -0.35      1 D:xy           17
                                                       -0.35      1 D:xy           18
                                                       -0.35      1 D:xy           19
                                                       -0.35      1 D:xy           21
                                                        0.35      1 D:xy           22
                                                        0.35      1 D:xy           24
    32      32       --         2.570 au  H             0.35      1 D:xz           14
                        (      69.925 eV)               0.35      1 D:xz           15
                                                        0.35      1 D:xz           17
                                                        0.35      1 D:xz           18
                                                        0.35      1 D:xz           19
                                                        0.35      1 D:xz           21
                                                        0.35      1 D:xz           22
                                                        0.35      1 D:xz           24
    33      33       --         2.570 au  H             0.35      1 D:yz           14
                        (      69.925 eV)              -0.35      1 D:yz           15
                                                        0.35      1 D:yz           17
                                                       -0.35      1 D:yz           18
                                                        0.35      1 D:yz           19
                                                       -0.35      1 D:yz           21
                                                        0.35      1 D:yz           22
                                                       -0.35      1 D:yz           24



                                       === B3.g ===
 Nr. of SFOs :   63
 Cartesian basis functions that participate in this irrep (total number =   318) :
      1    31    61    91     2    32    62    92     3    33
     63    93     4    34    64    94     5    35    65    95
      8    38    68    98    11    41    71   101    14    44
     74   104     7    37    67    97    10    40    70   100
     13    43    73   103    20    50    80   110    19    49
     79   109    15    18    45    48    75    78   105   108
     30    60    90   120    29    59    89   119    23    28
     53    58    83    88   113   118    22    27    52    57
     82    87   112   117   128   158   131   161   134   164
    139   169   150   180   143   148   173   178   181   211
    241   271   182   212   242   272   183   213   243   273
    184   214   244   274   185   215   245   275   188   218
    248   278   191   221   251   281   194   224   254   284
    187   217   247   277   190   220   250   280   193   223
    253   283   200   230   260   290   199   229   259   289
    195   198   225   228   255   258   285   288   210   240
    270   300   209   239   269   299   203   208   233   238
    263   268   293   298   202   207   232   237   262   267
[...]
                              -0.227     0.973     0.034
                              -0.660    -0.179     0.730
                        -----------------------------------
 
================================================================================
 
 
===  TOTAL NMR SHIELDING TENSOR (ppm)
 
                        ***********************************
                        CARTESIAN AXIS REPRESENTATION

                        ==== total shielding tensor
                        -----------------------------------
                              28.366    -0.267     4.391
                              -0.267    28.785    -0.754
                               4.391    -0.754    30.464
                        -----------------------------------
                                  isotropic =     29.205

                        ***********************************
                        -----------------------------------
                        PRINCIPAL AXIS REPRESENTATION

                        ==== Principal components:

                              24.883    28.693    34.039
 
                        ==== Principal Axis System:

                               0.780     0.141     0.610
                              -0.067     0.987    -0.143
                              -0.623     0.071     0.779
                        -----------------------------------
################################################################################
********************************************************************************
****  N U C L E U S : H(22)
 
 ADF-GUI atom: H(22)
 Internal NMR numbering of atoms: H(22)
 
 
================================================================================
 
 
===  PARAMAGNETIC NMR SHIELDING TENSORS (ppm)
 
    ===     paramagnetic b^(1) tensor       ===     paramagnetic u^(1) tensor
    -----------------------------------     -----------------------------------
           0.000     0.000     0.000               2.852    -3.496   -19.116
           0.000     0.000     0.000              -3.496    14.835    -3.848
           0.000     0.000     0.000             -19.116    -3.848   -10.124
    -----------------------------------     -----------------------------------
              isotropic =      0.000                  isotropic =      2.521

    ===     paramagnetic s^(1) tensor       ===     paramagnetic gauge tensor
    -----------------------------------     -----------------------------------
          -2.165     4.768    20.234              -0.534    -0.299    -1.626
           4.768   -12.678     2.814              -0.299    -0.075     1.445
          20.234     2.814    10.710              -1.626     1.445     0.968
    -----------------------------------     -----------------------------------
              isotropic =     -1.378                  isotropic =      0.120

                        ***********************************
                        CARTESIAN AXIS REPRESENTATION

                        ==== total paramagnetic tensor
                        -----------------------------------
                               0.154     0.973    -0.508
                               0.973     2.082     0.411
                              -0.508     0.411     1.554
                        -----------------------------------
                                  isotropic =      1.263

                        ***********************************
                        -----------------------------------
                        PRINCIPAL AXIS REPRESENTATION

                        ==== Principal components:

                              -0.450     1.711     2.529
 
                        ==== Principal Axis System:

                               0.873    -0.359     0.331
                              -0.384    -0.088     0.919
                               0.300     0.929     0.215
                        -----------------------------------
 
================================================================================
 
 
===  DIAMAGNETIC NMR SHIELDING TENSORS (ppm)
 
    ===       diamagnetic core tensor       ===    diamagnetic valence tensor
    -----------------------------------     -----------------------------------
           0.000     0.000     0.000              28.211    -0.706     4.901
           0.000     0.000     0.000              -0.706    26.703     0.343
           0.000     0.000     0.000               4.901     0.343    28.909
    -----------------------------------     -----------------------------------
              isotropic =      0.000                  isotropic =     27.941

                        ***********************************
                        CARTESIAN AXIS REPRESENTATION

                        ==== total diamagnetic tensor
                        -----------------------------------
                              28.211    -0.706     4.901
                              -0.706    26.703     0.343
                               4.901     0.343    28.909
                        -----------------------------------
                                  isotropic =     27.941

                        ***********************************
                        -----------------------------------
                        PRINCIPAL AXIS REPRESENTATION

                        ==== Principal components:

                              23.472    26.870    33.481
 
                        ==== Principal Axis System:

                              -0.716     0.143     0.683
                              -0.227    -0.973    -0.034
                               0.660    -0.179     0.730
                        -----------------------------------
 
================================================================================
 
 
===  TOTAL NMR SHIELDING TENSOR (ppm)
 
                        ***********************************
                        CARTESIAN AXIS REPRESENTATION

                        ==== total shielding tensor
                        -----------------------------------
                              28.364     0.267     4.393
                               0.267    28.785     0.753
                               4.393     0.753    30.463
                        -----------------------------------
                                  isotropic =     29.204

                        ***********************************
                        -----------------------------------
                        PRINCIPAL AXIS REPRESENTATION

                        ==== Principal components:

                              24.880    28.693    34.039
 
                        ==== Principal Axis System:

                              -0.780     0.141     0.610
                              -0.067    -0.987     0.143
                               0.623     0.071     0.779
                        -----------------------------------
################################################################################
********************************************************************************
****  N U C L E U S : H(23)
 
 ADF-GUI atom: H(23)
 Internal NMR numbering of atoms: H(23)
 
 
================================================================================
 
 
===  PARAMAGNETIC NMR SHIELDING TENSORS (ppm)
 
    ===     paramagnetic b^(1) tensor       ===     paramagnetic u^(1) tensor
    -----------------------------------     -----------------------------------
           0.000     0.000     0.000              11.076     0.000     0.001
           0.000     0.000     0.000               0.000   -19.589   -11.526
           0.000     0.000     0.000               0.001   -11.526    12.859
    -----------------------------------     -----------------------------------
              isotropic =      0.000                  isotropic =      1.449

    ===     paramagnetic s^(1) tensor       ===     paramagnetic gauge tensor
    -----------------------------------     -----------------------------------
         -11.436     0.000    -0.000               1.311    -0.000     0.000
           0.000    19.472    11.430              -0.000    -0.631     0.285
          -0.000    11.430   -13.388               0.000     0.285     1.117
    -----------------------------------     -----------------------------------
              isotropic =     -1.784                  isotropic =      0.599

                        ***********************************
                        CARTESIAN AXIS REPRESENTATION

                        ==== total paramagnetic tensor
                        -----------------------------------
                               0.952     0.000     0.001
                               0.000    -0.748     0.189
                               0.001     0.189     0.589
                        -----------------------------------
                                  isotropic =      0.264

                        ***********************************
                        -----------------------------------
                        PRINCIPAL AXIS REPRESENTATION

                        ==== Principal components:

                              -0.774     0.615     0.952
 
                        ==== Principal Axis System:

                               0.000    -0.003     1.000
                              -0.990     0.138     0.000
                               0.138     0.990     0.003
                        -----------------------------------
 
================================================================================
 
 
===  DIAMAGNETIC NMR SHIELDING TENSORS (ppm)
 
    ===       diamagnetic core tensor       ===    diamagnetic valence tensor
    -----------------------------------     -----------------------------------
           0.000     0.000     0.000              23.416    -0.000     0.000
           0.000     0.000     0.000              -0.000    34.630    -0.003
           0.000     0.000     0.000               0.000    -0.003    28.938
    -----------------------------------     -----------------------------------
              isotropic =      0.000                  isotropic =     28.995

                        ***********************************
                        CARTESIAN AXIS REPRESENTATION

                        ==== total diamagnetic tensor
                        -----------------------------------
                              23.416    -0.000     0.000
                              -0.000    34.630    -0.003
                               0.000    -0.003    28.938
                        -----------------------------------
                                  isotropic =     28.995

                        ***********************************
                        -----------------------------------
                        PRINCIPAL AXIS REPRESENTATION

                        ==== Principal components:

                              23.416    28.938    34.630
 
                        ==== Principal Axis System:

                               1.000     0.000     0.000
                               0.000     0.001    -1.000
                              -0.000     1.000     0.001
                        -----------------------------------
 
================================================================================
 
 
===  TOTAL NMR SHIELDING TENSOR (ppm)
 
                        ***********************************
                        CARTESIAN AXIS REPRESENTATION

                        ==== total shielding tensor
                        -----------------------------------
                              24.368     0.000     0.001
                               0.000    33.882     0.186
                               0.001     0.186    29.527
                        -----------------------------------
                                  isotropic =     29.259

                        ***********************************
                        -----------------------------------
                        PRINCIPAL AXIS REPRESENTATION

                        ==== Principal components:

                              24.368    29.519    33.890
 
                        ==== Principal Axis System:

                               1.000     0.000    -0.000
                              -0.000    -0.043    -0.999
                              -0.000     0.999    -0.043
                        -----------------------------------
################################################################################
********************************************************************************
****  N U C L E U S : H(24)
 
 ADF-GUI atom: H(24)
 Internal NMR numbering of atoms: H(24)
 
 
================================================================================
 
 
===  PARAMAGNETIC NMR SHIELDING TENSORS (ppm)
 
    ===     paramagnetic b^(1) tensor       ===     paramagnetic u^(1) tensor
    -----------------------------------     -----------------------------------
           0.000     0.000     0.000               2.853     3.496    19.117
           0.000     0.000     0.000               3.496    14.836    -3.848
           0.000     0.000     0.000              19.117    -3.848   -10.123
    -----------------------------------     -----------------------------------
              isotropic =      0.000                  isotropic =      2.522

    ===     paramagnetic s^(1) tensor       ===     paramagnetic gauge tensor
    -----------------------------------     -----------------------------------
          -2.165    -4.768   -20.233              -0.534     0.299     1.626
          -4.768   -12.679     2.814               0.299    -0.075     1.445
         -20.233     2.814    10.710               1.626     1.445     0.968
    -----------------------------------     -----------------------------------
              isotropic =     -1.378                  isotropic =      0.120

                        ***********************************
                        CARTESIAN AXIS REPRESENTATION

                        ==== total paramagnetic tensor
                        -----------------------------------
                               0.154    -0.973     0.509
                              -0.973     2.082     0.411
                               0.509     0.411     1.555
                        -----------------------------------
                                  isotropic =      1.264

                        ***********************************
                        -----------------------------------
                        PRINCIPAL AXIS REPRESENTATION

                        ==== Principal components:

                              -0.450     1.712     2.529
 
                        ==== Principal Axis System:

                              -0.873     0.359     0.331
                              -0.384    -0.088    -0.919
                               0.301     0.929    -0.215
                        -----------------------------------
 
================================================================================
 
 
===  DIAMAGNETIC NMR SHIELDING TENSORS (ppm)
 
    ===       diamagnetic core tensor       ===    diamagnetic valence tensor
    -----------------------------------     -----------------------------------
           0.000     0.000     0.000              28.211     0.706    -4.901
           0.000     0.000     0.000               0.706    26.703     0.343
           0.000     0.000     0.000              -4.901     0.343    28.909
    -----------------------------------     -----------------------------------
              isotropic =      0.000                  isotropic =     27.941

                        ***********************************
                        CARTESIAN AXIS REPRESENTATION

                        ==== total diamagnetic tensor
                        -----------------------------------
                              28.211     0.706    -4.901
                               0.706    26.703     0.343
                              -4.901     0.343    28.909
                        -----------------------------------
                                  isotropic =     27.941

                        ***********************************
                        -----------------------------------
                        PRINCIPAL AXIS REPRESENTATION

                        ==== Principal components:

                              23.472    26.869    33.481
 
                        ==== Principal Axis System:

                               0.716     0.143    -0.683
                              -0.227     0.973    -0.034
                               0.660     0.179     0.730
                        -----------------------------------
 
================================================================================
 
 
===  TOTAL NMR SHIELDING TENSOR (ppm)
 
                        ***********************************
                        CARTESIAN AXIS REPRESENTATION

                        ==== total shielding tensor
                        -----------------------------------
                              28.365    -0.267    -4.392
                              -0.267    28.785     0.754
                              -4.392     0.754    30.464
                        -----------------------------------
                                  isotropic =     29.205

                        ***********************************
                        -----------------------------------
                        PRINCIPAL AXIS REPRESENTATION

                        ==== Principal components:

                              24.882    28.693    34.039
 
                        ==== Principal Axis System:

                               0.780     0.141    -0.610
                              -0.067     0.987     0.143
                               0.622    -0.071     0.779
                        -----------------------------------
 *******************************************************************************

                             N M R   E X I T
 NORMAL TERMINATION



 =================
 Timing Statistics
 =================
  
 Total Used :                     CPU=      131.66      System=        0.46     Elapsed=      136.27

 Calls  Section                     ( Mean, Percentage )
 ---------------------------------------------------------------------------------------------------
     3  ><      ................      0.00    0.01             0.00    0.26             0.00    0.01
     1  INIT    ................      0.45    0.34             0.02    3.63             0.47    0.34
     1  RDEIGX  ................      0.05    0.04             0.01    2.20             0.06    0.05
     1  AOF1K   ................      3.37    2.56             0.01    2.46             3.57    2.62
    24  AOPKK   ................      0.67   12.25             0.00   23.43             0.70   12.27
    24  XSIGP   ................      0.04    0.79             0.00    3.63             0.05    0.80
    24  AODKKK  ................      4.60   83.87             0.01   63.11             4.75   83.74
    24  XDV     ................      0.01    0.15             0.00    1.28             0.01    0.16
    24  XSIGD   ................      0.00    0.00             0.00    0.00             0.00    0.00
     1  EXIT PROCEDURE .........      0.00    0.00             0.00    0.00             0.00    0.00


 Currently Open Files (EXIT00)
 ====================

 Unit    Access Format  Status   Type       Ident (file)
 -------------------------------------------------------
   3      SEQ    FORM   TRANSP  NORMAL      LOGFILE
                                          ( /home/milias/Work/projects/open-collection/theoretical_chemistry/projects/nmr_diplomovky/reference_compounds/durene/ams/nmr_shieldings/Durene.nmr_shield_blyp_tz2p_cosmo-chcl3.logfile )
