

 Parallel Execution: Process Information
 ==============================================================================
 Rank   Node Name                              NodeID   MyNodeRank  NodeMaster
    0   ubuntu-kch                                0          0          0
    1   ubuntu-kch                                0          1         -1
    2   ubuntu-kch                                0          2         -1
    3   ubuntu-kch                                0          3         -1
 ==============================================================================


May use up to 7570MB of RAM as shared memory on node 0

 *******************************************************************************
 *                                                                             *
 *  --------------------------------                                           *
 *   Amsterdam Modeling Suite (AMS)              2020.202                      *
 *  --------------------------------                                           *
 *                                               r90167 2020-12-05             *
 *                                                                             *
 *                                                                             *
 *                              =================                              *
 *                              |               |                              *
 *                              |     A M S     |                              *
 *                              |               |                              *
 *                              =================                              *
 *                                                                             *
 *                                                                             *
 *   Online information and documentation:  https://www.scm.com/support/       *
 *   E-mail:  support@scm.com   info@scm.com                                   *
 *                                                                             *
 *   Scientific publications using AMS results must be properly referenced     *
 *   See the User Manuals (or the web site) for recommended citations          *
 *   The terms and conditions of the End User License Agreement apply to       *
 *   the use of AMS, https://www.scm.com/license-terms/                        *
 *                                                                             *
 **********************  x86_64_linux_intel / intelmpi  ************************
 
 Licensed to: Dr. Miroslav Ilias / Matej Bel University, Department Chemistry, Fac. Natural Sciences / Banska Bystrica / SLOVAKIA
 SCM User ID: u17848
  
 AMS 2020.202  RunTime: Feb15-2021 19:51:53  Nodes: 1  Procs: 4

 AMS jobname: ams
 AMS jobid  : 1632639600

 Start   directory: /home/milias/work/projects/open-collection/theoretical_chemistry/projects/nmr_diplomovky/reference_compounds/phosphoric_acid/ams/pbe0_tz2p_good/cosmo-toluene/tmp.milias.976409.0.noindex/
 Results directory: /home/milias/work/projects/open-collection/theoretical_chemistry/projects/nmr_diplomovky/reference_compounds/phosphoric_acid/ams/pbe0_tz2p_good/cosmo-toluene/phosporic_acid.geopt_freq_nmrshield_pbe0_tz2p_good_cosmo-toluene.results/
 Scratch directory: /tmp/amstmp_ams_kid0.1632639600/


 Communication costs MPI_COMM_WORLD:      1.358 usec per message,   0.0023 usec per 8-byte item
 Communication costs for intra-node:      0.263 usec per message,   0.0033 usec per 8-byte item

 RNG seed: 741772068 -1434451150 -2960545 1616320525 654439262 -449249912 -1580697745 -1497694042



                        ********************************************************************
                        *  ADF 2020.202  RunTime: Feb15-2021 19:51:53  Nodes: 1  Procs: 4  *
                        ********************************************************************
  
       ***************************
       *  GEOMETRY OPTIMIZATION  *
       ***************************

Optimization Method                    Quasi Newton
Optimization Coordinates               Delocalized Coordinates
Optimize lattice                       F
 
 ------------------------------------------------------
 Convergence criteria (Hartree,Angstrom)
 ------------------------------------------------------
 Maximum gradient               0.001000000000
 Maximum rms gradient           0.000666666667
 Maximum step allowed           0.001000000000
 Maximum rms step allowed       0.000666666667
 Maximum energy change allowe   0.000080000000
 Maximum stress energy allowe   0.000500000000
 
Initial model Hessian                  Automatic Hessian
 
------------------------------------
Quasi-Newton Optimizer Parameters
------------------------------------
Hessian Update Method                  BFGS
Maximum number of steps                  250
First GDIIS cycle                          0
Maximum GDIIS vectors                      0
Trust radius (bohr)                        0.200000
Trust radius varies                        T
Constraints converged at all steps         T
Use projector                              T
 
 Rigid motions settings for: old optimizer
 Atomic rotations (x,y,z):     T T T
 Atomic translations (x,y,z):  T T T
 Tolerance:                   1.000000000000000E-006
 
--------
Geometry
--------
Atoms
  Index Symbol   x (angstrom)   y (angstrom)   z (angstrom)
      1      P    -0.00000000    -0.00000000    -0.16289629       adf.R=1.850
      2      O    -1.37349922    -0.35406788     0.52325653       adf.R=1.517
      3      O     0.99338139    -1.01245127     0.52325653       adf.R=1.517
      4      O     0.38011782     1.36651915     0.52325653       adf.R=1.517
      5      O    -0.00000000    -0.00000000    -1.63218030       adf.R=1.517
      6      H    -2.14207944     0.02017583     0.07510234       adf.R=1.350
      7      H     1.05356694    -1.86518313     0.07510234       adf.R=1.350
      8      H     1.08851251     1.84500730     0.07510234       adf.R=1.350
 
Total System Charge             0.00000
Bonding info available!
 
 
----------------
ADF Engine Input
----------------
 
 Basis
 Type TZ2P
 Core None
 End
 Save TAPE10
 XC
 Hybrid PBE0
 End
 Relativity
 Level None
 End
 Solvation
 Surf Delley
 Solv name=Toluene cav0=0.0 cav1=0.0067639
 Charged method=CONJ
 C-Mat POT
 SCF VAR ALL
 CSMRSP
 End
 NumericalQuality Good
 

 Title: *** (NO TITLE) ***

Number of symmetry operators: 3
Schoenflies symbol:           C(3)
 Using automatic Hessian for delocalized coordinates.
 *** GOStep1 ***

 SOLVATION
-------------------------------------------

  The Delley construction of COSMO surface surface is calculated

       Division Level for Surface Triangles (NDIV)                  3
       Final Division Level for Triangles (NFDIV)                   1
       Radius of the Solvent (RSOL)                           3.48000 angstr
  Dielectric Constant (EPSL)                                  2.38000

       COSMO equation is solved iteratively-               conjugate-gradient

       Maximun of Iterations for Charges (NCIX)                  1000
       Criterion for Charge convergence (CCNV)                1.0E-08

  COSMO charges included variationally in SCF

       COSMO included at every SCF cycle

  Geometry-dependent empirical factor                         0.00000

  C-Matrix calculated in cspmtx

  In cspmtx, C-Matrix calculated using fitted potential

-------------------------------------------



 -------------------------------------------
  COSMO surface
  Area             =          353.654
  Volume           =          532.368
  Number of Points =          942
 -------------------------------------------



 ======================
 RI Hartree-Fock Scheme
 ======================
  
 Fit Set Quality     : GOOD
 Integration Quality : GOOD
 Threshold Quality   : GOOD
 Response Quality    : DEFAULT
 Is Range Separated  :  F
 
 RIHartreeFock Dependency: number of modified vectors:           3
 cosmo_calcen: 0.5 (esolb+esolc) (Hartrees) =   -0.014311

 Solvation energy (screening term,uncorrected) =     -8.980167 kcal/mol

 Solvation energy (dispersion and cavitation terms) =      0.388401 kcal/mol
 Solvation Energy Contributions (Hartrees)
          esola   esolb+esolc
     0.01431081   -0.02862161
 esol last cycle   -0.01431081
  
 Hartree-Fock exchange energy:   -56.8377825991601     
 cosmo_calcen: 0.5 (esolb+esolc) (Hartrees) =   -0.014311

 Solvation energy (screening term,uncorrected) =     -8.980168 kcal/mol

 Solvation energy (dispersion and cavitation terms) =      0.388401 kcal/mol
 Solvation Energy Contributions (Hartrees)
          esola   esolb+esolc
     0.01431081   -0.02862161
 esol last cycle   -0.01431081
  pauli hf:                              1.143669813909392         31.1208           717.66          3002.70
  elstat hf:                            -0.830890366645802        -22.6097          -521.39         -2181.50

 Energy gradients wrt nuclear displacements
 ==========================================

     Atom      Cartesian (a.u./angstrom)
                 X         Y         Z
 ----------------------------------------
     1 P    -0.000055 -0.000012  0.021052
     2 O     0.005014 -0.000524 -0.002871
     3 O    -0.002051  0.004598 -0.002892
     4 O    -0.002941 -0.004082 -0.002850
     5 O     0.000008  0.000004 -0.011817
     6 H    -0.003469  0.001152 -0.000212
     7 H     0.000766 -0.003573 -0.000213
     8 H     0.002727  0.002437 -0.000197
 ----------------------------------------
 Mulliken charges used for AMS results%charges...
 
----------------------------------------------------------------------
Geometry Convergence after Step   1       (Hartree/Angstrom,Angstrom)
----------------------------------------------------------------------
current energy                               -2.25156999 Hartree
energy change                      -2.25156999     0.00008000    F
constrained gradient max            0.02105203     0.00100000    F
constrained gradient rms            0.00549185     0.00066667    F
gradient max                        0.02105203
gradient rms                        0.00549185
cart. step max                      0.00416466     0.00100000    F
cart. step rms                      0.00281874     0.00066667    F
 
 
--------
Geometry
--------
Atoms
  Index Symbol   x (angstrom)   y (angstrom)   z (angstrom)
      1      P    -0.00000000     0.00000000    -0.16449930       adf.R=1.850
      2      O    -1.37360579    -0.35043544     0.52651498       adf.R=1.517
      3      O     0.99028888    -1.01435979     0.52651498       adf.R=1.517
      4      O     0.38331690     1.36479523     0.52651498       adf.R=1.517
      5      O    -0.00000000     0.00000000    -1.62825062       adf.R=1.517
      6      H    -2.13864408     0.01779674     0.07106834       adf.R=1.350
      7      H     1.05390961    -1.86101847     0.07106834       adf.R=1.350
      8      H     1.08473447     1.84322173     0.07106834       adf.R=1.350
 
Total System Charge             0.00000
Bonding info available!
 
 *** GOStep2 ***

 SOLVATION
-------------------------------------------

  The Delley construction of COSMO surface surface is calculated

       Division Level for Surface Triangles (NDIV)                  3
       Final Division Level for Triangles (NFDIV)                   1
       Radius of the Solvent (RSOL)                           3.48000 angstr
  Dielectric Constant (EPSL)                                  2.38000

       COSMO equation is solved iteratively-               conjugate-gradient

       Maximun of Iterations for Charges (NCIX)                  1000
       Criterion for Charge convergence (CCNV)                1.0E-08

  COSMO charges included variationally in SCF

       COSMO included at every SCF cycle

  Geometry-dependent empirical factor                         0.00000

  C-Matrix calculated in cspmtx

  In cspmtx, C-Matrix calculated using fitted potential

-------------------------------------------



 -------------------------------------------
  COSMO surface
  Area             =          353.316
  Volume           =          531.809
  Number of Points =          942
 -------------------------------------------



 ======================
 RI Hartree-Fock Scheme
 ======================
  
 Fit Set Quality     : GOOD
 Integration Quality : GOOD
 Threshold Quality   : GOOD
 Response Quality    : DEFAULT
 Is Range Separated  :  F
 
 RIHartreeFock Dependency: number of modified vectors:           3
 cosmo_calcen: 0.5 (esolb+esolc) (Hartrees) =   -0.014123

 Solvation energy (screening term,uncorrected) =     -8.862561 kcal/mol

 Solvation energy (dispersion and cavitation terms) =      0.388030 kcal/mol
 Solvation Energy Contributions (Hartrees)
          esola   esolb+esolc
     0.01412339   -0.02824678
 esol last cycle   -0.01412339
  
 Hartree-Fock exchange energy:   -56.8430865946997     
 cosmo_calcen: 0.5 (esolb+esolc) (Hartrees) =   -0.014123

 Solvation energy (screening term,uncorrected) =     -8.862561 kcal/mol

 Solvation energy (dispersion and cavitation terms) =      0.388030 kcal/mol
 Solvation Energy Contributions (Hartrees)
          esola   esolb+esolc
     0.01412339   -0.02824678
 esol last cycle   -0.01412339
  pauli hf:                              1.145308642548557         31.1654           718.69          3007.01
  elstat hf:                            -0.832821428184511        -22.6622          -522.60         -2186.57

 Energy gradients wrt nuclear displacements
 ==========================================

     Atom      Cartesian (a.u./angstrom)
                 X         Y         Z
 ----------------------------------------
     1 P    -0.000074 -0.000009  0.003869
     2 O     0.001863  0.000368 -0.002244
     3 O    -0.001239  0.001419 -0.002266
     4 O    -0.000587 -0.001797 -0.002222
     5 O     0.000009  0.000004  0.000320
     6 H    -0.000292  0.000022  0.000844
     7 H     0.000160 -0.000260  0.000844
     8 H     0.000160  0.000253  0.000855
 ----------------------------------------
 Mulliken charges used for AMS results%charges...

 dE(predicted):    -0.78347E-04, dE(actual):    -0.97779E-04, Trust radius:    0.200000, all in a.u.
 
----------------------------------------------------------------------
Geometry Convergence after Step   2       (Hartree/Angstrom,Angstrom)
----------------------------------------------------------------------
current energy                               -2.25166777 Hartree
energy change                      -0.00009778     0.00008000    F
constrained gradient max            0.00386883     0.00100000    F
constrained gradient rms            0.00134352     0.00066667    F
gradient max                        0.00386883
gradient rms                        0.00134352
cart. step max                      0.00597835     0.00100000    F
cart. step rms                      0.00337845     0.00066667    F
 
 
--------
Geometry
--------
Atoms
  Index Symbol   x (angstrom)   y (angstrom)   z (angstrom)
      1      P    -0.00000000    -0.00000000    -0.16231143       adf.R=1.850
      2      O    -1.37551481    -0.34610887     0.53074680       adf.R=1.517
      3      O     0.98749648    -1.01817633     0.53074680       adf.R=1.517
      4      O     0.38801833     1.36428521     0.53074680       adf.R=1.517
      5      O    -0.00000000    -0.00000000    -1.62519890       adf.R=1.517
      6      H    -2.13764936     0.01469679     0.06508998       adf.R=1.350
      7      H     1.05609689    -1.85860705     0.06508998       adf.R=1.350
      8      H     1.08155248     1.84391026     0.06508998       adf.R=1.350
 
Total System Charge             0.00000
Bonding info available!
 
 *** GOStep3 ***

 SOLVATION
-------------------------------------------

  The Delley construction of COSMO surface surface is calculated

       Division Level for Surface Triangles (NDIV)                  3
       Final Division Level for Triangles (NFDIV)                   1
       Radius of the Solvent (RSOL)                           3.48000 angstr
  Dielectric Constant (EPSL)                                  2.38000

       COSMO equation is solved iteratively-               conjugate-gradient

       Maximun of Iterations for Charges (NCIX)                  1000
       Criterion for Charge convergence (CCNV)                1.0E-08

  COSMO charges included variationally in SCF

       COSMO included at every SCF cycle

  Geometry-dependent empirical factor                         0.00000

  C-Matrix calculated in cspmtx

  In cspmtx, C-Matrix calculated using fitted potential

-------------------------------------------



 -------------------------------------------
  COSMO surface
  Area             =          353.284
  Volume           =          531.804
  Number of Points =          940
 -------------------------------------------



 ======================
 RI Hartree-Fock Scheme
 ======================
  
 Fit Set Quality     : GOOD
 Integration Quality : GOOD
 Threshold Quality   : GOOD
 Response Quality    : DEFAULT
 Is Range Separated  :  F
 
 RIHartreeFock Dependency: number of modified vectors:           3
 cosmo_calcen: 0.5 (esolb+esolc) (Hartrees) =   -0.014028

 Solvation energy (screening term,uncorrected) =     -8.802471 kcal/mol

 Solvation energy (dispersion and cavitation terms) =      0.387995 kcal/mol
 Solvation Energy Contributions (Hartrees)
          esola   esolb+esolc
     0.01402763   -0.02805526
 esol last cycle   -0.01402763
  
 Hartree-Fock exchange energy:   -56.8414656815035     
 cosmo_calcen: 0.5 (esolb+esolc) (Hartrees) =   -0.014028

 Solvation energy (screening term,uncorrected) =     -8.802471 kcal/mol

 Solvation energy (dispersion and cavitation terms) =      0.387995 kcal/mol
 Solvation Energy Contributions (Hartrees)
          esola   esolb+esolc
     0.01402763   -0.02805526
 esol last cycle   -0.01402763
  pauli hf:                              1.147236018566316         31.2179           719.90          3012.07
  elstat hf:                            -0.832072274321956        -22.6418          -522.13         -2184.61

 Energy gradients wrt nuclear displacements
 ==========================================

     Atom      Cartesian (a.u./angstrom)
                 X         Y         Z
 ----------------------------------------
     1 P    -0.000089 -0.000019 -0.001722
     2 O    -0.000185  0.000139 -0.000880
     3 O    -0.000010 -0.000235 -0.000907
     4 O     0.000238  0.000094 -0.000848
     5 O     0.000009  0.000006  0.001988
     6 H     0.000445 -0.000172  0.000789
     7 H    -0.000037  0.000472  0.000789
     8 H    -0.000372 -0.000285  0.000792
 ----------------------------------------
 Mulliken charges used for AMS results%charges...

 dE(predicted):    -0.20582E-04, dE(actual):    -0.33122E-04, Trust radius:    0.200000, all in a.u.
 
----------------------------------------------------------------------
Geometry Convergence after Step   3       (Hartree/Angstrom,Angstrom)
----------------------------------------------------------------------
current energy                               -2.25170089 Hartree
energy change                      -0.00003312     0.00008000    T
constrained gradient max            0.00198805     0.00100000    F
constrained gradient rms            0.00070542     0.00066667    F
gradient max                        0.00198805
gradient rms                        0.00070542
cart. step max                      0.00756808     0.00100000    F
cart. step rms                      0.00417551     0.00066667    F
 
 
--------
Geometry
--------
Atoms
  Index Symbol   x (angstrom)   y (angstrom)   z (angstrom)
      1      P    -0.00000000    -0.00000000    -0.15784653       adf.R=1.850
      2      O    -1.37777440    -0.34082555     0.53544238       adf.R=1.517
      3      O     0.98405078    -1.02277486     0.53544238       adf.R=1.517
      4      O     0.39372362     1.36360041     0.53544238       adf.R=1.517
      5      O    -0.00000000    -0.00000000    -1.62104633       adf.R=1.517
      6      H    -2.13692442     0.01092629     0.05752191       adf.R=1.350
      7      H     1.05899976    -1.85609398     0.05752191       adf.R=1.350
      8      H     1.07792466     1.84516769     0.05752191       adf.R=1.350
 
Total System Charge             0.00000
Bonding info available!
 
 *** GOStep4 ***

 SOLVATION
-------------------------------------------

  The Delley construction of COSMO surface surface is calculated

       Division Level for Surface Triangles (NDIV)                  3
       Final Division Level for Triangles (NFDIV)                   1
       Radius of the Solvent (RSOL)                           3.48000 angstr
  Dielectric Constant (EPSL)                                  2.38000

       COSMO equation is solved iteratively-               conjugate-gradient

       Maximun of Iterations for Charges (NCIX)                  1000
       Criterion for Charge convergence (CCNV)                1.0E-08

  COSMO charges included variationally in SCF

       COSMO included at every SCF cycle

  Geometry-dependent empirical factor                         0.00000

  C-Matrix calculated in cspmtx

  In cspmtx, C-Matrix calculated using fitted potential

-------------------------------------------



 -------------------------------------------
  COSMO surface
  Area             =          353.657
  Volume           =          532.393
  Number of Points =          942
 -------------------------------------------



 ======================
 RI Hartree-Fock Scheme
 ======================
  
 Fit Set Quality     : GOOD
 Integration Quality : GOOD
 Threshold Quality   : GOOD
 Response Quality    : DEFAULT
 Is Range Separated  :  F
 
 RIHartreeFock Dependency: number of modified vectors:           3
 cosmo_calcen: 0.5 (esolb+esolc) (Hartrees) =   -0.013963

 Solvation energy (screening term,uncorrected) =     -8.761961 kcal/mol

 Solvation energy (dispersion and cavitation terms) =      0.388404 kcal/mol
 Solvation Energy Contributions (Hartrees)
          esola   esolb+esolc
     0.01396307   -0.02792614
 esol last cycle   -0.01396307
  
 Hartree-Fock exchange energy:   -56.8392834664877     
 cosmo_calcen: 0.5 (esolb+esolc) (Hartrees) =   -0.013963

 Solvation energy (screening term,uncorrected) =     -8.761961 kcal/mol

 Solvation energy (dispersion and cavitation terms) =      0.388404 kcal/mol
 Solvation Energy Contributions (Hartrees)
          esola   esolb+esolc
     0.01396307   -0.02792615
 esol last cycle   -0.01396307
  pauli hf:                              1.148834329416923         31.2614           720.90          3016.26
  elstat hf:                            -0.831250977610072        -22.6195          -521.62         -2182.45

 Energy gradients wrt nuclear displacements
 ==========================================

     Atom      Cartesian (a.u./angstrom)
                 X         Y         Z
 ----------------------------------------
     1 P    -0.000094 -0.000031 -0.002831
     2 O    -0.000873 -0.000255  0.000297
     3 O     0.000663 -0.000633  0.000276
     4 O     0.000236  0.000885  0.000313
     5 O     0.000008  0.000008  0.001227
     6 H     0.000333 -0.000028  0.000231
     7 H    -0.000092  0.000304  0.000235
     8 H    -0.000181 -0.000250  0.000252
 ----------------------------------------
 Mulliken charges used for AMS results%charges...

 dE(predicted):    -0.11742E-04, dE(actual):    -0.19530E-04, Trust radius:    0.200000, all in a.u.
 
----------------------------------------------------------------------
Geometry Convergence after Step   4       (Hartree/Angstrom,Angstrom)
----------------------------------------------------------------------
current energy                               -2.25172042 Hartree
energy change                      -0.00001953     0.00008000    T
constrained gradient max            0.00283108     0.00100000    F
constrained gradient rms            0.00072911     0.00066667    F
gradient max                        0.00283108
gradient rms                        0.00072911
cart. step max                      0.00332280     0.00100000    F
cart. step rms                      0.00187795     0.00066667    F
 
 
--------
Geometry
--------
Atoms
  Index Symbol   x (angstrom)   y (angstrom)   z (angstrom)
      1      P    -0.00000000    -0.00000000    -0.15529725       adf.R=1.850
      2      O    -1.37858657    -0.33826806     0.53722450       adf.R=1.517
      3      O     0.98224201    -1.02475696     0.53722450       adf.R=1.517
      4      O     0.39634455     1.36302502     0.53722450       adf.R=1.517
      5      O    -0.00000000    -0.00000000    -1.61897352       adf.R=1.517
      6      H    -2.13674658     0.00914691     0.05419910       adf.R=1.350
      7      H     1.06045183    -1.85505028     0.05419910       adf.R=1.350
      8      H     1.07629475     1.84590336     0.05419910       adf.R=1.350
 
Total System Charge             0.00000
Bonding info available!
 
 *** GOStep5 ***

 SOLVATION
-------------------------------------------

  The Delley construction of COSMO surface surface is calculated

       Division Level for Surface Triangles (NDIV)                  3
       Final Division Level for Triangles (NFDIV)                   1
       Radius of the Solvent (RSOL)                           3.48000 angstr
  Dielectric Constant (EPSL)                                  2.38000

       COSMO equation is solved iteratively-               conjugate-gradient

       Maximun of Iterations for Charges (NCIX)                  1000
       Criterion for Charge convergence (CCNV)                1.0E-08

  COSMO charges included variationally in SCF

       COSMO included at every SCF cycle

  Geometry-dependent empirical factor                         0.00000

  C-Matrix calculated in cspmtx

  In cspmtx, C-Matrix calculated using fitted potential

-------------------------------------------



 -------------------------------------------
  COSMO surface
  Area             =          353.642
  Volume           =          532.366
  Number of Points =          940
 -------------------------------------------



 ======================
 RI Hartree-Fock Scheme
 ======================
  
 Fit Set Quality     : GOOD
 Integration Quality : GOOD
 Threshold Quality   : GOOD
 Response Quality    : DEFAULT
 Is Range Separated  :  F
 
 RIHartreeFock Dependency: number of modified vectors:           3
 cosmo_calcen: 0.5 (esolb+esolc) (Hartrees) =   -0.013953

 Solvation energy (screening term,uncorrected) =     -8.755943 kcal/mol

 Solvation energy (dispersion and cavitation terms) =      0.388388 kcal/mol
 Solvation Energy Contributions (Hartrees)
          esola   esolb+esolc
     0.01395348   -0.02790696
 esol last cycle   -0.01395348
  
 Hartree-Fock exchange energy:   -56.8390005652690     
 cosmo_calcen: 0.5 (esolb+esolc) (Hartrees) =   -0.013953

 Solvation energy (screening term,uncorrected) =     -8.755943 kcal/mol

 Solvation energy (dispersion and cavitation terms) =      0.388388 kcal/mol
 Solvation Energy Contributions (Hartrees)
          esola   esolb+esolc
     0.01395348   -0.02790696
 esol last cycle   -0.01395348
  pauli hf:                              1.149026167159287         31.2666           721.02          3016.77
  elstat hf:                            -0.831224817480717        -22.6188          -521.60         -2182.38

 Energy gradients wrt nuclear displacements
 ==========================================

     Atom      Cartesian (a.u./angstrom)
                 X         Y         Z
 ----------------------------------------
     1 P    -0.000100 -0.000039 -0.001286
     2 O    -0.000461 -0.000284  0.000366
     3 O     0.000485 -0.000260  0.000347
     4 O     0.000002  0.000546  0.000383
     5 O     0.000009  0.000009  0.000283
     6 H     0.000104  0.000059 -0.000040
     7 H    -0.000049  0.000062 -0.000034
     8 H     0.000010 -0.000092 -0.000020
 ----------------------------------------
 Mulliken charges used for AMS results%charges...

 dE(predicted):    -0.24375E-05, dE(actual):    -0.57714E-05, Trust radius:    0.200000, all in a.u.
 
----------------------------------------------------------------------
Geometry Convergence after Step   5       (Hartree/Angstrom,Angstrom)
----------------------------------------------------------------------
current energy                               -2.25172619 Hartree
energy change                      -0.00000577     0.00008000    T
constrained gradient max            0.00128607     0.00100000    F
constrained gradient rms            0.00035644     0.00066667    T
gradient max                        0.00128607
gradient rms                        0.00035644
cart. step max                      0.00148775     0.00100000    F
cart. step rms                      0.00091667     0.00066667    F
 
 
--------
Geometry
--------
Atoms
  Index Symbol   x (angstrom)   y (angstrom)   z (angstrom)
      1      P    -0.00000000     0.00000000    -0.15405099       adf.R=1.850
      2      O    -1.37885511    -0.33678031     0.53791392       adf.R=1.517
      3      O     0.98108785    -1.02573340     0.53791392       adf.R=1.517
      4      O     0.39776725     1.36251370     0.53791392       adf.R=1.517
      5      O    -0.00000000     0.00000000    -1.61795531       adf.R=1.517
      6      H    -2.13683725     0.00814492     0.05275485       adf.R=1.350
      7      H     1.06136491    -1.85462780     0.05275485       adf.R=1.350
      8      H     1.07547233     1.84648288     0.05275485       adf.R=1.350
 
Total System Charge             0.00000
Bonding info available!
 
 *** GOStep6 ***

 SOLVATION
-------------------------------------------

  The Delley construction of COSMO surface surface is calculated

       Division Level for Surface Triangles (NDIV)                  3
       Final Division Level for Triangles (NFDIV)                   1
       Radius of the Solvent (RSOL)                           3.48000 angstr
  Dielectric Constant (EPSL)                                  2.38000

       COSMO equation is solved iteratively-               conjugate-gradient

       Maximun of Iterations for Charges (NCIX)                  1000
       Criterion for Charge convergence (CCNV)                1.0E-08

  COSMO charges included variationally in SCF

       COSMO included at every SCF cycle

  Geometry-dependent empirical factor                         0.00000

  C-Matrix calculated in cspmtx

  In cspmtx, C-Matrix calculated using fitted potential

-------------------------------------------



 -------------------------------------------
  COSMO surface
  Area             =          353.607
  Volume           =          532.292
  Number of Points =          938
 -------------------------------------------



 ======================
 RI Hartree-Fock Scheme
 ======================
  
 Fit Set Quality     : GOOD
 Integration Quality : GOOD
 Threshold Quality   : GOOD
 Response Quality    : DEFAULT
 Is Range Separated  :  F
 
 RIHartreeFock Dependency: number of modified vectors:           3
 cosmo_calcen: 0.5 (esolb+esolc) (Hartrees) =   -0.013955

 Solvation energy (screening term,uncorrected) =     -8.756969 kcal/mol

 Solvation energy (dispersion and cavitation terms) =      0.388350 kcal/mol
 Solvation Energy Contributions (Hartrees)
          esola   esolb+esolc
     0.01395512   -0.02791023
 esol last cycle   -0.01395512
  
 Hartree-Fock exchange energy:   -56.8393820483672     
 cosmo_calcen: 0.5 (esolb+esolc) (Hartrees) =   -0.013955

 Solvation energy (screening term,uncorrected) =     -8.756969 kcal/mol

 Solvation energy (dispersion and cavitation terms) =      0.388350 kcal/mol
 Solvation Energy Contributions (Hartrees)
          esola   esolb+esolc
     0.01395512   -0.02791023
 esol last cycle   -0.01395512
  pauli hf:                              1.148825165196106         31.2611           720.90          3016.24
  elstat hf:                            -0.831422684962760        -22.6242          -521.73         -2182.90

 Energy gradients wrt nuclear displacements
 ==========================================

     Atom      Cartesian (a.u./angstrom)
                 X         Y         Z
 ----------------------------------------
     1 P    -0.000103 -0.000043 -0.000086
     2 O    -0.000047 -0.000163  0.000154
     3 O     0.000174  0.000037  0.000136
     4 O    -0.000099  0.000128  0.000173
     5 O     0.000009  0.000010 -0.000108
     6 H     0.000006  0.000047 -0.000099
     7 H     0.000011 -0.000016 -0.000092
     8 H     0.000048 -0.000001 -0.000080
 ----------------------------------------
 Mulliken charges used for AMS results%charges...

 dE(predicted):    -0.72602E-06, dE(actual):    -0.20174E-05, Trust radius:    0.200000, all in a.u.
 
---------------------------------------------------------
Geometry Convergence after Step   6       ** CONVERGED **
---------------------------------------------------------
current energy                               -2.25172821 Hartree
energy change                      -0.00000202     0.00008000    T
constrained gradient max            0.00015466     0.00100000    T
constrained gradient rms            0.00009022     0.00066667    T
gradient max                        0.00015466
gradient rms                        0.00009022
cart. step max                      0.00038415     0.00100000    T
cart. step rms                      0.00017637     0.00066667    T
 
Geometry optimization converged

Optimized geometry:
 
--------
Geometry
--------
Atoms
  Index Symbol   x (angstrom)   y (angstrom)   z (angstrom)
      1      P    -0.00000000     0.00000000    -0.15405099       adf.R=1.850
      2      O    -1.37885511    -0.33678031     0.53791392       adf.R=1.517
      3      O     0.98108785    -1.02573340     0.53791392       adf.R=1.517
      4      O     0.39776725     1.36251370     0.53791392       adf.R=1.517
      5      O    -0.00000000     0.00000000    -1.61795531       adf.R=1.517
      6      H    -2.13683725     0.00814492     0.05275485       adf.R=1.350
      7      H     1.06136491    -1.85462780     0.05275485       adf.R=1.350
      8      H     1.07547233     1.84648288     0.05275485       adf.R=1.350
 
Total System Charge             0.00000
Bonding info available!
 
Performing a single point calculation on the final geometry ...

 *** adf ***



 ===========================
 A T T A C H E D   F I L E S
 ===========================
  
 Restart/tmp/amstmp_ams_kid0.1632639600/GOStep6.rkf*** GOStep6 ***



 ===============================
 M O D E L   P A R A M E T E R S
 ===============================
  
 DENSITY FUNCTIONAL POTENTIAL (scf)
    Hybrid:                            PBE0                                    == Not Default ==

 SPIN  (restricted / unrestr.)
    Molecule:                          Restricted                               
    Fragments:                         Restricted                               

 OTHER ASPECTS
    Relativistic Corrections:          ---                                     == Not Default ==

    Nuclear Charge Density Model:      Point Charge Nuclei                      
    Core Treatment:                    Frozen Orbital(s)                        

    Hyperfine or Zeeman Interaction:   ---                                      

 SOLVATION
-------------------------------------------

  The Delley construction of COSMO surface surface is calculated

       Division Level for Surface Triangles (NDIV)                  3
       Final Division Level for Triangles (NFDIV)                   1
       Radius of the Solvent (RSOL)                           3.48000 angstr
  Dielectric Constant (EPSL)                                  2.38000

       COSMO equation is solved iteratively-               conjugate-gradient

       Maximun of Iterations for Charges (NCIX)                  1000
       Criterion for Charge convergence (CCNV)                1.0E-08

  COSMO charges included variationally in SCF

       COSMO included at every SCF cycle

  Geometry-dependent empirical factor                         0.00000

  C-Matrix calculated in cspmtx

  In cspmtx, C-Matrix calculated using fitted potential

-------------------------------------------




 ===============
 G E O M E T R Y  ***  3D  Molecule  ***
 ===============
  

 ATOMS
 =====                            X Y Z                    CHARGE                     RADIUS
                                (Angstrom)             Nucl     +Core       At.Mass (Angstrom)
                       --------------------------    ----------------       ------- ----------
    1  P              -0.0000    0.0000   -0.1541     15.00     15.00       30.9738    1.8500
    2  O              -1.3789   -0.3368    0.5379      8.00      8.00       15.9949    1.5170
    3  O               0.9811   -1.0257    0.5379      8.00      8.00       15.9949    1.5170
    4  O               0.3978    1.3625    0.5379      8.00      8.00       15.9949    1.5170
    5  O              -0.0000    0.0000   -1.6180      8.00      8.00       15.9949    1.5170
    6  H              -2.1368    0.0081    0.0528      1.00      1.00        1.0078    1.3500
    7  H               1.0614   -1.8546    0.0528      1.00      1.00        1.0078    1.3500
    8  H               1.0755    1.8465    0.0528      1.00      1.00        1.0078    1.3500


 FRAGMENTS
 =========                                     Atoms in this Fragment     Cart. coord.s (Angstrom)
                                               -------------------------------------------------------
    1  P                                                 1  P           -0.0000    0.0000   -0.1541
    2  O                                                 2  O           -1.3789   -0.3368    0.5379
    3  O                                                 3  O            0.9811   -1.0257    0.5379
    4  O                                                 4  O            0.3978    1.3625    0.5379
    5  O                                                 5  O           -0.0000    0.0000   -1.6180
    6  H                                                 6  H           -2.1368    0.0081    0.0528
    7  H                                                 7  H            1.0614   -1.8546    0.0528
    8  H                                                 8  H            1.0755    1.8465    0.0528


 Interatomic Distance Matrix (Angstrom)
 --------------------------------------

   1)     0.000
   2)     1.579   0.000
   3)     1.579   2.458   0.000
   4)     1.579   2.458   2.458   0.000
   5)     1.464   2.581   2.581   2.581   0.000
   6)     2.147   0.964   3.321   2.914   2.712   0.000
   7)     2.147   2.914   0.964   3.321   2.712   3.701   0.000
   8)     2.147   3.321   2.914   0.964   2.712   3.701   3.701   0.000

 Min. Distance =    0.9638
 Max. Distance =    3.7011



 =====================================
 S Y M M E T R Y ,   E L E C T R O N S
 =====================================
  
 Symmetry: NOSYM

 Irreducible Representations, including subspecies
 -------------------------------------------------
 A

 Symmetry is NOT used when fitting density


 Configuration of Valence Electrons
 ==================================
 ( determined in the SCF procedure )

 Total:   50

 Net Charge: 0 (Nuclei minus Electrons)

 Aufbau principle for MO occupations will be applied through SCF cycle no.     150
 Thereafter, the program will assign electrons to MOs that are spatially
 similar to the occupied MOs in a "reference" cycle ("KeepOrbitals").
 The reference cycle is always the PREVIOUS cycle: it will evolve with
 the SCF procedure.
1
 ***************************************************************************************************



                                      ****************************************
                                      *  B U I L D : (Fragments, Functions)  *
                                      ****************************************
  



 =======
 S F O s  ***  (Symmetrized Fragment Orbitals)  ***
 =======
  
 SFOs are linear combinations of (valence) Fragment Orbitals (FOs), such that the SFOs transform as the
 irreducible representations of the (molecular) symmetry group. Each SFO is therefore characterized by
 an irrep of the molecule and by a few (or only one) generating FOs.
 The SFOs constitute a symmetry-adapted basis for the Fock matrix. The MO eigenvector coefficients in
 this basis provide a direct interpretation of the MOs in terms of Frontier Orbital Theory.

 The SFOs are combined with auxiliary Core Functions (CFs) to ensure orthogonalization on the (frozen)
 Core Orbitals (COs). The Core-orthogonalized SFOs (CSFOs) constitute the true Fock basis.

 The FOs, and hence also the (C)SFOs are combinations of the elementary basis functions (BAS). The basis
 functions that participate in the description of the SFOs depend on the irrep. The indices of the
 involved functions are printed below for each irrep.
 (The complete list of primitive basis functions is printed in another section)

 Total nr. of (C)SFOs (summation over all irreps) :   171

 NOTE: a (C)SFO that is defined as a combination of more than one FO is usually NOT normalized.



                                       === A ===
 Nr. of SFOs :  171
 Cartesian basis functions that participate in this irrep (total number =   194) :
      1     2     3     4    11    12    13     5     8    14
     17    20     6     9    15    18    21     7    10    16
     19    22    23    24    25    26    27    28    29    30
     31    32    33    34    35    36    37    38    39    40
     41    42    43    44    47    50    45    48    51    46
     49    52    53    54    55    56    57    58    59    60
     61    62    63    64    65    66    67    68    69    70
     71    72    73    74    77    80    75    78    81    76
     79    82    83    84    85    86    87    88    89    90
     91    92    93    94    95    96    97    98    99   100
    101   102   103   104   107   110   105   108   111   106
    109   112   113   114   115   116   117   118   119   120
    121   122   123   124   125   126   127   128   129   130
    131   132   133   134   137   140   135   138   141   136
    139   142   143   144   145   146   147   148   149   150
    151   152   153   154   155   156   157   158   159   160
    161   162   163   164   165   166   167   168   169   170
    171   172   173   174   175   176   177   178   179   180
    181   182   183   184   185   186   187   188   189   190
    191   192   193   194

    SFO  (index         Fragment          Generating    Expansion in Fragment Orbitals
  indx  incl.CFs)   Occup   Orb.Energy   FragmentType  Coeff.   Orbital     on Fragment
 --------------------------------------------------------------------------------------
     1       1      2.000     -77.285 au  P             1.00      1 S               1
                        (   -2103.045 eV)
     2       2      2.000      -6.676 au  P             1.00      2 S               1
                        (    -181.657 eV)
     3       3      2.000      -0.577 au  P             1.00      3 S               1
                        (     -15.702 eV)
     4       4       --         0.141 au  P             1.00      4 S               1
                        (       3.844 eV)
     5       5       --         1.386 au  P             1.00      5 S               1
                        (      37.721 eV)
     6       6       --         9.539 au  P             1.00      6 S               1
                        (     259.574 eV)
     7       7       --       165.272 au  P             1.00      7 S               1
                        (    4497.267 eV)
     8       8      2.000      -4.807 au  P             1.00      1 P:x             1
                        (    -130.803 eV)
     9       9      1.000      -0.208 au  P             1.00      2 P:x             1
                        (      -5.669 eV)
    10      10       --         0.107 au  P             1.00      3 P:x             1
                        (       2.910 eV)
    11      11       --         0.924 au  P             1.00      4 P:x             1
                        (      25.147 eV)
    12      12       --        10.562 au  P             1.00      5 P:x             1
                        (     287.399 eV)
    13      13      2.000      -4.807 au  P             1.00      1 P:y             1
                        (    -130.803 eV)
    14      14      1.000      -0.208 au  P             1.00      2 P:y             1
                        (      -5.669 eV)
    15      15       --         0.107 au  P             1.00      3 P:y             1
                        (       2.910 eV)
    16      16       --         0.924 au  P             1.00      4 P:y             1
                        (      25.147 eV)
    17      17       --        10.562 au  P             1.00      5 P:y             1
                        (     287.399 eV)
    18      18      2.000      -4.807 au  P             1.00      1 P:z             1
                        (    -130.803 eV)
    19      19      1.000      -0.208 au  P             1.00      2 P:z             1
                        (      -5.669 eV)
    20      20       --         0.107 au  P             1.00      3 P:z             1
                        (       2.910 eV)
    21      21       --         0.924 au  P             1.00      4 P:z             1
                        (      25.147 eV)
    22      22       --        10.562 au  P             1.00      5 P:z             1
                        (     287.399 eV)
    23      23       --         0.439 au  P             1.00      1 D:z2            1
                        (      11.944 eV)
    24      24       --         0.439 au  P             1.00      1 D:x2-y2         1
                        (      11.944 eV)
    25      25       --         0.439 au  P             1.00      1 D:xy            1
                        (      11.944 eV)
    26      26       --         0.439 au  P             1.00      1 D:xz            1
                        (      11.944 eV)
    27      27       --         0.439 au  P             1.00      1 D:yz            1
                        (      11.944 eV)
    28      28       --         1.211 au  P             1.00      1 F:z3            1
                        (      32.944 eV)
    29      29       --         1.211 au  P             1.00      1 F:z             1
                        (      32.944 eV)
    30      30       --         1.211 au  P             1.00      1 F:xyz           1
                        (      32.944 eV)
    31      31       --         1.211 au  P             1.00      1 F:z2x           1
                        (      32.944 eV)
    32      32       --         1.211 au  P             1.00      1 F:z2y           1
                        (      32.944 eV)
    33      33       --         1.211 au  P             1.00      1 F:x             1
                        (      32.944 eV)
    34      34       --         1.211 au  P             1.00      1 F:y             1
                        (      32.944 eV)
    35      35      2.000     -19.382 au  O             1.00      1 S               2
                        (    -527.413 eV)
    36      36      2.000      -0.998 au  O             1.00      2 S               2
                        (     -27.149 eV)
    37      37       --         0.858 au  O             1.00      3 S               2
                        (      23.351 eV)
    38      38       --        13.707 au  O             1.00      4 S               2
                        (     372.994 eV)
    39      39       --       123.922 au  O             1.00      5 S               2
                        (    3372.077 eV)
    40      40      1.333      -0.366 au  O             1.00      1 P:x             2
                        (      -9.963 eV)
    41      41       --         0.397 au  O             1.00      2 P:x             2
                        (      10.809 eV)
    42      42       --         3.984 au  O             1.00      3 P:x             2
                        (     108.415 eV)
    43      43      1.333      -0.366 au  O             1.00      1 P:y             2
                        (      -9.963 eV)
    44      44       --         0.397 au  O             1.00      2 P:y             2
                        (      10.809 eV)
    45      45       --         3.984 au  O             1.00      3 P:y             2
                        (     108.415 eV)
    46      46      1.333      -0.366 au  O             1.00      1 P:z             2
                        (      -9.963 eV)
    47      47       --         0.397 au  O             1.00      2 P:z             2
                        (      10.809 eV)
    48      48       --         3.984 au  O             1.00      3 P:z             2
                        (     108.415 eV)
    49      49       --         1.128 au  O             1.00      1 D:z2            2
                        (      30.700 eV)
    50      50       --         1.128 au  O             1.00      1 D:x2-y2         2
                        (      30.700 eV)
    51      51       --         1.128 au  O             1.00      1 D:xy            2
                        (      30.700 eV)
    52      52       --         1.128 au  O             1.00      1 D:xz            2
                        (      30.700 eV)
    53      53       --         1.128 au  O             1.00      1 D:yz            2
                        (      30.700 eV)
    54      54       --         3.446 au  O             1.00      1 F:z3            2
                        (      93.778 eV)
    55      55       --         3.446 au  O             1.00      1 F:z             2
                        (      93.778 eV)
    56      56       --         3.446 au  O             1.00      1 F:xyz           2
                        (      93.778 eV)
    57      57       --         3.446 au  O             1.00      1 F:z2x           2
                        (      93.778 eV)
    58      58       --         3.446 au  O             1.00      1 F:z2y           2
                        (      93.778 eV)
    59      59       --         3.446 au  O             1.00      1 F:x             2
                        (      93.778 eV)
    60      60       --         3.446 au  O             1.00      1 F:y             2
                        (      93.778 eV)
    61      61      2.000     -19.382 au  O             1.00      1 S               3
                        (    -527.413 eV)
    62      62      2.000      -0.998 au  O             1.00      2 S               3
                        (     -27.149 eV)
    63      63       --         0.858 au  O             1.00      3 S               3
                        (      23.351 eV)
    64      64       --        13.707 au  O             1.00      4 S               3
                        (     372.994 eV)
    65      65       --       123.922 au  O             1.00      5 S               3
                        (    3372.077 eV)
    66      66      1.333      -0.366 au  O             1.00      1 P:x             3
                        (      -9.963 eV)
    67      67       --         0.397 au  O             1.00      2 P:x             3
                        (      10.809 eV)
    68      68       --         3.984 au  O             1.00      3 P:x             3
                        (     108.415 eV)
    69      69      1.333      -0.366 au  O             1.00      1 P:y             3
                        (      -9.963 eV)
    70      70       --         0.397 au  O             1.00      2 P:y             3
                        (      10.809 eV)
    71      71       --         3.984 au  O             1.00      3 P:y             3
                        (     108.415 eV)
    72      72      1.333      -0.366 au  O             1.00      1 P:z             3
                        (      -9.963 eV)
    73      73       --         0.397 au  O             1.00      2 P:z             3
                        (      10.809 eV)
    74      74       --         3.984 au  O             1.00      3 P:z             3
                        (     108.415 eV)
    75      75       --         1.128 au  O             1.00      1 D:z2            3
                        (      30.700 eV)
    76      76       --         1.128 au  O             1.00      1 D:x2-y2         3
                        (      30.700 eV)
    77      77       --         1.128 au  O             1.00      1 D:xy            3
                        (      30.700 eV)
    78      78       --         1.128 au  O             1.00      1 D:xz            3
                        (      30.700 eV)
    79      79       --         1.128 au  O             1.00      1 D:yz            3
                        (      30.700 eV)
    80      80       --         3.446 au  O             1.00      1 F:z3            3
                        (      93.778 eV)
    81      81       --         3.446 au  O             1.00      1 F:z             3
                        (      93.778 eV)
    82      82       --         3.446 au  O             1.00      1 F:xyz           3
                        (      93.778 eV)
    83      83       --         3.446 au  O             1.00      1 F:z2x           3
                        (      93.778 eV)
    84      84       --         3.446 au  O             1.00      1 F:z2y           3
                        (      93.778 eV)
    85      85       --         3.446 au  O             1.00      1 F:x             3
                        (      93.778 eV)
    86      86       --         3.446 au  O             1.00      1 F:y             3
                        (      93.778 eV)
    87      87      2.000     -19.382 au  O             1.00      1 S               4
                        (    -527.413 eV)
    88      88      2.000      -0.998 au  O             1.00      2 S               4
                        (     -27.149 eV)
    89      89       --         0.858 au  O             1.00      3 S               4
                        (      23.351 eV)
    90      90       --        13.707 au  O             1.00      4 S               4
                        (     372.994 eV)
    91      91       --       123.922 au  O             1.00      5 S               4
                        (    3372.077 eV)
    92      92      1.333      -0.366 au  O             1.00      1 P:x             4
                        (      -9.963 eV)
    93      93       --         0.397 au  O             1.00      2 P:x             4
                        (      10.809 eV)
    94      94       --         3.984 au  O             1.00      3 P:x             4
                        (     108.415 eV)
    95      95      1.333      -0.366 au  O             1.00      1 P:y             4
                        (      -9.963 eV)
    96      96       --         0.397 au  O             1.00      2 P:y             4
                        (      10.809 eV)
    97      97       --         3.984 au  O             1.00      3 P:y             4
                        (     108.415 eV)
    98      98      1.333      -0.366 au  O             1.00      1 P:z             4
                        (      -9.963 eV)
    99      99       --         0.397 au  O             1.00      2 P:z             4
                        (      10.809 eV)
   100     100       --         3.984 au  O             1.00      3 P:z             4
                        (     108.415 eV)
   101     101       --         1.128 au  O             1.00      1 D:z2            4
                        (      30.700 eV)
   102     102       --         1.128 au  O             1.00      1 D:x2-y2         4
                        (      30.700 eV)
   103     103       --         1.128 au  O             1.00      1 D:xy            4
                        (      30.700 eV)
   104     104       --         1.128 au  O             1.00      1 D:xz            4
                        (      30.700 eV)
   105     105       --         1.128 au  O             1.00      1 D:yz            4
                        (      30.700 eV)
   106     106       --         3.446 au  O             1.00      1 F:z3            4
                        (      93.778 eV)
   107     107       --         3.446 au  O             1.00      1 F:z             4
                        (      93.778 eV)
   108     108       --         3.446 au  O             1.00      1 F:xyz           4
                        (      93.778 eV)
   109     109       --         3.446 au  O             1.00      1 F:z2x           4
                        (      93.778 eV)
   110     110       --         3.446 au  O             1.00      1 F:z2y           4
                        (      93.778 eV)
   111     111       --         3.446 au  O             1.00      1 F:x             4
                        (      93.778 eV)
   112     112       --         3.446 au  O             1.00      1 F:y             4
                        (      93.778 eV)
   113     113      2.000     -19.382 au  O             1.00      1 S               5
                        (    -527.413 eV)
   114     114      2.000      -0.998 au  O             1.00      2 S               5
                        (     -27.149 eV)
   115     115       --         0.858 au  O             1.00      3 S               5
                        (      23.351 eV)
   116     116       --        13.707 au  O             1.00      4 S               5
                        (     372.994 eV)
   117     117       --       123.922 au  O             1.00      5 S               5
                        (    3372.077 eV)
   118     118      1.333      -0.366 au  O             1.00      1 P:x             5
                        (      -9.963 eV)
   119     119       --         0.397 au  O             1.00      2 P:x             5
                        (      10.809 eV)
   120     120       --         3.984 au  O             1.00      3 P:x             5
                        (     108.415 eV)
   121     121      1.333      -0.366 au  O             1.00      1 P:y             5
                        (      -9.963 eV)
   122     122       --         0.397 au  O             1.00      2 P:y             5
                        (      10.809 eV)
   123     123       --         3.984 au  O             1.00      3 P:y             5
                        (     108.415 eV)
   124     124      1.333      -0.366 au  O             1.00      1 P:z             5
                        (      -9.963 eV)
   125     125       --         0.397 au  O             1.00      2 P:z             5
                        (      10.809 eV)
   126     126       --         3.984 au  O             1.00      3 P:z             5
                        (     108.415 eV)
   127     127       --         1.128 au  O             1.00      1 D:z2            5
                        (      30.700 eV)
   128     128       --         1.128 au  O             1.00      1 D:x2-y2         5
                        (      30.700 eV)
   129     129       --         1.128 au  O             1.00      1 D:xy            5
                        (      30.700 eV)
   130     130       --         1.128 au  O             1.00      1 D:xz            5
                        (      30.700 eV)
   131     131       --         1.128 au  O             1.00      1 D:yz            5
                        (      30.700 eV)
   132     132       --         3.446 au  O             1.00      1 F:z3            5
                        (      93.778 eV)
   133     133       --         3.446 au  O             1.00      1 F:z             5
                        (      93.778 eV)
   134     134       --         3.446 au  O             1.00      1 F:xyz           5
                        (      93.778 eV)
   135     135       --         3.446 au  O             1.00      1 F:z2x           5
                        (      93.778 eV)
   136     136       --         3.446 au  O             1.00      1 F:z2y           5
                        (      93.778 eV)
   137     137       --         3.446 au  O             1.00      1 F:x             5
                        (      93.778 eV)
   138     138       --         3.446 au  O             1.00      1 F:y             5
                        (      93.778 eV)
   139     139      1.000      -0.242 au  H             1.00      1 S               6
                        (      -6.582 eV)
   140     140       --         0.113 au  H             1.00      2 S               6
                        (       3.073 eV)
   141     141       --         1.599 au  H             1.00      3 S               6
                        (      43.507 eV)
   142     142       --         0.445 au  H             1.00      1 P:x             6
                        (      12.103 eV)
   143     143       --         0.445 au  H             1.00      1 P:y             6
                        (      12.103 eV)
   144     144       --         0.445 au  H             1.00      1 P:z             6
                        (      12.103 eV)
   145     145       --         2.628 au  H             1.00      1 D:z2            6
                        (      71.513 eV)
   146     146       --         2.628 au  H             1.00      1 D:x2-y2         6
                        (      71.513 eV)
   147     147       --         2.628 au  H             1.00      1 D:xy            6
                        (      71.513 eV)
   148     148       --         2.628 au  H             1.00      1 D:xz            6
                        (      71.513 eV)
   149     149       --         2.628 au  H             1.00      1 D:yz            6
                        (      71.513 eV)
   150     150      1.000      -0.242 au  H             1.00      1 S               7
                        (      -6.582 eV)
   151     151       --         0.113 au  H             1.00      2 S               7
                        (       3.073 eV)
   152     152       --         1.599 au  H             1.00      3 S               7
                        (      43.507 eV)
   153     153       --         0.445 au  H             1.00      1 P:x             7
                        (      12.103 eV)
   154     154       --         0.445 au  H             1.00      1 P:y             7
                        (      12.103 eV)
   155     155       --         0.445 au  H             1.00      1 P:z             7
                        (      12.103 eV)
   156     156       --         2.628 au  H             1.00      1 D:z2            7
                        (      71.513 eV)
   157     157       --         2.628 au  H             1.00      1 D:x2-y2         7
                        (      71.513 eV)
   158     158       --         2.628 au  H             1.00      1 D:xy            7
                        (      71.513 eV)
   159     159       --         2.628 au  H             1.00      1 D:xz            7
                        (      71.513 eV)
   160     160       --         2.628 au  H             1.00      1 D:yz            7
                        (      71.513 eV)
   161     161      1.000      -0.242 au  H             1.00      1 S               8
                        (      -6.582 eV)
   162     162       --         0.113 au  H             1.00      2 S               8
                        (       3.073 eV)
   163     163       --         1.599 au  H             1.00      3 S               8
                        (      43.507 eV)
   164     164       --         0.445 au  H             1.00      1 P:x             8
                        (      12.103 eV)
   165     165       --         0.445 au  H             1.00      1 P:y             8
                        (      12.103 eV)
   166     166       --         0.445 au  H             1.00      1 P:z             8
                        (      12.103 eV)
   167     167       --         2.628 au  H             1.00      1 D:z2            8
                        (      71.513 eV)
   168     168       --         2.628 au  H             1.00      1 D:x2-y2         8
                        (      71.513 eV)
   169     169       --         2.628 au  H             1.00      1 D:xy            8
                        (      71.513 eV)
   170     170       --         2.628 au  H             1.00      1 D:xz            8
                        (      71.513 eV)
   171     171       --         2.628 au  H             1.00      1 D:yz            8
                        (      71.513 eV)



 ================================
 (Slater-type)  F U N C T I O N S  ***  (Basis and Fit)  ***
 ================================
  

 Atom Type    1  (P)
 ==============

 Valence Basis Sets:  14
 -----------------------
   1 S   18.000000
   1 S   13.350000
   2 S    5.600000
   2 S    4.050000
   2 P    7.450000
   2 P    4.100000
   3 S    2.700000
   3 S    1.850000
   3 S    1.300000
   3 P    2.300000
   3 P    1.350000
   3 P    0.850000
   3 D    1.900000
   4 F    2.000000

 Charge Fitting Sets (for the computation of the Coulomb Potential):  30
 -----------------------------------------------------------------------
   1 S   36.000000
   1 S   21.450000
   2 S   23.670000
   2 S   15.860000
   3 S   15.600000
   3 S   11.130000
   3 S    7.940000
   4 S    7.490000
   4 S    5.560000
   4 S    4.130000
   5 S    3.810000
   5 S    2.910000
   5 S    2.230000
   5 S    1.700000
   2 P   25.450000
   3 P   18.490000
   4 P   13.440000
   4 P    7.810000
   5 P    5.730000
   5 P    3.510000
   5 P    2.150000
   3 D   19.350000
   4 D   13.230000
   4 D    7.250000
   5 D    5.040000
   5 D    2.930000
   5 D    1.700000
   4 F    5.000000
   4 F    3.000000
   5 G    3.750000

 Atom Type    2  (O)
 ==============

 Valence Basis Sets:  10
 -----------------------
   1 S    9.800000
   1 S    6.800000
   2 S    7.580000
   2 S    2.880000
   2 S    1.720000
   2 P    4.080000
   2 P    2.080000
   2 P    1.120000
   3 D    2.000000
   4 F    3.000000

 Charge Fitting Sets (for the computation of the Coulomb Potential):  22
 -----------------------------------------------------------------------
   1 S   19.600000
   2 S   22.600000
   2 S   15.680000
   2 S   10.890000
   2 S    7.560000
   3 S    7.690000
   3 S    5.650000
   3 S    4.150000
   3 S    3.050000
   3 S    2.240000
   2 P   12.860000
   2 P    7.680000
   3 P    6.780000
   3 P    4.390000
   3 P    2.840000
   3 D    8.800000
   3 D    5.580000
   3 D    3.530000
   3 D    2.240000
   4 F    6.200000
   4 F    3.700000
   5 G    4.500000

 Atom Type    3  (H)
 ==============

 Valence Basis Sets:   5
 -----------------------
   1 S    0.690000
   1 S    0.920000
   1 S    1.580000
   2 P    1.250000
   3 D    2.500000

 Charge Fitting Sets (for the computation of the Coulomb Potential):  11
 -----------------------------------------------------------------------
   1 S    3.160000
   1 S    2.090000
   1 S    1.380000
   2 S    1.500000
   2 P    4.000000
   2 P    2.650000
   2 P    1.750000
   3 D    4.000000
   3 D    2.500000
   4 F    3.000000
   5 G    4.000000


 BAS: List of all Elementary Cartesian Basis Functions
 =====================================================

 The numbering in the list below (to the right of the function characteristics) is referred
 to in print-outs of MO eigenvectors and Mulliken populations in the BAS representation
 (as contrasted to the SFO representation).

 Notes:
 1. The functions are characterized by a polynomial prefactor (powers of x,y,z and r) and
    an exponential decay factor alpha.
 2. Since the basis sets are specific for an atom TYPE, the individual functions occur on
    all atoms of that type.
 3. The word 'Core' in the left margin signals that it is a Core Function (CF) : not a
    degree of freedom in the valence set, but only used to ensure orthogonalization of
    the other valence basis functions on the frozen Core Orbitals.


 (power of) X  Y  Z  R     Alpha  on Atom
            ==========     =====     ==========

 P                                    1
                                  ---------------------------------------------------------------------------
            0  0  0  0    18.000      1
            0  0  0  0    13.350      2
            0  0  0  1     5.600      3
            0  0  0  1     4.050      4
            1  0  0  0     7.450      5
            0  1  0  0     7.450      6
            0  0  1  0     7.450      7
            1  0  0  0     4.100      8
            0  1  0  0     4.100      9
            0  0  1  0     4.100     10
            0  0  0  2     2.700     11
            0  0  0  2     1.850     12
            0  0  0  2     1.300     13
            1  0  0  1     2.300     14
            0  1  0  1     2.300     15
            0  0  1  1     2.300     16
            1  0  0  1     1.350     17
            0  1  0  1     1.350     18
            0  0  1  1     1.350     19
            1  0  0  1     0.850     20
            0  1  0  1     0.850     21
            0  0  1  1     0.850     22
            2  0  0  0     1.900     23
            1  1  0  0     1.900     24
            1  0  1  0     1.900     25
            0  2  0  0     1.900     26
            0  1  1  0     1.900     27
            0  0  2  0     1.900     28
            3  0  0  0     2.000     29
            2  1  0  0     2.000     30
            2  0  1  0     2.000     31
            1  2  0  0     2.000     32
            1  1  1  0     2.000     33
            1  0  2  0     2.000     34
            0  3  0  0     2.000     35
            0  2  1  0     2.000     36
            0  1  2  0     2.000     37
            0  0  3  0     2.000     38

 O                                    2    3    4    5
                                  ---------------------------------------------------------------------------
            0  0  0  0     9.800     39   69   99  129
            0  0  0  0     6.800     40   70  100  130
            0  0  0  1     7.580     41   71  101  131
            0  0  0  1     2.880     42   72  102  132
            0  0  0  1     1.720     43   73  103  133
            1  0  0  0     4.080     44   74  104  134
            0  1  0  0     4.080     45   75  105  135
            0  0  1  0     4.080     46   76  106  136
            1  0  0  0     2.080     47   77  107  137
            0  1  0  0     2.080     48   78  108  138
            0  0  1  0     2.080     49   79  109  139
            1  0  0  0     1.120     50   80  110  140
            0  1  0  0     1.120     51   81  111  141
            0  0  1  0     1.120     52   82  112  142
            2  0  0  0     2.000     53   83  113  143
            1  1  0  0     2.000     54   84  114  144
            1  0  1  0     2.000     55   85  115  145
            0  2  0  0     2.000     56   86  116  146
            0  1  1  0     2.000     57   87  117  147
            0  0  2  0     2.000     58   88  118  148
            3  0  0  0     3.000     59   89  119  149
            2  1  0  0     3.000     60   90  120  150
            2  0  1  0     3.000     61   91  121  151
            1  2  0  0     3.000     62   92  122  152
            1  1  1  0     3.000     63   93  123  153
            1  0  2  0     3.000     64   94  124  154
            0  3  0  0     3.000     65   95  125  155
            0  2  1  0     3.000     66   96  126  156
            0  1  2  0     3.000     67   97  127  157
            0  0  3  0     3.000     68   98  128  158

 H                                    6    7    8
                                  ---------------------------------------------------------------------------
            0  0  0  0     0.690    159  171  183
            0  0  0  0     0.920    160  172  184
            0  0  0  0     1.580    161  173  185
            1  0  0  0     1.250    162  174  186
            0  1  0  0     1.250    163  175  187
            0  0  1  0     1.250    164  176  188
            2  0  0  0     2.500    165  177  189
            1  1  0  0     2.500    166  178  190
            1  0  1  0     2.500    167  179  191
            0  2  0  0     2.500    168  180  192
            0  1  1  0     2.500    169  181  193
            0  0  2  0     2.500    170  182  194

 Total number of charge fitting functions (nprimf)       592
 Total number of Cartesian basis functions (naos)        194
 Total number of Cartesian core functions  (ncos)          0

1
 ***************************************************************************************************



                                              ***********************
                                              *  T E C H N I C A L  *
                                              ***********************
  



 =============================================================
 P A R A L L E L I Z A T I O N  and  V E C T O R I Z A T I O N
 =============================================================
  
 Nr of parallel processes:                                4
 Maximum vector length in NumInt loops:                 128



 =====================
 S C F   U P D A T E S
 =====================
  
 Max. nr. of cycles:                               300
 Convergence criterion:                              0.0000010000
   secondary criterion:                              0.0010000000

 Mix parameter (when DIIS does not apply):           0.2000000000
 Mixed ADIIS+SDIIS will be used                  
    Max number of expansion vectors:                10
    Pure ADIIS when Max([F,P]) is above              0.1000000000
    Pure SDIIS when Max([F,P]) is below              0.0010000000
 Automatic ElectronSmearing (in case of problematic SCF convergence) disabled



 =================
 P R E C I S I O N  ***  (General: NumInt, NeglectFunctionTails, ...)  ***
 =================
  

 NumInt:           Target precision:                 6.0000000000
 -------           Initial precision:                6.0000000000
                   Min. precision (optimization):    6.0000000000

 Neglect Functions:          Basis functions:        0.1000000000E-07
 ------------------          Fit functions:          0.1000000000E-07



 ===========================
 L I N E A R   S C A L I N G
 ===========================
  

 Cut-off radii density fit:                        0.1000000000E-09
 Overlap cut-off criterion AO matrix elements:     0.1000000000E-07
 Cut-offs for Coulomb potential and fitted density:0.1000000000E-09
 Cut-off criterion for Coulomb multipole terms:    0.1000000000E-09
 Progressive Convergence parameter:                 0.000000000    

 Number of elements of the density matrix on this node (used, total):      4860     18915



 ===========================================
 Numerical Integration : Fuzzy Cells (Becke)
 ===========================================
  
 Becke grid quality: GOOD           
  
 Lebedev angular grid order:             min:  11 max:  31
 Nr. of radial points:                   min:  54 max:  76

 Total nr. of points:     101652
 Nr. of blocks:              795
 Block length:               128
 Nr. of dummy points:        108


 Test of Precision of the Numerical Integration Grid
 ===================================================

 Integral of the Total Core Density:                   0.00000000000000


 -------------------------------------------
  COSMO surface
  Area             =          353.607
  Volume           =          532.292
  Number of Points =          938
 -------------------------------------------



 ========================
 Density Fitting (zlmFit)
 ========================
  
 ZlmFit Fit Quality: GOOD           
  
 Max L-expansion:                        min:   8 max:   9
 Nr. of radial interpolation points:     min:  78 max: 126



 ======================
 RI Hartree-Fock Scheme
 ======================
  
 Fit Set Quality     : GOOD
 Integration Quality : GOOD
 Threshold Quality   : GOOD
 Response Quality    : DEFAULT
 Is Range Separated  :  F
 
 RIHartreeFock Dependency: number of modified vectors:           3



 =====
 S C F  ***  ScaSCF  ***
 =====
  
 Initial density matrix is taken from previous geometry

 CYCLE    1
  ***********************************************************
  ** : orbital data taken from :/tmp/amstmp_ams_kid0.1632639600/GOStep6.rkf
  ***********************************************************
 SCF Error: norm([F,P])=      0.043098536090, max([F,P])=      0.010069237770
 orbitals (Q,E):
 ---------------
 A :16...35          ( 2.00    -0.5934)  ( 2.00    -0.5027)  ( 2.00    -0.4657)  ( 2.00    -0.4657)
                     ( 2.00    -0.4149)  ( 2.00    -0.4149)  ( 2.00    -0.3947)  ( 2.00    -0.3757)
                     ( 2.00    -0.3198)  ( 2.00    -0.3198)  ( 0.00    -0.0151)  ( 0.00     0.0256)
                     ( 0.00     0.0256)  ( 0.00     0.1049)  ( 0.00     0.1251)  ( 0.00     0.1251)
                     ( 0.00     0.1388)  ( 0.00     0.1691)  ( 0.00     0.1691)  ( 0.00     0.1725)

 CYCLE    2
  SDIIS (wt  0.000):  0.6306  0.3694
 A-DIIS (wt  1.000):  0.6518  0.3482
  DIIS coefficients:  0.6518  0.3482
 SCF Error: norm([F,P])=      0.070713165019, max([F,P])=      0.020176259444
 orbitals (Q,E):
 ---------------
 A :16...26          ( 2.00    -0.5916)  ( 2.00    -0.5063)  ( 2.00    -0.4664)  ( 2.00    -0.4664)
                     ( 2.00    -0.4148)  ( 2.00    -0.4148)  ( 2.00    -0.4013)  ( 2.00    -0.3771)
                     ( 2.00    -0.3280)  ( 2.00    -0.3280)  ( 0.00    -0.0116)

 CYCLE    3
  SDIIS (wt  0.000):  0.4425  0.1336  0.4239
 A-DIIS (wt  1.000):  0.3257  0.0000  0.6743
  DIIS coefficients:  0.3257  0.0000  0.6743
 SCF Error: norm([F,P])=      0.028488198186, max([F,P])=      0.006733411094
 orbitals (Q,E):
 ---------------
 A :16...26          ( 2.00    -0.5907)  ( 2.00    -0.5073)  ( 2.00    -0.4666)  ( 2.00    -0.4666)
                     ( 2.00    -0.4147)  ( 2.00    -0.4147)  ( 2.00    -0.4027)  ( 2.00    -0.3771)
                     ( 2.00    -0.3288)  ( 2.00    -0.3288)  ( 0.00    -0.0085)

 CYCLE    4
  SDIIS (wt  0.950): -0.3088  0.1646  1.1441
 A-DIIS (wt  0.050):  0.0000  0.0000  1.0000
  DIIS coefficients: -0.2934  0.1564  1.1370
 SCF Error: norm([F,P])=      0.019116442869, max([F,P])=      0.005941049232
 orbitals (Q,E):
 ---------------
 A :16...26          ( 2.00    -0.5890)  ( 2.00    -0.5090)  ( 2.00    -0.4664)  ( 2.00    -0.4664)
                     ( 2.00    -0.4138)  ( 2.00    -0.4138)  ( 2.00    -0.4065)  ( 2.00    -0.3765)
                     ( 2.00    -0.3336)  ( 2.00    -0.3336)  ( 0.00    -0.0055)

 CYCLE    5
  SDIIS (wt  0.996): -0.1040 -0.0627  0.5494  0.6174
 A-DIIS (wt  0.004):  0.0000  0.0000  0.0000  1.0000
  DIIS coefficients: -0.1036 -0.0624  0.5470  0.6190
 SCF Error: norm([F,P])=      0.007999629590, max([F,P])=      0.001423856165
 orbitals (Q,E):
 ---------------
 A :16...26          ( 2.00    -0.5899)  ( 2.00    -0.5093)  ( 2.00    -0.4671)  ( 2.00    -0.4671)
                     ( 2.00    -0.4146)  ( 2.00    -0.4146)  ( 2.00    -0.4064)  ( 2.00    -0.3773)
                     ( 2.00    -0.3331)  ( 2.00    -0.3331)  ( 0.00    -0.0057)

 CYCLE    6
  SDIIS (wt  1.000): -0.0049 -0.0496  0.0973  0.3073  0.6499
  DIIS coefficients: -0.0049 -0.0496  0.0973  0.3073  0.6499
 SCF Error: norm([F,P])=      0.002609802038, max([F,P])=      0.000423935707
 orbitals (Q,E):
 ---------------
 A :16...26          ( 2.00    -0.5898)  ( 2.00    -0.5092)  ( 2.00    -0.4670)  ( 2.00    -0.4670)
                     ( 2.00    -0.4145)  ( 2.00    -0.4145)  ( 2.00    -0.4063)  ( 2.00    -0.3771)
[...]
    1   ubuntu-kch                                0          1         -1
    2   ubuntu-kch                                0          2         -1
    3   ubuntu-kch                                0          3         -1
 ==============================================================================


May use up to 7570MB of RAM as shared memory on node 0
 
NMR
    out    iso    tens
    adfgui
    Atoms 1
    u1k best
    calc all
End

 *******************************************************************************
 *                                                                             *
 *  --------------------------------                                           *
 *   Amsterdam Modeling Suite (AMS)              2020.202                      *
 *  --------------------------------                                           *
 *                                               r90167 2020-12-05             *
 *                                                                             *
 *                                                                             *
 *                              =================                              *
 *                              |               |                              *
 *                              |     N M R     |                              *
 *                              |               |                              *
 *                              =================                              *
 *                                                                             *
 *                                                                             *
 *   Online information and documentation:  https://www.scm.com/support/       *
 *   E-mail:  support@scm.com   info@scm.com                                   *
 *                                                                             *
 *   Scientific publications using AMS results must be properly referenced     *
 *   See the User Manuals (or the web site) for recommended citations          *
 *   The terms and conditions of the End User License Agreement apply to       *
 *   the use of AMS, https://www.scm.com/license-terms/                        *
 *                                                                             *
 **********************  x86_64_linux_intel / intelmpi  ************************
 
 Licensed to: Dr. Miroslav Ilias / Matej Bel University, Department Chemistry, Fac. Natural Sciences / Banska Bystrica / SLOVAKIA
 SCM User ID: u17848
  
 NMR 2020.202  RunTime: Feb15-2021 20:18:00  Nodes: 1  Procs: 4

 Temporary files are created in /tmp/kid_0.1483408918 (0xEF53)


 Communication costs MPI_COMM_WORLD:      0.121 usec per message,   0.0049 usec per 8-byte item
 Communication costs for intra-node:      0.332 usec per message,   0.0033 usec per 8-byte item




 ======================
 RI Hartree-Fock Scheme
 ======================
  
 Fit Set Quality     : GOOD
 Integration Quality : GOOD
 Threshold Quality   : GOOD
 Response Quality    : DEFAULT
 Is Range Separated  :  F
 
 RIHartreeFock Dependency: number of modified vectors:           0
                    
                      **********************************    
                      ||******************************||    
                      ||                              ||    
                      ||  ##   ##  ###  ###  ######   ||    
                      ||  ###  ##  ########  ##   ##  ||    
                      ||  #### ##  ## ## ##  ######   ||    
                      ||  ## ####  ##    ##  ## ##    ||    
                      ||  ##  ###  ##    ##  ##  ##   ||    
                      ||  ##   ##  ##    ##  ##   ##  ||    
                      ||                              ||    
                      | ****************************** |    
                      **********************************    
                    
                            Written for ADF by              
                    
                    Stephen K. Wolff & Georg Schreckenbach  
                    
                      The research group of Tom Ziegler     
                            University of Calgary           
                               Alberta, Canada              
                    
                      Speedups, NBO analysis, g-tensors,    
                       full ZORA SO, and other goodies by   
                         Jochen Autschbach, SUNY Buffalo
                    
 =============================
 NMR Chemical shift References
 =============================
  
 Lead:
 G. Schreckenbach, T. Ziegler, J. Phys. Chem. 99 (1995) 606
  
 Speed-ups:
 J. Autschbach, E. Zurek, J. Phys. Chem. A 107 (2003), 4967
  
 Hybrids:
 M. Krykunov, T. Ziegler, E. van Lenthe, Int. J. of Quantum Chem. 109, 1676 (2009)
  
 Spin-orbit coupling:
 S.K. Wolff, T. Ziegler, E. van Lenthe, E.J. Baerends, J. Chem. Phys. 110, 7689 (1999)
 J. Autschbach, Mol. Phys. 111 (2013), 2544
  
 Paramagnetic:
 J. Autschbach, S. Patchkovskii, B. Pritchard, J. Chem. Theory Comput. 7, 2175 (2011)
  
 NBO analysis:
 J. Autschbach, J. Chem. Phys. 128 (2008), 164112
 J. Autschbach, S. Zheng, Magn. Reson. Chem. 46 (2008), S48
  
 Suggested:
 G. Schreckenbach, T. Ziegler, Int. J. Quantum Chem. 60, 753 (1996)
 G. Schreckenbach, T. Ziegler, Int. J. Quantum Chem. 61 (1997) 899
 S.K. Wolff, T. Ziegler, J. Chem. Phys. 109 (1998) 895
  
 =======================
 ESR g-tensor References
 =======================
  
 Lead:
 J. Autschbach, B. Pritchard, Theor. Chem. Acc. 129 (2011), 453
  
 Suggested:
 G. Schreckenbach, T. Ziegler, J. Phys. Chem. A 101, 3388 (1997)
 
################################################################################
 
 
################################################################################
 
 
              <><><><><><><><><><><><><><><><><><><><><><><><><>
 
                 GENERAL ADF INFORMATION:
                 ------------------------
 
                 TITLE:    *** adf ***                                  
 JOB ID:     1632639600
                 NONLXC:                                                
                 SYMMETRY: NOSYM                                        
                  
                 IOPREL:   0
                 ------>  non-rel. (Re MOs)
 
              <><><><><><><><><><><><><><><><><><><><><><><><><>
 
              ==================================================
 
                 NUCLEAR COORDINATES (ANGSTROMS):
                 --------------------------------
 
                 P  (  1):      -0.0000      0.0000     -0.1541
                 O  (  2):      -1.3789     -0.3368      0.5379
                 O  (  3):       0.9811     -1.0257      0.5379
                 O  (  4):       0.3978      1.3625      0.5379
                 O  (  5):      -0.0000      0.0000     -1.6180
                 H  (  6):      -2.1368      0.0081      0.0528
                 H  (  7):       1.0614     -1.8546      0.0528
                 H  (  8):       1.0755      1.8465      0.0528
 
              ==================================================
 
              <><><><><><><><><><><><><><><><><><><><><><><><><>
 
                 NUMBERS:
                 --------
 
                 number of electrons:     50.00
 
                 ---   AOs   ---          ---   MOs   ---
                 ncor =     0             nocc =    25
                 nval =   194             nvir =   146
                 nbas =   194             nmo  =   171
                 naos =   194             nsot =   171
              ==================================================
                  
                 --------------------------
                     ATOM TYPE: P                        
                 --------------------------
                 === BASIS
                   1S   18.00     VALENCE
                   1S   13.35     VALENCE
                   2S    5.60     VALENCE
                   2S    4.05     VALENCE
                   2P    7.45     VALENCE
                   2P    4.10     VALENCE
                   3S    2.70     VALENCE
                   3S    1.85     VALENCE
                   3S    1.30     VALENCE
                   3P    2.30     VALENCE
                   3P    1.35     VALENCE
                   3P    0.85     VALENCE
                   3D    1.90     VALENCE
                   4F    2.00     VALENCE
                  
                 --------------------------
                     ATOM TYPE: O                        
                 --------------------------
                 === BASIS
                   1S    9.80     VALENCE
                   1S    6.80     VALENCE
                   2S    7.58     VALENCE
                   2S    2.88     VALENCE
                   2S    1.72     VALENCE
                   2P    4.08     VALENCE
                   2P    2.08     VALENCE
                   2P    1.12     VALENCE
                   3D    2.00     VALENCE
                   4F    3.00     VALENCE
                  
                 --------------------------
                     ATOM TYPE: H                        
                 --------------------------
                 === BASIS
                   1S    0.69     VALENCE
                   1S    0.92     VALENCE
                   1S    1.58     VALENCE
                   2P    1.25     VALENCE
                   3D    2.50     VALENCE
                  
              ==================================================
              <><><><><><><><><><><><><><><><><><><><><><><><><>
 
                 TENSOR INFORMATION:
                 -------------------
 
                              CALC                   U1K
 
                 paramagnetic  = T     mass-velocity = F
                 diamagnetic   = T     Darwin        = F
                 Fermi-cont.   = F     Zeeman        = F
                 ZORA SO       = F     ZORA SO       = F
                 ZORA SCALE    = F     ZORA SO FULL  = F
                 ZORA SO 1C    = F     E IN U1 SCL   = F
 
              <><><><><><><><><><><><><><><><><><><><><><><><><>
 
              <><><><><><><><><><><><><><><><><><><><><><><><><>
 
                 OUTPUT SWITCHES:
                 ----------------
 
                           ISO = T                F1 = F
                          TENS = T                S1 = F
                           EIG = F                U1 = F
                           AOP = F                B1 = F
                           AOD = F                F  = F
                           AOF = F                 S = F
                          INFO = F              REFS = F
 
              <><><><><><><><><><><><><><><><><><><><><><><><><>
 
              --------------------------------------------------
 
                 CALCULATE THE POTENTIAL? F
                  
                 ---> Potential is already on TAPE10.
                      It will not be re-calculated.
 
              --------------------------------------------------



 ===========================
 L I N E A R   S C A L I N G
 ===========================
  

 Overlap cut-off criterion AO matrix elements:     0.1000000000E-07
 ========================
 STARTING A NEW SCF. Step            1
 CRIT   1.00000000000000     
 CRIT   1.00000000000000     
 CRIT   1.00000000000000     
 ========================
 STARTING A NEW SCF. Step            2
 CRIT   2.76606218106592     
 CRIT   2.76754292087854     
 CRIT   2.19988275461734     
 ========================
 STARTING A NEW SCF. Step            3
 CRIT  0.187539229476320     
 CRIT  0.187924616281825     
 CRIT  0.170458394708753     
 ========================
 STARTING A NEW SCF. Step            4
 CRIT  1.193702134674927E-002
 CRIT  1.195869592593023E-002
 CRIT  1.078495459081866E-002
 ========================
 STARTING A NEW SCF. Step            5
 CRIT  8.415967941942591E-004
 CRIT  8.435355030702359E-004
 CRIT  7.945626777754418E-004
 ========================
 STARTING A NEW SCF. Step            6
 CRIT  5.414846346843758E-005
 CRIT  5.434614962017272E-005
 CRIT  5.402328684526669E-005
 ========================
 STARTING A NEW SCF. Step            7
 CRIT  3.004754078835304E-006
 CRIT  3.012144484234516E-006
 CRIT  3.115658381735667E-006
 ========================
 STARTING A NEW SCF. Step            8
 CRIT  1.703178898813943E-007
 CRIT  1.704004037023003E-007
 CRIT  1.936088863765854E-007
################################################################################
********************************************************************************
****  N U C L E U S : P(1)
 
 ADF-GUI atom: P(1)
 Internal NMR numbering of atoms: P(1)
 
 
================================================================================
 
 
===  PARAMAGNETIC NMR SHIELDING TENSORS (ppm)
 
    ===     paramagnetic b^(1) tensor       ===     paramagnetic u^(1) tensor
    -----------------------------------     -----------------------------------
           0.000     0.000     0.000            -621.254     0.012    -0.000
           0.000     0.000     0.000               0.012  -621.247    -0.009
           0.000     0.000     0.000              -0.000    -0.009  -461.914
    -----------------------------------     -----------------------------------
              isotropic =      0.000                  isotropic =   -568.138

    ===     paramagnetic s^(1) tensor       ===     paramagnetic gauge tensor
    -----------------------------------     -----------------------------------
         -75.134     0.001     0.005              -4.118     0.000    -0.000
           0.001   -75.130     0.009               0.000    -4.118     0.000
           0.005     0.009   -45.636              -0.000     0.000    -2.413
    -----------------------------------     -----------------------------------
              isotropic =    -65.300                  isotropic =     -3.549

                        ***********************************
                        CARTESIAN AXIS REPRESENTATION

                        ==== total paramagnetic tensor
                        -----------------------------------
                            -700.505     0.013     0.005
                               0.013  -700.494     0.000
                               0.005     0.000  -509.963
                        -----------------------------------
                                  isotropic =   -636.987

                        ***********************************
                        -----------------------------------
                        PRINCIPAL AXIS REPRESENTATION

                        ==== Principal components:

                            -700.513  -700.485  -509.963
 
                        ==== Principal Axis System:

                              -0.834    -0.552     0.000
                               0.552    -0.834     0.000
                               0.000     0.000     1.000
                        -----------------------------------
 
================================================================================
 
 
===  DIAMAGNETIC NMR SHIELDING TENSORS (ppm)
 
    ===       diamagnetic core tensor       ===    diamagnetic valence tensor
    -----------------------------------     -----------------------------------
           0.000     0.000     0.000             961.126    -0.001     0.001
           0.000     0.000     0.000              -0.001   961.125    -0.001
           0.000     0.000     0.000               0.001    -0.001   958.830
    -----------------------------------     -----------------------------------
              isotropic =      0.000                  isotropic =    960.360

                        ***********************************
                        CARTESIAN AXIS REPRESENTATION

                        ==== total diamagnetic tensor
                        -----------------------------------
                             961.126    -0.001     0.001
                              -0.001   961.125    -0.001
                               0.001    -0.001   958.830
                        -----------------------------------
                                  isotropic =    960.360

                        ***********************************
                        -----------------------------------
                        PRINCIPAL AXIS REPRESENTATION

                        ==== Principal components:

                             958.830   961.124   961.126
 
                        ==== Principal Axis System:

                              -0.001     0.442     0.897
                               0.000     0.897    -0.442
                               1.000    -0.000     0.001
                        -----------------------------------
 
================================================================================
 
 
===  TOTAL NMR SHIELDING TENSOR (ppm)
 
                        ***********************************
                        CARTESIAN AXIS REPRESENTATION

                        ==== total shielding tensor
                        -----------------------------------
                             260.621     0.012     0.006
                               0.012   260.631    -0.000
                               0.006    -0.000   448.866
                        -----------------------------------
                                  isotropic =    323.373

                        ***********************************
                        -----------------------------------
                        PRINCIPAL AXIS REPRESENTATION

                        ==== Principal components:

                             260.613   260.639   448.866
 
                        ==== Principal Axis System:

                               0.829     0.559     0.000
                              -0.559     0.829    -0.000
                              -0.000    -0.000     1.000
                        -----------------------------------
 *******************************************************************************

                             N M R   E X I T
 NORMAL TERMINATION



 =================
 Timing Statistics
 =================
  
 Total Used :                     CPU=       28.30      System=        0.86     Elapsed=       35.71

 Calls  Section                     ( Mean, Percentage )
 ---------------------------------------------------------------------------------------------------
     3  ><      ................      0.00    0.05             0.00    0.00             0.00    0.04
     1  INIT    ................      0.58    2.06             0.01    1.58             0.63    1.77
     1  RDEIGX  ................     14.32   50.61             0.21   24.14            18.90   52.93
     1  AOF1K   ................      1.23    4.36             0.06    6.73             1.31    3.68
     1  AOPKK   ................     10.85   38.35             0.54   63.47            13.49   37.78
     1  XSIGP   ................      0.00    0.00             0.00    0.00             0.00    0.00
     1  AODKKK  ................      1.29    4.57             0.03    3.27             1.35    3.77
     1  XDV     ................      0.00    0.00             0.00    0.00             0.00    0.00
     1  XSIGD   ................      0.00    0.00             0.00    0.00             0.00    0.00
     1  EXIT PROCEDURE .........      0.00    0.00             0.01    0.80             0.01    0.03


 Currently Open Files (EXIT00)
 ====================

 Unit    Access Format  Status   Type       Ident (file)
 -------------------------------------------------------
   3      SEQ    FORM   TRANSP  NORMAL      LOGFILE
                                          ( /home/milias/work/projects/open-collection/theoretical_chemistry/projects/nmr_diplomovky/reference_compounds/phosphoric_acid/ams/pbe0_tz2p_good/cosmo-toluene/phosporic_acid.geopt_freq_nmrshield_pbe0_tz2p_good_cosmo-toluene.logfile )
