 argument  1 = /home/milias/Work/open-collection/theoretical_chemistry/projects/nmr_diplomovky/reference_compounds/tetramethylsilane/nwchem/cosmo-h2o/adf_geometry/TMS.nmrshield_b3lyp_6-311++g2d_2p_cosmo-h2o.nw
 


============================== echo of input deck ==============================
echo

start molecule

memory total 40 gb
print low

title "TMS"
charge 0

geometry units angstroms print xyz autosym
  #load format xyz TMS.start_geom.xyz
  load format xyz TMS.converged_geometry_pbe0_tz2p_good_cosmo-h2o.xyz
end

basis
  * library 6-311++G(2d,2p)
end

dft
  grid huge
  xc b3lyp
  mult 1
  noprint "final vectors analysis"
end

driver
  clear
  tight
  linopt 0
  maxiter 999
  xyz TMS_geom
end

property
  giao
  shielding
end

cosmo
  solvent h2o
end

task dft energy
#task dft freq
task dft property

================================================================================


                                         
                                         
 
 
             Northwest Computational Chemistry Package (NWChem) 7.0.1
             --------------------------------------------------------
 
 
                    Environmental Molecular Sciences Laboratory
                       Pacific Northwest National Laboratory
                                Richland, WA 99352
 
                              Copyright (c) 1994-2020
                       Pacific Northwest National Laboratory
                            Battelle Memorial Institute
 
             NWChem is an open-source computational chemistry package
                        distributed under the terms of the
                      Educational Community License (ECL) 2.0
             A copy of the license is included with this distribution
                              in the LICENSE.TXT file
 
                                  ACKNOWLEDGMENT
                                  --------------

            This software and its documentation were developed at the
            EMSL at Pacific Northwest National Laboratory, a multiprogram
            national laboratory, operated for the U.S. Department of Energy
            by Battelle under Contract Number DE-AC05-76RL01830. Support
            for this work was provided by the Department of Energy Office
            of Biological and Environmental Research, Office of Basic
            Energy Sciences, and the Office of Advanced Scientific Computing.


           Job information
           ---------------

    hostname        = comp31
    program         = /home/milias/Work/qch/software/nwchem_suite/nwchem_master/bin/LINUX64/nwchem
    date            = Sun Mar  7 23:30:59 2021

    compiled        = Sun_Jan_31_23:21:07_2021
    source          = /home/milias/Work/qch/software/nwchem_suite/nwchem_master
    nwchem branch   = 7.0.0
    nwchem revision = nwchem_on_git-2308-gc943026
    ga revision     = 5.8.0
    use scalapack   = F
    input           = /home/milias/Work/open-collection/theoretical_chemistry/projects/nmr_diplomovky/reference_compounds/tetramethylsilane/nwchem/cosmo-h2o/adf_geometry/TMS.nmrshield_b3lyp_6-311++g2d_2p_cosmo-h2o.nw
    prefix          = molecule.
    data base       = ./molecule.db
    status          = startup
    nproc           =       12
    time left       =     -1s



           Memory information
           ------------------

    heap     = 1342177280 doubles =  10240.0 Mbytes
    stack    = 1342177277 doubles =  10240.0 Mbytes
    global   = 2684354560 doubles =  20480.0 Mbytes (distinct from heap & stack)
    total    = 5368709117 doubles =  40960.0 Mbytes
    verify   = yes
    hardfail = no 


           Directory information
           ---------------------
 
  0 permanent = .
  0 scratch   = .
 
 
 
 
                                NWChem Input Module
                                -------------------
 
 
                                        TMS
                                        ---

 Scaling coordinates for geometry "geometry" by  1.889725989
 (inverse scale =  0.529177249)


          ------
          auto-z
          ------
  no constraints, skipping   0.000000000000000E+000
  no constraints, skipping   0.000000000000000E+000
 
 
                             Geometry "geometry" -> ""
                             -------------------------
 
 Output coordinates in angstroms (scale by  1.889725989 to convert to a.u.)
 
  No.       Tag          Charge          X              Y              Z
 ---- ---------------- ---------- -------------- -------------- --------------
    1 Si                  14.0000     0.00010450    -0.00007485     0.00010286
    2 C                    6.0000    -1.54903986    -0.78109581     0.71369221
    3 C                    6.0000     0.52034128     1.44932525     1.07128216
    4 C                    6.0000    -0.34966480     0.60376244    -1.74102697
    5 C                    6.0000     1.37821388    -1.27191318    -0.04404365
    6 H                    1.0000    -1.87228609    -1.62982245     0.10515532
    7 H                    1.0000    -1.37000149    -1.14131582     1.73019132
    8 H                    1.0000    -2.36812712    -0.05797748     0.74942980
    9 H                    1.0000    -0.26820377     2.20536695     1.11230089
   10 H                    1.0000     0.72995754     1.12217169     2.09312080
   11 H                    1.0000     1.42286795     1.92182556     0.67460953
   12 H                    1.0000     0.53995274     1.06390280    -2.17916138
   13 H                    1.0000    -0.65556216    -0.22433062    -2.38582889
   14 H                    1.0000    -1.15099095     1.34742898    -1.74111205
   15 H                    1.0000     2.29336947    -0.83952734    -0.45721229
   16 H                    1.0000     1.60059759    -1.63933835     0.96129635
   17 H                    1.0000     1.09786032    -2.12780830    -0.66365203
 
      Atomic Mass 
      ----------- 
 
      Si                27.976930
      C                 12.000000
      H                  1.007825
 

 Effective nuclear repulsion energy (a.u.)     246.5230240862

            Nuclear Dipole moment (a.u.) 
            ----------------------------
        X                 Y               Z
 ---------------- ---------------- ----------------
    -0.0000000000    -0.0000000000     0.0000000000
 


                                Z-matrix (autoz)
                                -------- 

 Units are Angstrom for bonds and degrees for angles
 
      Type          Name      I     J     K     L     M      Value
      ----------- --------  ----- ----- ----- ----- ----- ----------
    1 Stretch                  1     2                       1.87591
    2 Stretch                  1     3                       1.87586
    3 Stretch                  1     4                       1.87576
    4 Stretch                  1     5                       1.87582
    5 Stretch                  2     6                       1.09323
    6 Stretch                  2     7                       1.09320
    7 Stretch                  2     8                       1.09320
    8 Stretch                  3     9                       1.09320
    9 Stretch                  3    10                       1.09322
   10 Stretch                  3    11                       1.09323
   11 Stretch                  4    12                       1.09321
   12 Stretch                  4    13                       1.09320
   13 Stretch                  4    14                       1.09324
   14 Stretch                  5    15                       1.09324
   15 Stretch                  5    16                       1.09324
   16 Stretch                  5    17                       1.09319
   17 Bend                     1     2     6               110.83380
   18 Bend                     1     2     7               110.83323
   19 Bend                     1     2     8               110.84131
   20 Bend                     1     3     9               110.83895
   21 Bend                     1     3    10               110.83654
   22 Bend                     1     3    11               110.83668
   23 Bend                     1     4    12               110.84046
   24 Bend                     1     4    13               110.84390
   25 Bend                     1     4    14               110.83827
   26 Bend                     1     5    15               110.83805
   27 Bend                     1     5    16               110.83494
   28 Bend                     1     5    17               110.84070
   29 Bend                     2     1     3               109.48108
   30 Bend                     2     1     4               109.45903
   31 Bend                     2     1     5               109.47296
   32 Bend                     3     1     4               109.45285
   33 Bend                     3     1     5               109.48547
   34 Bend                     4     1     5               109.47593
   35 Bend                     6     2     7               108.07120
   36 Bend                     6     2     8               108.07062
   37 Bend                     7     2     8               108.07572
   38 Bend                     9     3    10               108.07118
   39 Bend                     9     3    11               108.07113
   40 Bend                    10     3    11               108.07121
   41 Bend                    12     4    13               108.06837
   42 Bend                    12     4    14               108.06695
   43 Bend                    13     4    14               108.06724
   44 Bend                    15     5    16               108.07063
   45 Bend                    15     5    17               108.06696
   46 Bend                    16     5    17               108.07434
   47 Torsion                  2     1     3     9         -59.99206
   48 Torsion                  2     1     3    10          60.00842
   49 Torsion                  2     1     3    11        -179.99257
   50 Torsion                  2     1     4    12         179.99987
   51 Torsion                  2     1     4    13         -59.99735
   52 Torsion                  2     1     4    14          60.00257
   53 Torsion                  2     1     5    15         179.98317
   54 Torsion                  2     1     5    16         -60.01869
   55 Torsion                  2     1     5    17          59.98585
   56 Torsion                  3     1     2     6         179.99320
   57 Torsion                  3     1     2     7         -60.01188
   58 Torsion                  3     1     2     8          59.99368
   59 Torsion                  3     1     4    12          60.00650
   60 Torsion                  3     1     4    13        -179.99072
   61 Torsion                  3     1     4    14         -59.99080
   62 Torsion                  3     1     5    15         -59.99495
   63 Torsion                  3     1     5    16          60.00318
   64 Torsion                  3     1     5    17        -179.99228
   65 Torsion                  4     1     2     6          60.01713
   66 Torsion                  4     1     2     7        -179.98795
   67 Torsion                  4     1     2     8         -59.98239
   68 Torsion                  4     1     3     9          59.98781
   69 Torsion                  4     1     3    10         179.98828
   70 Torsion                  4     1     3    11         -60.01270
   71 Torsion                  4     1     5    15          59.99415
   72 Torsion                  4     1     5    16         179.99228
   73 Torsion                  4     1     5    17         -60.00317
   74 Torsion                  5     1     2     6         -59.98224
   75 Torsion                  5     1     2     7          60.01268
   76 Torsion                  5     1     2     8        -179.98176
   77 Torsion                  5     1     3     9         179.99104
   78 Torsion                  5     1     3    10         -60.00848
   79 Torsion                  5     1     3    11          59.99053
   80 Torsion                  5     1     4    12         -60.00258
   81 Torsion                  5     1     4    13          60.00020
   82 Torsion                  5     1     4    14        -179.99988
 
 
            XYZ format geometry
            -------------------
    17
 geometry
 Si                    0.00010450    -0.00007485     0.00010286
 C                    -1.54903986    -0.78109581     0.71369221
 C                     0.52034128     1.44932525     1.07128216
 C                    -0.34966480     0.60376244    -1.74102697
 C                     1.37821388    -1.27191318    -0.04404365
 H                    -1.87228609    -1.62982245     0.10515532
 H                    -1.37000149    -1.14131582     1.73019132
 H                    -2.36812712    -0.05797748     0.74942980
 H                    -0.26820377     2.20536695     1.11230089
 H                     0.72995754     1.12217169     2.09312080
 H                     1.42286795     1.92182556     0.67460953
 H                     0.53995274     1.06390280    -2.17916138
 H                    -0.65556216    -0.22433062    -2.38582889
 H                    -1.15099095     1.34742898    -1.74111205
 H                     2.29336947    -0.83952734    -0.45721229
 H                     1.60059759    -1.63933835     0.96129635
 H                     1.09786032    -2.12780830    -0.66365203
 
 ==============================================================================
                                internuclear distances
 ------------------------------------------------------------------------------
       center one      |      center two      | atomic units |  angstroms
 ------------------------------------------------------------------------------
    2 C                |   1 Si               |     3.54496  |     1.87591
    3 C                |   1 Si               |     3.54485  |     1.87586
    4 C                |   1 Si               |     3.54468  |     1.87576
    5 C                |   1 Si               |     3.54479  |     1.87582
    6 H                |   2 C                |     2.06590  |     1.09323
    7 H                |   2 C                |     2.06585  |     1.09320
    8 H                |   2 C                |     2.06584  |     1.09320
    9 H                |   3 C                |     2.06585  |     1.09320
   10 H                |   3 C                |     2.06588  |     1.09322
   11 H                |   3 C                |     2.06591  |     1.09323
   12 H                |   4 C                |     2.06587  |     1.09321
   13 H                |   4 C                |     2.06584  |     1.09320
   14 H                |   4 C                |     2.06592  |     1.09324
   15 H                |   5 C                |     2.06593  |     1.09324
   16 H                |   5 C                |     2.06592  |     1.09324
   17 H                |   5 C                |     2.06583  |     1.09319
 ------------------------------------------------------------------------------
                         number of included internuclear distances:         16
 ==============================================================================



 ==============================================================================
                                 internuclear angles
 ------------------------------------------------------------------------------
        center 1       |       center 2       |       center 3       |  degrees
 ------------------------------------------------------------------------------
    2 C                |   1 Si               |   3 C                |   109.48
    2 C                |   1 Si               |   4 C                |   109.46
    2 C                |   1 Si               |   5 C                |   109.47
    3 C                |   1 Si               |   4 C                |   109.45
    3 C                |   1 Si               |   5 C                |   109.49
    4 C                |   1 Si               |   5 C                |   109.48
    1 Si               |   2 C                |   6 H                |   110.83
    1 Si               |   2 C                |   7 H                |   110.83
    1 Si               |   2 C                |   8 H                |   110.84
    6 H                |   2 C                |   7 H                |   108.07
    6 H                |   2 C                |   8 H                |   108.07
    7 H                |   2 C                |   8 H                |   108.08
    1 Si               |   3 C                |   9 H                |   110.84
    1 Si               |   3 C                |  10 H                |   110.84
    1 Si               |   3 C                |  11 H                |   110.84
    9 H                |   3 C                |  10 H                |   108.07
    9 H                |   3 C                |  11 H                |   108.07
   10 H                |   3 C                |  11 H                |   108.07
    1 Si               |   4 C                |  12 H                |   110.84
    1 Si               |   4 C                |  13 H                |   110.84
    1 Si               |   4 C                |  14 H                |   110.84
   12 H                |   4 C                |  13 H                |   108.07
   12 H                |   4 C                |  14 H                |   108.07
   13 H                |   4 C                |  14 H                |   108.07
    1 Si               |   5 C                |  15 H                |   110.84
    1 Si               |   5 C                |  16 H                |   110.83
    1 Si               |   5 C                |  17 H                |   110.84
   15 H                |   5 C                |  16 H                |   108.07
   15 H                |   5 C                |  17 H                |   108.07
   16 H                |   5 C                |  17 H                |   108.07
 ------------------------------------------------------------------------------
                            number of included internuclear angles:         30
 ==============================================================================



  library name resolved from: environment
  library file name is: </usr/share/nwchem/libraries/>
  


 Summary of "ao basis" -> "" (cartesian)
 ------------------------------------------------------------------------------
       Tag                 Description            Shells   Functions and Types
 ---------------- ------------------------------  ------  ---------------------
 *                      6-311++G(2d,2p)               on all atoms 


 
  Deleted DRIVER restart files 
 
 
                                 NWChem DFT Module
                                 -----------------
 
 
                                        TMS
 
 
                      Basis "ao basis" -> "ao basis" (cartesian)
                      -----
  Si (Silicon)
  ------------
            Exponent  Coefficients 
       -------------- ---------------------------------------------------------
  1 S  6.93792300E+04  0.000757
  1 S  1.03549400E+04  0.005932
  1 S  2.33387960E+03  0.031088
  1 S  6.57142950E+02  0.124967
  1 S  2.14301130E+02  0.386897
  1 S  7.76291680E+01  0.554888
 
  2 S  7.76291680E+01  0.177881
  2 S  3.06308070E+01  0.627765
  2 S  1.28012950E+01  0.247623
 
  3 S  3.92686600E+00  1.000000
 
  4 S  1.45234300E+00  1.000000
 
  5 S  2.56234000E-01  1.000000
 
  6 S  9.42790000E-02  1.000000
 
  7 P  3.35483190E+02  0.008866
  7 P  7.89003660E+01  0.068299
  7 P  2.49881500E+01  0.290958
  7 P  9.21971100E+00  0.732117
 
  8 P  3.62114000E+00  0.619879
  8 P  1.45131000E+00  0.439148
 
  9 P  5.04977000E-01  1.000000
 
 10 P  1.86317000E-01  1.000000
 
 11 P  6.54320000E-02  1.000000
 
 12 S  3.31000000E-02  1.000000
 
 13 P  3.31000000E-02  1.000000
 
 14 D  9.00000000E-01  1.000000
 
 15 D  2.25000000E-01  1.000000
 
  C (Carbon)
  ----------
            Exponent  Coefficients 
       -------------- ---------------------------------------------------------
  1 S  4.56324000E+03  0.001967
  1 S  6.82024000E+02  0.015231
  1 S  1.54973000E+02  0.076127
  1 S  4.44553000E+01  0.260801
  1 S  1.30290000E+01  0.616462
  1 S  1.82773000E+00  0.221006
 
  2 S  2.09642000E+01  0.114660
  2 S  4.80331000E+00  0.919999
  2 S  1.45933000E+00 -0.003031
 
  3 P  2.09642000E+01  0.040249
  3 P  4.80331000E+00  0.237594
  3 P  1.45933000E+00  0.815854
 
  4 S  4.83456000E-01  1.000000
 
  5 P  4.83456000E-01  1.000000
 
  6 S  1.45585000E-01  1.000000
 
  7 P  1.45585000E-01  1.000000
 
  8 S  4.38000000E-02  1.000000
 
  9 P  4.38000000E-02  1.000000
 
 10 D  1.25200000E+00  1.000000
 
 11 D  3.13000000E-01  1.000000
 
  H (Hydrogen)
  ------------
            Exponent  Coefficients 
       -------------- ---------------------------------------------------------
  1 S  3.38650000E+01  0.025494
  1 S  5.09479000E+00  0.190373
  1 S  1.15879000E+00  0.852161
 
  2 S  3.25840000E-01  1.000000
 
  3 S  1.02741000E-01  1.000000
 
  4 S  3.60000000E-02  1.000000
 
  5 P  1.50000000E+00  1.000000
 
  6 P  3.75000000E-01  1.000000
 


 Summary of "ao basis" -> "ao basis" (cartesian)
 ------------------------------------------------------------------------------
       Tag                 Description            Shells   Functions and Types
 ---------------- ------------------------------  ------  ---------------------
 Si                     6-311++G(2d,2p)             15       37   7s6p2d
 C                      6-311++G(2d,2p)             11       29   5s4p2d
 H                      6-311++G(2d,2p)              6       10   4s2p


 
 
 solvent parameters
 solvname_short: h2o     
 solvname_long:  water                              
 dielec:       78.4000
 dielecinf:     1.7769

          ---------------
          -cosmo- solvent
          ---------------
 Cosmo: York-Karplus, doi: 10.1021/jp992097l
 dielectric constant -eps-     =  78.40
 screen = (eps-1)/(eps    )    =   0.98724
 surface charge correction     = lagrangian
 -lineq- algorithm             =   0
 -bem- low  level              =   2
 -bem- from -octahedral-
 gaussian surface charge width =   0.98000
 degree of switching           =   1.00000
 switching function tolerance  =   0.00010
 atomic radii = 
 --------------
    1 14.000  2.457
    2  6.000  2.000
    3  6.000  2.000
    4  6.000  2.000
    5  6.000  2.000
    6  1.000  1.300
    7  1.000  1.300
    8  1.000  1.300
    9  1.000  1.300
   10  1.000  1.300
   11  1.000  1.300
   12  1.000  1.300
   13  1.000  1.300
   14  1.000  1.300
   15  1.000  1.300
   16  1.000  1.300
   17  1.000  1.300

 solvent accessible surface
 --------------------------

 ---------- ATOMIC COORDINATES (A.U.) ------------ VDWR(ANG.) --
     1    0.00019747   -0.00014144    0.00019439     2.457
     2   -2.92726088   -1.47605705    1.34868272     2.000
     3    0.98330245    2.73882758    2.02442974     2.000
     4   -0.66077066    1.14094558   -3.29006392     2.000
     5    2.60444659   -2.40356738   -0.08323042     2.000
     6   -3.53810768   -3.07991784    0.19871474     1.300
     7   -2.58892742   -2.15677417    3.26958750     1.300
     8   -4.47511136   -0.10956156    1.41621697     1.300
     9   -0.50683164    4.16753924    2.10194391     1.300
    10    1.37941974    2.12059701    3.95542477     1.300
    11    2.68883055    3.63172370    1.27482717     1.300
    12    1.02036272    2.01048477   -4.11801789     1.300
    13   -1.23883286   -0.42392340   -4.50856287     1.300
    14   -2.17505750    2.54627157   -3.29022469     1.300
    15    4.33383989   -1.58647664   -0.86400594     1.300
    16    3.02469085   -3.09790028    1.81658669     1.300
    17    2.07465517   -4.02097464   -1.25412049     1.300
 number of segments per atom =         32
 number of   points per atom =         32
 atom (   nspa,  nppa )
 ----------------------
    1 (     11,     0 )       0
    2 (     17,     0 )       0
    3 (     18,     0 )       0
    4 (     18,     0 )       0
    5 (     15,     0 )       0
    6 (     14,     0 )       0
    7 (     14,     0 )       0
    8 (     12,     0 )       0
    9 (     12,     0 )       0
   10 (     13,     0 )       0
   11 (     14,     0 )       0
   12 (     13,     0 )       0
   13 (     15,     0 )       0
   14 (     12,     0 )       0
   15 (     12,     0 )       0
   16 (     13,     0 )       0
   17 (     14,     0 )       0
 number of -cosmo- surface points =      237
 molecular surface =    152.221 angstrom**2
 molecular volume  =     86.268 angstrom**3
 G(cav/disp)       =      1.621 kcal/mol
 ...... end of -cosmo- initialization ......


  Caching 1-el integrals 
   Time after variat. SCF:      2.4
   Time prior to 1st pass:      2.4


         Total DFT energy =     -449.287805682531
      One electron energy =    -1104.232513911611
           Coulomb energy =      455.713522921161
    Exchange-Corr. energy =      -47.246858416019
 Nuclear repulsion energy =      246.523024086203

             COSMO energy =       -0.044980362264

 Numeric. integr. density =       49.999999640623

     Total iterative time =    399.5s


                                   COSMO solvation results
                                   -----------------------

                 gas phase energy =      -449.286082885585
                 sol phase energy =      -449.287805682531
 (electrostatic) solvation energy =         0.001722796946 (    1.08 kcal/mol)
 
 
                                NWChem Input Module
                                -------------------
 
 
                              NWChem Property Module
                              ----------------------
 
 
                                 NWChem DFT Module
                                 -----------------
 
 
                                        TMS
 
 
 
 
 solvent parameters
 solvname_short: h2o     
 solvname_long:  water                              
 dielec:       78.4000
 dielecinf:     1.7769

          ---------------
          -cosmo- solvent
          ---------------
 Cosmo: York-Karplus, doi: 10.1021/jp992097l
 dielectric constant -eps-     =  78.40
 screen = (eps-1)/(eps    )    =   0.98724
 surface charge correction     = lagrangian
 -lineq- algorithm             =   0
 -bem- low  level              =   2
 -bem- from -octahedral-
 gaussian surface charge width =   0.98000
 degree of switching           =   1.00000
 switching function tolerance  =   0.00010
 atomic radii = 
 --------------
    1 14.000  2.457
    2  6.000  2.000
    3  6.000  2.000
    4  6.000  2.000
    5  6.000  2.000
    6  1.000  1.300
    7  1.000  1.300
    8  1.000  1.300
    9  1.000  1.300
   10  1.000  1.300
   11  1.000  1.300
   12  1.000  1.300
   13  1.000  1.300
   14  1.000  1.300
   15  1.000  1.300
   16  1.000  1.300
   17  1.000  1.300

 solvent accessible surface
 --------------------------

 ---------- ATOMIC COORDINATES (A.U.) ------------ VDWR(ANG.) --
     1    0.00019747   -0.00014144    0.00019439     2.457
     2   -2.92726088   -1.47605705    1.34868272     2.000
     3    0.98330245    2.73882758    2.02442974     2.000
     4   -0.66077066    1.14094558   -3.29006392     2.000
     5    2.60444659   -2.40356738   -0.08323042     2.000
     6   -3.53810768   -3.07991784    0.19871474     1.300
     7   -2.58892742   -2.15677417    3.26958750     1.300
     8   -4.47511136   -0.10956156    1.41621697     1.300
     9   -0.50683164    4.16753924    2.10194391     1.300
    10    1.37941974    2.12059701    3.95542477     1.300
    11    2.68883055    3.63172370    1.27482717     1.300
    12    1.02036272    2.01048477   -4.11801789     1.300
    13   -1.23883286   -0.42392340   -4.50856287     1.300
    14   -2.17505750    2.54627157   -3.29022469     1.300
    15    4.33383989   -1.58647664   -0.86400594     1.300
    16    3.02469085   -3.09790028    1.81658669     1.300
    17    2.07465517   -4.02097464   -1.25412049     1.300
 number of segments per atom =         32
 number of   points per atom =         32
 atom (   nspa,  nppa )
 ----------------------
    1 (     11,     0 )       0
    2 (     17,     0 )       0
    3 (     18,     0 )       0
    4 (     18,     0 )       0
    5 (     15,     0 )       0
    6 (     14,     0 )       0
    7 (     14,     0 )       0
    8 (     12,     0 )       0
    9 (     12,     0 )       0
   10 (     13,     0 )       0
   11 (     14,     0 )       0
   12 (     13,     0 )       0
   13 (     15,     0 )       0
   14 (     12,     0 )       0
   15 (     12,     0 )       0
   16 (     13,     0 )       0
   17 (     14,     0 )       0
 number of -cosmo- surface points =      237
 molecular surface =    152.221 angstrom**2
 molecular volume  =     86.268 angstrom**3
 G(cav/disp)       =      1.621 kcal/mol
 ...... end of -cosmo- initialization ......


  Caching 1-el integrals 
   Time after variat. SCF:    402.4
   Time prior to 1st pass:    402.4


         Total DFT energy =     -449.287805740780
      One electron energy =    -1104.232520605030
           Coulomb energy =      455.713530706748
    Exchange-Corr. energy =      -47.246859709849
 Nuclear repulsion energy =      246.523024086203

             COSMO energy =       -0.044980218851

 Numeric. integr. density =       49.999999799720

     Total iterative time =    361.4s


                                   COSMO solvation results
                                   -----------------------

                 gas phase energy =      -449.286082939583
                 sol phase energy =      -449.287805740780
 (electrostatic) solvation energy =         0.001722801197 (    1.08 kcal/mol)

          -----------------------------------------
          Chemical Shielding Tensors (GIAO, in ppm)
          -----------------------------------------

    0 giaofock schwarz done =      86.88%
    0 giaofock schwarz done =      87.37%
 
 solvent parameters
 solvname_short: h2o     
 solvname_long:  water                              
 dielec:       78.4000
 dielecinf:     1.7769

          ---------------
          -cosmo- solvent
          ---------------
 Cosmo: York-Karplus, doi: 10.1021/jp992097l
 dielectric constant -eps-     =  78.40
 screen = (eps-1)/(eps    )    =   0.98724
 surface charge correction     = lagrangian
 -lineq- algorithm             =   0
 -bem- low  level              =   2
 -bem- from -octahedral-
 gaussian surface charge width =   0.98000
 degree of switching           =   1.00000
 switching function tolerance  =   0.00010
 atomic radii = 
 --------------
    1 14.000  2.457
    2  6.000  2.000
    3  6.000  2.000
    4  6.000  2.000
    5  6.000  2.000
    6  1.000  1.300
    7  1.000  1.300
    8  1.000  1.300
    9  1.000  1.300
   10  1.000  1.300
   11  1.000  1.300
   12  1.000  1.300
   13  1.000  1.300
   14  1.000  1.300
   15  1.000  1.300
   16  1.000  1.300
   17  1.000  1.300

 solvent accessible surface
 --------------------------

 ---------- ATOMIC COORDINATES (A.U.) ------------ VDWR(ANG.) --
     1    0.00019747   -0.00014144    0.00019439     2.457
     2   -2.92726088   -1.47605705    1.34868272     2.000
     3    0.98330245    2.73882758    2.02442974     2.000
     4   -0.66077066    1.14094558   -3.29006392     2.000
     5    2.60444659   -2.40356738   -0.08323042     2.000
     6   -3.53810768   -3.07991784    0.19871474     1.300
     7   -2.58892742   -2.15677417    3.26958750     1.300
     8   -4.47511136   -0.10956156    1.41621697     1.300
     9   -0.50683164    4.16753924    2.10194391     1.300
    10    1.37941974    2.12059701    3.95542477     1.300
    11    2.68883055    3.63172370    1.27482717     1.300
    12    1.02036272    2.01048477   -4.11801789     1.300
    13   -1.23883286   -0.42392340   -4.50856287     1.300
    14   -2.17505750    2.54627157   -3.29022469     1.300
    15    4.33383989   -1.58647664   -0.86400594     1.300
    16    3.02469085   -3.09790028    1.81658669     1.300
    17    2.07465517   -4.02097464   -1.25412049     1.300
 number of segments per atom =         32
 number of   points per atom =         32
 atom (   nspa,  nppa )
 ----------------------
    1 (     11,     0 )       0
    2 (     17,     0 )       0
    3 (     18,     0 )       0
    4 (     18,     0 )       0
    5 (     15,     0 )       0
    6 (     14,     0 )       0
    7 (     14,     0 )       0
    8 (     12,     0 )       0
    9 (     12,     0 )       0
   10 (     13,     0 )       0
   11 (     14,     0 )       0
   12 (     13,     0 )       0
   13 (     15,     0 )       0
   14 (     12,     0 )       0
   15 (     12,     0 )       0
   16 (     13,     0 )       0
   17 (     14,     0 )       0
 number of -cosmo- surface points =      237
 molecular surface =    152.221 angstrom**2
 molecular volume  =     86.268 angstrom**3
 G(cav/disp)       =      1.621 kcal/mol
 ...... end of -cosmo- initialization ......


 SCF residual:   1.161176257369471E-004

 Wrote CPHF data to ./molecule.shieldcphf

 Calc. par tensor-> nonrel
      Atom:    1  Si
        Diamagnetic
    885.1788      0.0189      0.0054
      0.0189    885.1845     -0.0136
      0.0054     -0.0136    885.1941

        Paramagnetic
   -556.3192      0.0825     -0.0701
      0.0825   -556.4120      0.1450
     -0.0701      0.1450   -556.3977

        Total Shielding Tensor
    328.8596      0.1014     -0.0647
      0.1014    328.7725      0.1314
     -0.0647      0.1314    328.7964

           isotropic =     328.8095
          anisotropy =       0.1865

          Principal Components and Axis System
                 1           2           3
              328.9338    328.8962    328.5985

      1         0.6230     -0.6632     -0.4148
      2         0.6906      0.2173      0.6898
      3         0.3674      0.7162     -0.5934



      Atom:    2  C 
        Diamagnetic
    255.7034      6.1607     -5.5914
      6.1607    246.8103     -2.8014
     -5.5914     -2.8014    246.4686

        Paramagnetic
    -68.3956     -3.3862      2.9497
     -3.3862    -63.8294      1.4879
      2.9497      1.4879    -63.5952

        Total Shielding Tensor
    187.3078      2.7745     -2.6417
      2.7745    182.9810     -1.3135
     -2.6417     -1.3135    182.8734

           isotropic =     184.3874
          anisotropy =       8.2706

          Principal Components and Axis System
                 1           2           3
              189.9011    181.6505    181.6106

      1         0.8281      0.5461     -0.1267
      2         0.4055     -0.4275      0.8080
      3        -0.3871      0.7205      0.5754



      Atom:    3  C 
        Diamagnetic
    245.0656      3.9429      2.8115
      3.9429    254.1219      7.8604
      2.8115      7.8604    249.4637

        Paramagnetic
    -62.9454     -2.1646     -1.5065
     -2.1646    -67.6634     -4.1681
     -1.5065     -4.1681    -65.1446

        Total Shielding Tensor
    182.1202      1.7783      1.3050
      1.7783    186.4585      3.6923
      1.3050      3.6923    184.3190

           isotropic =     184.2993
          anisotropy =       8.3431

          Principal Components and Axis System
                 1           2           3
              189.8613    181.5539    181.4825

      1         0.2740     -0.3462      0.8972
      2         0.7694     -0.4809     -0.4205
      3         0.5771      0.8055      0.1346



      Atom:    4  C 
        Diamagnetic
    244.1427     -0.9359      3.1521
     -0.9359    245.3789     -5.4119
      3.1521     -5.4119    258.9259

        Paramagnetic
    -62.2627      0.3635     -1.6347
      0.3635    -62.9349      2.8464
     -1.6347      2.8464    -70.1193

        Total Shielding Tensor
    181.8800     -0.5724      1.5174
     -0.5724    182.4440     -2.5655
      1.5174     -2.5655    188.8066

           isotropic =     184.3769
          anisotropy =       8.4866

          Principal Components and Axis System
                 1           2           3
              190.0346    181.5834    181.5127

      1         0.1950      0.7817      0.5924
      2        -0.3272     -0.5175      0.7906
      3         0.9246     -0.3480      0.1549



      Atom:    5  C 
        Diamagnetic
    253.1408     -8.9587     -0.2908
     -8.9587    251.6917      0.3048
     -0.2908      0.3048    243.3831

        Paramagnetic
    -66.9442      4.6738      0.1520
      4.6738    -66.2395     -0.1758
      0.1520     -0.1758    -61.9069

        Total Shielding Tensor
    186.1966     -4.2849     -0.1388
     -4.2849    185.4522      0.1290
     -0.1388      0.1290    181.4762

           isotropic =     184.3750
          anisotropy =       8.6319

          Principal Components and Axis System
                 1           2           3
              190.1296    181.5233    181.4720

      1         0.7369      0.6760     -0.0006
      2        -0.6757      0.7365     -0.0330
      3        -0.0219      0.0247      0.9995



      Atom:    6  H 
        Diamagnetic
     29.2415      6.4632      1.0537
      6.4632     33.6406      4.8502
      1.0537      4.8502     27.6000

        Paramagnetic
      1.7303     -2.7193      0.0605
     -2.7193      0.4799     -1.8927
      0.0605     -1.8927      2.5446

        Total Shielding Tensor
     30.9718      3.7439      1.1142
      3.7439     34.1204      2.9574
      1.1142      2.9574     30.1445

           isotropic =      31.7456
          anisotropy =       9.1531

          Principal Components and Axis System
                 1           2           3
               37.8476     29.3869     28.0022

      1         0.4896     -0.6637      0.5656
      2         0.7880      0.0590     -0.6128
      3         0.3733      0.7457      0.5519



      Atom:    7  H 
        Diamagnetic
     27.0944      1.6166     -1.0159
      1.6166     26.2952     -5.9967
     -1.0159     -5.9967     37.1787

        Paramagnetic
      2.2645     -0.9501      0.4346
     -0.9501      3.3816      2.4531
      0.4346      2.4531     -0.9360

        Total Shielding Tensor
     29.3589      0.6665     -0.5812
      0.6665     29.6768     -3.5436
     -0.5812     -3.5436     36.2427

           isotropic =      31.7594
          anisotropy =       9.1592

          Principal Components and Axis System
                 1           2           3
               37.8656     29.3957     28.0171

      1        -0.0937      0.9542     -0.2840
      2        -0.4018      0.2247      0.8877
      3         0.9109      0.1973      0.3624



      Atom:    8  H 
        Diamagnetic
     37.0604     -5.1784     -2.7207
     -5.1784     29.1625     -0.1841
     -2.7207     -0.1841     24.1680

        Paramagnetic
     -1.2164      1.6829      1.3359
      1.6829      1.8345      0.3615
      1.3359      0.3615      4.1863

        Total Shielding Tensor
     35.8439     -3.4955     -1.3848
     -3.4955     30.9970      0.1774
     -1.3848      0.1774     28.3543

           isotropic =      31.7317
          anisotropy =       9.1846

          Principal Components and Axis System
                 1           2           3
               37.8548     29.3610     27.9794

      1         0.8811      0.3782      0.2839
      2        -0.4527      0.8483      0.2749
      3        -0.1369     -0.3707      0.9186



      Atom:    9  H 
        Diamagnetic
     30.0085     -6.1917     -0.1905
     -6.1917     35.0938      3.6699
     -0.1905      3.6699     25.2097

        Paramagnetic
      1.6437      2.1844     -0.2830
      2.1844     -0.3683     -1.8154
     -0.2830     -1.8154      3.5775

        Total Shielding Tensor
     31.6523     -4.0073     -0.4735
     -4.0073     34.7255      1.8545
     -0.4735      1.8545     28.7872

           isotropic =      31.7216
          anisotropy =       9.1762

          Principal Components and Axis System
                 1           2           3
               37.8391     29.3511     27.9747

      1        -0.5436      0.7442     -0.3882
      2         0.8162      0.3609     -0.4512
      3         0.1957      0.5621      0.8036



      Atom:   10  H 
        Diamagnetic
     24.4323      0.5919      4.0064
      0.5919     27.0649     -0.2536
      4.0064     -0.2536     38.9424

        Paramagnetic
      4.1827     -0.4530     -1.6799
     -0.4530      2.2773     -0.1169
     -1.6799     -0.1169     -1.6897

        Total Shielding Tensor
     28.6151      0.1389      2.3265
      0.1389     29.3422     -0.3704
      2.3265     -0.3704     37.2527

           isotropic =      31.7367
          anisotropy =       9.1729

          Principal Components and Axis System
                 1           2           3
               37.8519     29.3676     27.9904

      1         0.2435      0.1700      0.9549
      2        -0.0382      0.9854     -0.1656
      3         0.9691     -0.0039     -0.2465



      Atom:   11  H 
        Diamagnetic
     33.8353      7.4444     -2.4770
      7.4444     30.4765      0.3513
     -2.4770      0.3513     26.2485

        Paramagnetic
      0.4275     -3.0064      1.0447
     -3.0064      1.3955     -0.6388
      1.0447     -0.6388      2.9381

        Total Shielding Tensor
     34.2628      4.4380     -1.4323
      4.4380     31.8720     -0.2875
     -1.4323     -0.2875     29.1867

           isotropic =      31.7739
          anisotropy =       9.1337

          Principal Components and Axis System
                 1           2           3
               37.8630     29.4158     28.0428

      1         0.7910     -0.2359     -0.5646
      2         0.5931      0.5221      0.6128
      3        -0.1502      0.8196     -0.5529



      Atom:   12  H 
        Diamagnetic
     31.9166      4.6413     -4.6281
      4.6413     26.7751     -4.9410
     -4.6281     -4.9410     31.7730

        Paramagnetic
      0.9309     -1.8001      1.4197
     -1.8001      3.2891      2.1531
      1.4197      2.1531      0.5921

        Total Shielding Tensor
     32.8474      2.8412     -3.2085
      2.8412     30.0642     -2.7879
     -3.2085     -2.7879     32.3651

           isotropic =      31.7589
          anisotropy =       9.1457

          Principal Components and Axis System
                 1           2           3
               37.8561     29.3957     28.0250

      1         0.6488      0.7064     -0.2829
      2         0.4549     -0.0620      0.8884
      3        -0.6100      0.7051      0.3616



      Atom:   13  H 
        Diamagnetic
     24.7170      2.6347      3.8999
      2.6347     30.7739      5.2435
      3.8999      5.2435     34.9155

        Paramagnetic
      4.1435     -1.0140     -1.6464
     -1.0140      1.2405     -1.6198
     -1.6464     -1.6198     -0.5591

        Total Shielding Tensor
     28.8605      1.6207      2.2535
      1.6207     32.0144      3.6236
      2.2535      3.6236     34.3564

           isotropic =      31.7438
          anisotropy =       9.1601

          Principal Components and Axis System
                 1           2           3
               37.8505     29.3775     28.0034

      1         0.2950     -0.0102      0.9554
      2         0.5618      0.8107     -0.1648
      3         0.7729     -0.5854     -0.2449



      Atom:   14  H 
        Diamagnetic
     31.2273     -7.7418      2.2472
     -7.7418     30.9095     -2.8859
      2.2472     -2.8859     28.2071

        Paramagnetic
      1.4968      3.1159     -0.8124
      3.1159      1.6306      1.2414
     -0.8124      1.2414      1.7228

        Total Shielding Tensor
     32.7242     -4.6259      1.4348
     -4.6259     32.5400     -1.6445
      1.4348     -1.6445     29.9299

           isotropic =      31.7313
          anisotropy =       9.1875

          Principal Components and Axis System
                 1           2           3
               37.8564     29.3525     27.9851

      1         0.6854     -0.2726      0.6752
      2        -0.6783      0.0982      0.7282
      3         0.2648      0.9571      0.1176



      Atom:   15  H 
        Diamagnetic
     38.0739      1.1070     -4.9050
      1.1070     27.0831     -1.4778
     -4.9050     -1.4778     25.2349

        Paramagnetic
     -1.4503     -0.0445      1.9241
     -0.0445      2.3842      0.7150
      1.9241      0.7150      3.9274

        Total Shielding Tensor
     36.6236      1.0625     -2.9809
      1.0625     29.4673     -0.7628
     -2.9809     -0.7628     29.1623

           isotropic =      31.7511
          anisotropy =       9.1578

          Principal Components and Axis System
                 1           2           3
               37.8563     29.3844     28.0126

      1         0.9314     -0.2273      0.2842
      2         0.1482      0.9502      0.2741
      3        -0.3324     -0.2132      0.9187



      Atom:   16  H 
        Diamagnetic
     27.4687     -4.4840      3.6333
     -4.4840     28.2545     -5.1950
      3.6333     -5.1950     34.6185

        Paramagnetic
      2.5314      2.2338     -1.1711
      2.2338      2.3636      1.8591
     -1.1711      1.8591     -0.0212

        Total Shielding Tensor
     30.0002     -2.2502      2.4622
     -2.2502     30.6181     -3.3358
      2.4622     -3.3358     34.5973

           isotropic =      31.7385
          anisotropy =       9.1668

          Principal Components and Axis System
                 1           2           3
               37.8497     29.3676     27.9983

      1         0.3851     -0.6285      0.6758
      2        -0.4827      0.4870      0.7279
      3         0.7866      0.6065      0.1158



      Atom:   17  H 
        Diamagnetic
     26.6142     -0.8680      1.1394
     -0.8680     36.1103      6.8125
      1.1394      6.8125     27.6731

        Paramagnetic
      2.5643      0.7161     -0.6597
      0.7161     -0.6158     -2.6701
     -0.6597     -2.6701      2.9106

        Total Shielding Tensor
     29.1785     -0.1519      0.4797
     -0.1519     35.4945      4.1424
      0.4797      4.1424     30.5837

           isotropic =      31.7522
          anisotropy =       9.1554

          Principal Components and Axis System
                 1           2           3
               37.8558     29.3855     28.0153

      1         0.0122      0.9208     -0.3899
      2         0.8685     -0.2030     -0.4522
      3         0.4955      0.3331      0.8022



 
 
                                NWChem Input Module
                                -------------------
 
 
 
 
                                     CITATION
                                     --------
                Please cite the following reference when publishing
                           results obtained with NWChem:
 
          E. Aprà, E. J. Bylaska, W. A. de Jong, N. Govind, K. Kowalski,
       T. P. Straatsma, M. Valiev, H. J. J. van Dam, Y. Alexeev, J. Anchell,
       V. Anisimov, F. W. Aquino, R. Atta-Fynn, J. Autschbach, N. P. Bauman,
     J. C. Becca, D. E. Bernholdt, K. Bhaskaran-Nair, S. Bogatko, P. Borowski,
        J. Boschen, J. Brabec, A. Bruner, E. Cauët, Y. Chen, G. N. Chuev,
      C. J. Cramer, J. Daily, M. J. O. Deegan, T. H. Dunning Jr., M. Dupuis,
   K. G. Dyall, G. I. Fann, S. A. Fischer, A. Fonari, H. Früchtl, L. Gagliardi,
      J. Garza, N. Gawande, S. Ghosh, K. Glaesemann, A. W. Götz, J. Hammond,
       V. Helms, E. D. Hermes, K. Hirao, S. Hirata, M. Jacquelin, L. Jensen,
   B. G. Johnson, H. Jónsson, R. A. Kendall, M. Klemm, R. Kobayashi, V. Konkov,
      S. Krishnamoorthy, M. Krishnan, Z. Lin, R. D. Lins, R. J. Littlefield,
      A. J. Logsdail, K. Lopata, W. Ma, A. V. Marenich, J. Martin del Campo,
   D. Mejia-Rodriguez, J. E. Moore, J. M. Mullin, T. Nakajima, D. R. Nascimento,
    J. A. Nichols, P. J. Nichols, J. Nieplocha, A. Otero-de-la-Roza, B. Palmer,
    A. Panyala, T. Pirojsirikul, B. Peng, R. Peverati, J. Pittner, L. Pollack,
   R. M. Richard, P. Sadayappan, G. C. Schatz, W. A. Shelton, D. W. Silverstein,
   D. M. A. Smith, T. A. Soares, D. Song, M. Swart, H. L. Taylor, G. S. Thomas,
            V. Tipparaju, D. G. Truhlar, K. Tsemekhman, T. Van Voorhis,
     Á. Vázquez-Mayagoitia, P. Verma, O. Villa, A. Vishnu, K. D. Vogiatzis,
        D. Wang, J. H. Weare, M. J. Williamson, T. L. Windus, K. Woliński,
        A. T. Wong, Q. Wu, C. Yang, Q. Yu, M. Zacharias, Z. Zhang, Y. Zhao,
                                and R. J. Harrison
                        "NWChem: Past, present, and future
                         J. Chem. Phys. 152, 184102 (2020)
                               doi:10.1063/5.0004997
 
                                      AUTHORS
                                      -------
     E. Apra, E. J. Bylaska, N. Govind, K. Kowalski, M. Valiev, W. A. de Jong,
      T. P. Straatsma, H. J. J. van Dam, D. Wang, T. L. Windus, N. P. Bauman,
       A. Panyala, J. Hammond, J. Autschbach, K. Bhaskaran-Nair, J. Brabec,
    K. Lopata, S. A. Fischer, S. Krishnamoorthy, M. Jacquelin, W. Ma, M. Klemm,
       O. Villa, Y. Chen, V. Anisimov, F. Aquino, S. Hirata, M. T. Hackler,
           Eric Hermes, L. Jensen, J. E. Moore, J. C. Becca, V. Konjkov,
            D. Mejia-Rodriguez, T. Risthaus, M. Malagoli, A. Marenich,
   A. Otero-de-la-Roza, J. Mullin, P. Nichols, R. Peverati, J. Pittner, Y. Zhao,
        P.-D. Fan, A. Fonari, M. J. Williamson, R. J. Harrison, J. R. Rehr,
      M. Dupuis, D. Silverstein, D. M. A. Smith, J. Nieplocha, V. Tipparaju,
      M. Krishnan, B. E. Van Kuiken, A. Vazquez-Mayagoitia, M. Swart, Q. Wu,
   T. Van Voorhis, A. A. Auer, M. Nooijen, L. D. Crosby, E. Brown, G. Cisneros,
     G. I. Fann, H. Fruchtl, J. Garza, K. Hirao, R. A. Kendall, J. A. Nichols,
       K. Tsemekhman, K. Wolinski, J. Anchell, D. E. Bernholdt, P. Borowski,
       T. Clark, D. Clerc, H. Dachsel, M. J. O. Deegan, K. Dyall, D. Elwood,
      E. Glendening, M. Gutowski, A. C. Hess, J. Jaffe, B. G. Johnson, J. Ju,
        R. Kobayashi, R. Kutteh, Z. Lin, R. Littlefield, X. Long, B. Meng,
      T. Nakajima, S. Niu, L. Pollack, M. Rosing, K. Glaesemann, G. Sandrone,
      M. Stave, H. Taylor, G. Thomas, J. H. van Lenthe, A. T. Wong, Z. Zhang.

 Total times  cpu:     2666.3s     wall:     2668.9s
