 argument  1 = /home/milias/Work/open-collection/theoretical_chemistry/projects/nmr_diplomovky/derivaty_markerov/derivative_2/nwchem/der2.nmr_b3lyp_ccpvdz_cosmo-chcl3.nw
 


============================== echo of input deck ==============================
echo

start molecule

memory total 40 gb

print low

title "der1"
charge 0

geometry units angstroms print xyz autosym
#  load format xyz VX.converged_geometry_blyp_tz2p-solvent-chcl3.xyz
#  load format xyz VX.geom.xyz
 # load format xyz der1.pbe0_tz2p_good_cosmo-chcl3_optimized_geom.xyz
  load format xyz der2.geopt_freq_nmr_pbe0_tz2p_good_cosmo-chcl3_converged_geometry.xyz
end

basis
  * library cc-pvdz
end

dft
  direct
  grid fine
  xc b3lyp
  mult 1
# Reduce output during geometry optimization
  #noprint "final vectors analysis"
end

property
  giao
  shielding
  spinspin
end

cosmo
  solvent chcl3
end

task dft energy
task dft property
================================================================================


                                         
                                         
 
 
             Northwest Computational Chemistry Package (NWChem) 7.0.1
             --------------------------------------------------------
 
 
                    Environmental Molecular Sciences Laboratory
                       Pacific Northwest National Laboratory
                                Richland, WA 99352
 
                              Copyright (c) 1994-2020
                       Pacific Northwest National Laboratory
                            Battelle Memorial Institute
 
             NWChem is an open-source computational chemistry package
                        distributed under the terms of the
                      Educational Community License (ECL) 2.0
             A copy of the license is included with this distribution
                              in the LICENSE.TXT file
 
                                  ACKNOWLEDGMENT
                                  --------------

            This software and its documentation were developed at the
            EMSL at Pacific Northwest National Laboratory, a multiprogram
            national laboratory, operated for the U.S. Department of Energy
            by Battelle under Contract Number DE-AC05-76RL01830. Support
            for this work was provided by the Department of Energy Office
            of Biological and Environmental Research, Office of Basic
            Energy Sciences, and the Office of Advanced Scientific Computing.


           Job information
           ---------------

    hostname        = comp16.grid.umb.sk
    program         = /home/milias/Work/qch/software/nwchem_suite/nwchem_master/bin/LINUX64/nwchem
    date            = Sun Sep  5 00:04:32 2021

    compiled        = Sun_Jan_31_23:21:07_2021
    source          = /home/milias/Work/qch/software/nwchem_suite/nwchem_master
    nwchem branch   = 7.0.0
    nwchem revision = nwchem_on_git-2308-gc943026
    ga revision     = 5.8.0
    use scalapack   = F
    input           = /home/milias/Work/open-collection/theoretical_chemistry/projects/nmr_diplomovky/derivaty_markerov/derivative_2/nwchem/der2.nmr_b3lyp_ccpvdz_cosmo-chcl3.nw
    prefix          = molecule.
    data base       = ./molecule.db
    status          = startup
    nproc           =       12
    time left       =     -1s



           Memory information
           ------------------

    heap     = 1342177278 doubles =  10240.0 Mbytes
    stack    = 1342177275 doubles =  10240.0 Mbytes
    global   = 2684354560 doubles =  20480.0 Mbytes (distinct from heap & stack)
    total    = 5368709113 doubles =  40960.0 Mbytes
    verify   = yes
    hardfail = no 


           Directory information
           ---------------------
 
  0 permanent = .
  0 scratch   = .
 
 
 
 
                                NWChem Input Module
                                -------------------
 
 
                                       der1
                                       ----

 Scaling coordinates for geometry "geometry" by  1.889725989
 (inverse scale =  0.529177249)


          ------
          auto-z
          ------
  no constraints, skipping   0.000000000000000E+000
  no constraints, skipping   0.000000000000000E+000
 
 
                             Geometry "geometry" -> ""
                             -------------------------
 
 Output coordinates in angstroms (scale by  1.889725989 to convert to a.u.)
 
  No.       Tag          Charge          X              Y              Z
 ---- ---------------- ---------- -------------- -------------- --------------
    1 O                    8.0000    -0.04341044    -0.73369813    -0.04085401
    2 P                   15.0000    -0.44611685     0.47703258    -1.05343430
    3 O                    8.0000     0.83720009     1.48585040    -1.04137126
    4 O                    8.0000    -1.28975000     1.37172392     0.02064437
    5 C                    6.0000     0.84108504     2.39610613     0.08887089
    6 C                    6.0000    -0.67674430     2.64706668     0.32804480
    7 C                    6.0000     1.53348750     1.72111364     1.26334319
    8 C                    6.0000     1.61284146     3.63086321    -0.32700096
    9 C                    6.0000    -1.26605170     3.67640246    -0.62378209
   10 C                    6.0000    -1.02568757     2.99451554     1.76012825
   11 H                    1.0000     1.66107846     2.42286749     2.08854573
   12 H                    1.0000     0.98002643     0.85289405     1.61631651
   13 H                    1.0000     2.52215176     1.39017053     0.94319721
   14 H                    1.0000     1.23639267     4.04556628    -1.26021739
   15 H                    1.0000     1.54820876     4.39619674     0.44881612
   16 H                    1.0000     2.66469413     3.37618356    -0.46141862
   17 H                    1.0000    -0.92294367     4.68206117    -0.37963408
   18 H                    1.0000    -1.00229208     3.45958160    -1.65979489
   19 H                    1.0000    -2.35248448     3.65478089    -0.53418895
   20 H                    1.0000    -0.51750808     3.91290247     2.06034667
   21 H                    1.0000    -2.10007263     3.16035386     1.84572717
   22 H                    1.0000    -0.74337543     2.19790863     2.44577211
   23 C                    6.0000     0.27747309    -2.00999264    -0.58709657
   24 C                    6.0000    -0.38988564    -3.07281736     0.26282843
   25 N                    7.0000    -0.04881684    -4.41716103    -0.16101358
   26 C                    6.0000     1.29387398    -4.79179613     0.23888988
   27 H                    1.0000    -2.00978854    -5.12664754     0.00115322
   28 H                    1.0000     1.51908242    -5.79393874    -0.12845467
   29 C                    6.0000    -1.00692680    -5.37744254     0.34913174
   30 H                    1.0000    -0.07040759    -2.08538831    -1.62252377
   31 H                    1.0000     1.36372261    -2.12034771    -0.58801192
   32 H                    1.0000    -1.47086993    -2.94513519     0.17386901
   33 H                    1.0000    -0.13145960    -2.89978976     1.32199975
   34 H                    1.0000    -1.02302957    -5.41235605     1.45178254
   35 H                    1.0000     1.41486849    -4.79273521     1.33573382
   36 H                    1.0000     2.03168980    -4.11023581    -0.18315365
   37 H                    1.0000    -0.75732086    -6.37537787    -0.01475063
 
      Atomic Mass 
      ----------- 
 
      O                 15.994910
      P                 30.973760
      C                 12.000000
      H                  1.007825
      N                 14.003070
 

 Effective nuclear repulsion energy (a.u.)    1268.2890542614

            Nuclear Dipole moment (a.u.) 
            ----------------------------
        X                 Y               Z
 ---------------- ---------------- ----------------
     0.0000000000    -0.0000000000    -0.0000000000
 


                                Z-matrix (autoz)
                                -------- 

 Units are Angstrom for bonds and degrees for angles
 
      Type          Name      I     J     K     L     M      Value
      ----------- --------  ----- ----- ----- ----- ----- ----------
    1 Stretch                  1     2                       1.62891
    2 Stretch                  1    23                       1.42488
    3 Stretch                  2     3                       1.63241
    4 Stretch                  2     4                       1.63274
    5 Stretch                  3     5                       1.45122
    6 Stretch                  4     6                       1.44802
    7 Stretch                  5     6                       1.55692
    8 Stretch                  5     7                       1.52132
    9 Stretch                  5     8                       1.51433
   10 Stretch                  6     9                       1.52079
   11 Stretch                  6    10                       1.51438
   12 Stretch                  7    11                       1.09073
   13 Stretch                  7    12                       1.08845
   14 Stretch                  7    13                       1.09063
   15 Stretch                  8    14                       1.08839
   16 Stretch                  8    15                       1.09170
   17 Stretch                  8    16                       1.09056
   18 Stretch                  9    17                       1.09027
   19 Stretch                  9    18                       1.09083
   20 Stretch                  9    19                       1.09034
   21 Stretch                 10    20                       1.09170
   22 Stretch                 10    21                       1.09047
   23 Stretch                 10    22                       1.08830
   24 Stretch                 23    24                       1.51570
   25 Stretch                 23    30                       1.09490
   26 Stretch                 23    31                       1.09184
   27 Stretch                 24    25                       1.45025
   28 Stretch                 24    32                       1.09213
   29 Stretch                 24    33                       1.10389
   30 Stretch                 25    26                       1.45020
   31 Stretch                 25    29                       1.44926
   32 Stretch                 26    28                       1.09085
   33 Stretch                 26    35                       1.10350
   34 Stretch                 26    36                       1.08950
   35 Stretch                 27    29                       1.09074
   36 Stretch                 29    34                       1.10332
   37 Stretch                 29    37                       1.09114
   38 Bend                     1     2     3               105.09322
   39 Bend                     1     2     4                97.24432
   40 Bend                     1    23    24               108.29843
   41 Bend                     1    23    30               110.65034
   42 Bend                     1    23    31               108.35489
   43 Bend                     2     1    23               118.89033
   44 Bend                     2     3     5               113.29639
   45 Bend                     2     4     6               113.79946
   46 Bend                     3     2     4                93.59475
   47 Bend                     3     5     6               102.59969
   48 Bend                     3     5     7               108.91586
   49 Bend                     3     5     8               107.39265
   50 Bend                     4     6     5               103.77626
   51 Bend                     4     6     9               107.41057
   52 Bend                     4     6    10               107.77501
   53 Bend                     5     6     9               112.99973
   54 Bend                     5     6    10               114.00959
   55 Bend                     5     7    11               110.60048
   56 Bend                     5     7    12               111.89103
   57 Bend                     5     7    13               108.69906
   58 Bend                     5     8    14               111.70835
   59 Bend                     5     8    15               110.26048
   60 Bend                     5     8    16               109.57130
   61 Bend                     6     5     7               113.36754
   62 Bend                     6     5     8               114.05402
   63 Bend                     6     9    17               111.23640
   64 Bend                     6     9    18               111.48121
   65 Bend                     6     9    19               108.73941
   66 Bend                     6    10    20               110.23103
   67 Bend                     6    10    21               109.64210
   68 Bend                     6    10    22               111.59641
   69 Bend                     7     5     8               109.98882
   70 Bend                     9     6    10               110.32149
   71 Bend                    11     7    12               109.10738
   72 Bend                    11     7    13               108.13573
   73 Bend                    12     7    13               108.30615
   74 Bend                    14     8    15               108.76819
   75 Bend                    14     8    16               108.47551
   76 Bend                    15     8    16               107.96347
   77 Bend                    17     9    18               108.65870
   78 Bend                    17     9    19               108.26819
   79 Bend                    18     9    19               108.36275
   80 Bend                    20    10    21               108.00518
   81 Bend                    20    10    22               108.76958
   82 Bend                    21    10    22               108.50842
   83 Bend                    23    24    25               112.49323
   84 Bend                    23    24    32               107.94779
   85 Bend                    23    24    33               108.96844
   86 Bend                    24    23    30               110.00532
   87 Bend                    24    23    31               111.57016
   88 Bend                    24    25    26               112.12447
   89 Bend                    24    25    29               110.84618
   90 Bend                    25    24    32               108.50258
   91 Bend                    25    24    33               111.75610
   92 Bend                    25    26    28               109.60969
   93 Bend                    25    26    35               112.07570
   94 Bend                    25    26    36               111.01255
   95 Bend                    25    29    27               110.07108
   96 Bend                    25    29    34               112.48276
   97 Bend                    25    29    37               109.71733
   98 Bend                    26    25    29               110.11168
   99 Bend                    27    29    34               108.22156
  100 Bend                    27    29    37               108.31394
  101 Bend                    28    26    35               108.13772
  102 Bend                    28    26    36               107.72453
  103 Bend                    30    23    31               107.95965
  104 Bend                    32    24    33               106.95061
  105 Bend                    34    29    37               107.91966
  106 Bend                    35    26    36               108.13856
  107 Torsion                  1     2     3     5         -82.12025
  108 Torsion                  1     2     4     6         113.85827
  109 Torsion                  1    23    24    25        -176.12111
  110 Torsion                  1    23    24    32          64.19786
  111 Torsion                  1    23    24    33         -51.61224
  112 Torsion                  2     1    23    24        -137.12910
  113 Torsion                  2     1    23    30         -16.48541
  114 Torsion                  2     1    23    31         101.69329
  115 Torsion                  2     3     5     6         -32.97790
  116 Torsion                  2     3     5     7          87.43406
  117 Torsion                  2     3     5     8        -153.48746
  118 Torsion                  2     4     6     5         -27.36425
  119 Torsion                  2     4     6     9          92.53668
  120 Torsion                  2     4     6    10        -148.59896
  121 Torsion                  3     2     1    23        -107.45302
  122 Torsion                  3     2     4     6           8.13516
  123 Torsion                  3     5     6     4          35.58340
  124 Torsion                  3     5     6     9         -80.44125
  125 Torsion                  3     5     6    10         152.53942
  126 Torsion                  3     5     7    11         173.06517
  127 Torsion                  3     5     7    12         -65.07036
  128 Torsion                  3     5     7    13          54.49165
  129 Torsion                  3     5     8    14          52.45457
  130 Torsion                  3     5     8    15         173.52527
  131 Torsion                  3     5     8    16         -67.78010
  132 Torsion                  4     2     1    23         156.82256
  133 Torsion                  4     2     3     5          16.37957
  134 Torsion                  4     6     5     7         -81.70273
  135 Torsion                  4     6     5     8         151.38095
  136 Torsion                  4     6     9    17         174.16519
  137 Torsion                  4     6     9    18         -64.38251
  138 Torsion                  4     6     9    19          55.02412
  139 Torsion                  4     6    10    20         175.53112
  140 Torsion                  4     6    10    21         -65.69739
  141 Torsion                  4     6    10    22          54.55373
  142 Torsion                  5     6     9    17         -71.99233
  143 Torsion                  5     6     9    18          49.45996
  144 Torsion                  5     6     9    19         168.86660
  145 Torsion                  5     6    10    20          60.91401
  146 Torsion                  5     6    10    21         179.68551
  147 Torsion                  5     6    10    22         -60.06338
  148 Torsion                  6     5     7    11         -73.40309
  149 Torsion                  6     5     7    12          48.46137
  150 Torsion                  6     5     7    13         168.02338
  151 Torsion                  6     5     8    14         -60.50894
  152 Torsion                  6     5     8    15          60.56176
  153 Torsion                  6     5     8    16         179.25638
  154 Torsion                  7     5     6     9         162.27262
  155 Torsion                  7     5     6    10          35.25328
  156 Torsion                  7     5     8    14         170.84182
  157 Torsion                  7     5     8    15         -68.08748
  158 Torsion                  7     5     8    16          50.60714
  159 Torsion                  8     5     6     9          35.35630
  160 Torsion                  8     5     6    10         -91.66304
  161 Torsion                  8     5     7    11          55.62065
  162 Torsion                  8     5     7    12         177.48511
  163 Torsion                  8     5     7    13         -62.95288
  164 Torsion                  9     6    10    20         -67.48137
  165 Torsion                  9     6    10    21          51.29013
  166 Torsion                  9     6    10    22         171.54124
  167 Torsion                 10     6     9    17          56.95186
  168 Torsion                 10     6     9    18         178.40416
  169 Torsion                 10     6     9    19         -62.18921
  170 Torsion                 23    24    25    26          75.38476
  171 Torsion                 23    24    25    29        -161.11140
  172 Torsion                 24    25    26    28        -178.11163
  173 Torsion                 24    25    26    35          61.81523
  174 Torsion                 24    25    26    36         -59.22630
  175 Torsion                 24    25    29    27          58.52919
  176 Torsion                 24    25    29    34         -62.23527
  177 Torsion                 24    25    29    37         177.62853
  178 Torsion                 25    24    23    30          62.83505
  179 Torsion                 25    24    23    31         -56.95262
  180 Torsion                 26    25    24    32        -165.25683
  181 Torsion                 26    25    24    33         -47.57453
  182 Torsion                 26    25    29    27        -176.81775
  183 Torsion                 26    25    29    34          62.41779
  184 Torsion                 26    25    29    37         -57.71840
  185 Torsion                 28    26    25    29          57.97336
  186 Torsion                 29    25    24    32         -41.75299
  187 Torsion                 29    25    24    33          75.92931
  188 Torsion                 29    25    26    35         -62.09978
  189 Torsion                 29    25    26    36         176.85868
  190 Torsion                 30    23    24    32         -56.84598
  191 Torsion                 30    23    24    33        -172.65608
  192 Torsion                 31    23    24    32        -176.63365
  193 Torsion                 31    23    24    33          67.55626
 
 
            XYZ format geometry
            -------------------
    37
 geometry
 O                    -0.04341044    -0.73369813    -0.04085401
 P                    -0.44611685     0.47703258    -1.05343430
 O                     0.83720009     1.48585040    -1.04137126
 O                    -1.28975000     1.37172392     0.02064437
 C                     0.84108504     2.39610613     0.08887089
 C                    -0.67674430     2.64706668     0.32804480
 C                     1.53348750     1.72111364     1.26334319
 C                     1.61284146     3.63086321    -0.32700096
 C                    -1.26605170     3.67640246    -0.62378209
 C                    -1.02568757     2.99451554     1.76012825
 H                     1.66107846     2.42286749     2.08854573
 H                     0.98002643     0.85289405     1.61631651
 H                     2.52215176     1.39017053     0.94319721
 H                     1.23639267     4.04556628    -1.26021739
 H                     1.54820876     4.39619674     0.44881612
 H                     2.66469413     3.37618356    -0.46141862
 H                    -0.92294367     4.68206117    -0.37963408
 H                    -1.00229208     3.45958160    -1.65979489
 H                    -2.35248448     3.65478089    -0.53418895
 H                    -0.51750808     3.91290247     2.06034667
 H                    -2.10007263     3.16035386     1.84572717
 H                    -0.74337543     2.19790863     2.44577211
 C                     0.27747309    -2.00999264    -0.58709657
 C                    -0.38988564    -3.07281736     0.26282843
 N                    -0.04881684    -4.41716103    -0.16101358
 C                     1.29387398    -4.79179613     0.23888988
 H                    -2.00978854    -5.12664754     0.00115322
 H                     1.51908242    -5.79393874    -0.12845467
 C                    -1.00692680    -5.37744254     0.34913174
 H                    -0.07040759    -2.08538831    -1.62252377
 H                     1.36372261    -2.12034771    -0.58801192
 H                    -1.47086993    -2.94513519     0.17386901
 H                    -0.13145960    -2.89978976     1.32199975
 H                    -1.02302957    -5.41235605     1.45178254
 H                     1.41486849    -4.79273521     1.33573382
 H                     2.03168980    -4.11023581    -0.18315365
 H                    -0.75732086    -6.37537787    -0.01475063
 
 ==============================================================================
                                internuclear distances
 ------------------------------------------------------------------------------
       center one      |      center two      | atomic units |  angstroms
 ------------------------------------------------------------------------------
    2 P                |   1 O                |     3.07820  |     1.62891
    3 O                |   2 P                |     3.08481  |     1.63241
    4 O                |   2 P                |     3.08543  |     1.63274
    5 C                |   3 O                |     2.74240  |     1.45122
    6 C                |   4 O                |     2.73637  |     1.44802
    6 C                |   5 C                |     2.94215  |     1.55692
    7 C                |   5 C                |     2.87488  |     1.52132
    8 C                |   5 C                |     2.86166  |     1.51433
    9 C                |   6 C                |     2.87387  |     1.52079
   10 C                |   6 C                |     2.86176  |     1.51438
   11 H                |   7 C                |     2.06119  |     1.09073
   12 H                |   7 C                |     2.05686  |     1.08845
   13 H                |   7 C                |     2.06099  |     1.09063
   14 H                |   8 C                |     2.05675  |     1.08839
   15 H                |   8 C                |     2.06301  |     1.09170
   16 H                |   8 C                |     2.06086  |     1.09056
   17 H                |   9 C                |     2.06030  |     1.09027
   18 H                |   9 C                |     2.06136  |     1.09083
   19 H                |   9 C                |     2.06043  |     1.09034
   20 H                |  10 C                |     2.06302  |     1.09170
   21 H                |  10 C                |     2.06070  |     1.09047
   22 H                |  10 C                |     2.05658  |     1.08830
   23 C                |   1 O                |     2.69263  |     1.42488
   24 C                |  23 C                |     2.86425  |     1.51570
   25 N                |  24 C                |     2.74058  |     1.45025
   26 C                |  25 N                |     2.74049  |     1.45020
   28 H                |  26 C                |     2.06140  |     1.09085
   29 C                |  25 N                |     2.73871  |     1.44926
   29 C                |  27 H                |     2.06120  |     1.09074
   30 H                |  23 C                |     2.06907  |     1.09490
   31 H                |  23 C                |     2.06328  |     1.09184
   32 H                |  24 C                |     2.06382  |     1.09213
   33 H                |  24 C                |     2.08604  |     1.10389
   34 H                |  29 C                |     2.08497  |     1.10332
   35 H                |  26 C                |     2.08531  |     1.10350
   36 H                |  26 C                |     2.05886  |     1.08950
   37 H                |  29 C                |     2.06196  |     1.09114
 ------------------------------------------------------------------------------
                         number of included internuclear distances:         37
 ==============================================================================



 ==============================================================================
                                 internuclear angles
 ------------------------------------------------------------------------------
        center 1       |       center 2       |       center 3       |  degrees
 ------------------------------------------------------------------------------
    2 P                |   1 O                |  23 C                |   118.89
    1 O                |   2 P                |   3 O                |   105.09
    1 O                |   2 P                |   4 O                |    97.24
    3 O                |   2 P                |   4 O                |    93.59
    2 P                |   3 O                |   5 C                |   113.30
    2 P                |   4 O                |   6 C                |   113.80
    3 O                |   5 C                |   6 C                |   102.60
    3 O                |   5 C                |   7 C                |   108.92
    3 O                |   5 C                |   8 C                |   107.39
    6 C                |   5 C                |   7 C                |   113.37
    6 C                |   5 C                |   8 C                |   114.05
    7 C                |   5 C                |   8 C                |   109.99
    4 O                |   6 C                |   5 C                |   103.78
    4 O                |   6 C                |   9 C                |   107.41
    4 O                |   6 C                |  10 C                |   107.78
    5 C                |   6 C                |   9 C                |   113.00
    5 C                |   6 C                |  10 C                |   114.01
    9 C                |   6 C                |  10 C                |   110.32
    5 C                |   7 C                |  11 H                |   110.60
    5 C                |   7 C                |  12 H                |   111.89
    5 C                |   7 C                |  13 H                |   108.70
   11 H                |   7 C                |  12 H                |   109.11
   11 H                |   7 C                |  13 H                |   108.14
   12 H                |   7 C                |  13 H                |   108.31
    5 C                |   8 C                |  14 H                |   111.71
    5 C                |   8 C                |  15 H                |   110.26
    5 C                |   8 C                |  16 H                |   109.57
   14 H                |   8 C                |  15 H                |   108.77
   14 H                |   8 C                |  16 H                |   108.48
   15 H                |   8 C                |  16 H                |   107.96
    6 C                |   9 C                |  17 H                |   111.24
    6 C                |   9 C                |  18 H                |   111.48
    6 C                |   9 C                |  19 H                |   108.74
   17 H                |   9 C                |  18 H                |   108.66
   17 H                |   9 C                |  19 H                |   108.27
   18 H                |   9 C                |  19 H                |   108.36
    6 C                |  10 C                |  20 H                |   110.23
    6 C                |  10 C                |  21 H                |   109.64
    6 C                |  10 C                |  22 H                |   111.60
   20 H                |  10 C                |  21 H                |   108.01
   20 H                |  10 C                |  22 H                |   108.77
   21 H                |  10 C                |  22 H                |   108.51
    1 O                |  23 C                |  24 C                |   108.30
    1 O                |  23 C                |  30 H                |   110.65
    1 O                |  23 C                |  31 H                |   108.35
   24 C                |  23 C                |  30 H                |   110.01
   24 C                |  23 C                |  31 H                |   111.57
   30 H                |  23 C                |  31 H                |   107.96
   23 C                |  24 C                |  25 N                |   112.49
   23 C                |  24 C                |  32 H                |   107.95
   23 C                |  24 C                |  33 H                |   108.97
   25 N                |  24 C                |  32 H                |   108.50
   25 N                |  24 C                |  33 H                |   111.76
   32 H                |  24 C                |  33 H                |   106.95
   24 C                |  25 N                |  26 C                |   112.12
   24 C                |  25 N                |  29 C                |   110.85
   26 C                |  25 N                |  29 C                |   110.11
   25 N                |  26 C                |  28 H                |   109.61
   25 N                |  26 C                |  35 H                |   112.08
   25 N                |  26 C                |  36 H                |   111.01
   28 H                |  26 C                |  35 H                |   108.14
   28 H                |  26 C                |  36 H                |   107.72
   35 H                |  26 C                |  36 H                |   108.14
   25 N                |  29 C                |  27 H                |   110.07
   25 N                |  29 C                |  34 H                |   112.48
   25 N                |  29 C                |  37 H                |   109.72
   27 H                |  29 C                |  34 H                |   108.22
   27 H                |  29 C                |  37 H                |   108.31
   34 H                |  29 C                |  37 H                |   107.92
 ------------------------------------------------------------------------------
                            number of included internuclear angles:         69
 ==============================================================================





 Summary of "ao basis" -> "" (cartesian)
 ------------------------------------------------------------------------------
       Tag                 Description            Shells   Functions and Types
 ---------------- ------------------------------  ------  ---------------------
 *                          cc-pvdz                   on all atoms 


 
                                 NWChem DFT Module
                                 -----------------
 
 
                                       der1
 
 
                      Basis "ao basis" -> "ao basis" (cartesian)
                      -----
  O (Oxygen)
  ----------
            Exponent  Coefficients 
       -------------- ---------------------------------------------------------
  1 S  1.17200000E+04  0.000710
  1 S  1.75900000E+03  0.005470
  1 S  4.00800000E+02  0.027837
  1 S  1.13700000E+02  0.104800
  1 S  3.70300000E+01  0.283062
  1 S  1.32700000E+01  0.448719
  1 S  5.02500000E+00  0.270952
  1 S  1.01300000E+00  0.015458
 
  2 S  1.17200000E+04 -0.000160
  2 S  1.75900000E+03 -0.001263
  2 S  4.00800000E+02 -0.006267
  2 S  1.13700000E+02 -0.025716
  2 S  3.70300000E+01 -0.070924
  2 S  1.32700000E+01 -0.165411
  2 S  5.02500000E+00 -0.116955
  2 S  1.01300000E+00  0.557368
 
  3 S  3.02300000E-01  1.000000
 
  4 P  1.77000000E+01  0.043018
  4 P  3.85400000E+00  0.228913
  4 P  1.04600000E+00  0.508728
 
  5 P  2.75300000E-01  1.000000
 
  6 D  1.18500000E+00  1.000000
 
  P (Phosphorous)
  ---------------
            Exponent  Coefficients 
       -------------- ---------------------------------------------------------
  1 S  9.48400000E+04  0.000256
  1 S  1.42200000E+04  0.001982
  1 S  3.23600000E+03  0.010276
  1 S  9.17100000E+02  0.041482
  1 S  2.99500000E+02  0.131984
  1 S  1.08100000E+02  0.308662
  1 S  4.21800000E+01  0.420647
  1 S  1.72800000E+01  0.222878
  1 S  4.85800000E+00  0.016403
  1 S  1.81800000E+00 -0.002543
  1 S  3.37200000E-01  0.000748
 
  2 S  9.48400000E+04 -0.000070
  2 S  1.42200000E+04 -0.000535
  2 S  3.23600000E+03 -0.002837
  2 S  9.17100000E+02 -0.011398
  2 S  2.99500000E+02 -0.039293
  2 S  1.08100000E+02 -0.099636
  2 S  4.21800000E+01 -0.197983
  2 S  1.72800000E+01 -0.114860
  2 S  4.85800000E+00  0.518595
  2 S  1.81800000E+00  0.601847
  2 S  3.37200000E-01  0.036861
 
  3 S  9.48400000E+04  0.000019
  3 S  1.42200000E+04  0.000147
  3 S  3.23600000E+03  0.000778
  3 S  9.17100000E+02  0.003145
  3 S  2.99500000E+02  0.010820
  3 S  1.08100000E+02  0.027996
  3 S  4.21800000E+01  0.056398
  3 S  1.72800000E+01  0.035819
  3 S  4.85800000E+00 -0.193387
  3 S  1.81800000E+00 -0.372097
  3 S  3.37200000E-01  0.624246
 
  4 S  1.23200000E-01  1.000000
 
  5 P  3.70500000E+02  0.003950
  5 P  8.73300000E+01  0.030249
  5 P  2.75900000E+01  0.129554
  5 P  1.00000000E+01  0.327594
  5 P  3.82500000E+00  0.456992
  5 P  1.49400000E+00  0.253086
  5 P  3.92100000E-01  0.016880
 
  6 P  3.70500000E+02 -0.000960
  6 P  8.73300000E+01 -0.007112
  6 P  2.75900000E+01 -0.032712
  6 P  1.00000000E+01 -0.079578
  6 P  3.82500000E+00 -0.135016
  6 P  1.49400000E+00 -0.009106
  6 P  3.92100000E-01  0.537802
 
  7 P  1.18600000E-01  1.000000
 
  8 D  3.73000000E-01  1.000000
 
  C (Carbon)
  ----------
            Exponent  Coefficients 
       -------------- ---------------------------------------------------------
  1 S  6.66500000E+03  0.000692
  1 S  1.00000000E+03  0.005329
  1 S  2.28000000E+02  0.027077
  1 S  6.47100000E+01  0.101718
  1 S  2.10600000E+01  0.274740
  1 S  7.49500000E+00  0.448564
  1 S  2.79700000E+00  0.285074
  1 S  5.21500000E-01  0.015204
 
  2 S  6.66500000E+03 -0.000146
  2 S  1.00000000E+03 -0.001154
  2 S  2.28000000E+02 -0.005725
  2 S  6.47100000E+01 -0.023312
  2 S  2.10600000E+01 -0.063955
  2 S  7.49500000E+00 -0.149981
  2 S  2.79700000E+00 -0.127262
  2 S  5.21500000E-01  0.544529
 
  3 S  1.59600000E-01  1.000000
 
  4 P  9.43900000E+00  0.038109
  4 P  2.00200000E+00  0.209480
  4 P  5.45600000E-01  0.508557
 
  5 P  1.51700000E-01  1.000000
 
  6 D  5.50000000E-01  1.000000
 
  H (Hydrogen)
  ------------
            Exponent  Coefficients 
       -------------- ---------------------------------------------------------
  1 S  1.30100000E+01  0.019685
  1 S  1.96200000E+00  0.137977
  1 S  4.44600000E-01  0.478148
 
  2 S  1.22000000E-01  1.000000
 
  3 P  7.27000000E-01  1.000000
 
  N (Nitrogen)
  ------------
            Exponent  Coefficients 
       -------------- ---------------------------------------------------------
  1 S  9.04600000E+03  0.000700
  1 S  1.35700000E+03  0.005389
  1 S  3.09300000E+02  0.027406
  1 S  8.77300000E+01  0.103207
  1 S  2.85600000E+01  0.278723
  1 S  1.02100000E+01  0.448540
  1 S  3.83800000E+00  0.278238
  1 S  7.46600000E-01  0.015440
 
  2 S  9.04600000E+03 -0.000153
  2 S  1.35700000E+03 -0.001208
  2 S  3.09300000E+02 -0.005992
  2 S  8.77300000E+01 -0.024544
  2 S  2.85600000E+01 -0.067459
  2 S  1.02100000E+01 -0.158078
  2 S  3.83800000E+00 -0.121831
  2 S  7.46600000E-01  0.549003
 
  3 S  2.24800000E-01  1.000000
 
  4 P  1.35500000E+01  0.039919
  4 P  2.91700000E+00  0.217169
  4 P  7.97300000E-01  0.510319
 
  5 P  2.18500000E-01  1.000000
 
  6 D  8.17000000E-01  1.000000
 


 Summary of "ao basis" -> "ao basis" (cartesian)
 ------------------------------------------------------------------------------
       Tag                 Description            Shells   Functions and Types
 ---------------- ------------------------------  ------  ---------------------
 O                          cc-pvdz                  6       15   3s2p1d
 P                          cc-pvdz                  8       19   4s3p1d
 C                          cc-pvdz                  6       15   3s2p1d
 H                          cc-pvdz                  3        5   2s1p
 N                          cc-pvdz                  6       15   3s2p1d


 
 
 solvent parameters
 solvname_short: chcl3   
 solvname_long:  chloroform                         
 dielec:        4.7113
 dielecinf:     2.0906

          ---------------
          -cosmo- solvent
          ---------------
 Cosmo: York-Karplus, doi: 10.1021/jp992097l
 dielectric constant -eps-     =   4.71
 screen = (eps-1)/(eps    )    =   0.78774
 surface charge correction     = lagrangian
 -lineq- algorithm             =   0
 -bem- low  level              =   2
 -bem- from -octahedral-
 gaussian surface charge width =   0.98000
 degree of switching           =   1.00000
 switching function tolerance  =   0.00010
 atomic radii = 
 --------------
    1  8.000  1.720
    2 15.000  2.106
    3  8.000  1.720
    4  8.000  1.720
    5  6.000  2.000
    6  6.000  2.000
    7  6.000  2.000
    8  6.000  2.000
    9  6.000  2.000
   10  6.000  2.000
   11  1.000  1.300
   12  1.000  1.300
   13  1.000  1.300
   14  1.000  1.300
   15  1.000  1.300
   16  1.000  1.300
   17  1.000  1.300
   18  1.000  1.300
   19  1.000  1.300
   20  1.000  1.300
   21  1.000  1.300
   22  1.000  1.300
   23  6.000  2.000
   24  6.000  2.000
   25  7.000  1.830
   26  6.000  2.000
   27  1.000  1.300
   28  1.000  1.300
   29  6.000  2.000
   30  1.000  1.300
   31  1.000  1.300
   32  1.000  1.300
   33  1.000  1.300
   34  1.000  1.300
   35  1.000  1.300
   36  1.000  1.300
   37  1.000  1.300

 solvent accessible surface
 --------------------------

 ---------- ATOMIC COORDINATES (A.U.) ------------ VDWR(ANG.) --
     1   -0.08203385   -1.38648842   -0.07720288     1.720
     2   -0.84303861    0.90146087   -1.99070217     2.106
     3    1.58207877    2.80785011   -1.96790633     1.720
     4   -2.43727410    2.59218234    0.03901221     1.720
     5    1.58942026    4.52798402    0.16794163     2.000
     6   -1.27886128    5.00223071    0.61991478     2.000
     7    2.89787117    3.25243318    2.38737245     2.000
     8    3.04782843    6.86133657   -0.61794220     2.000
     9   -2.39249080    6.94739328   -1.17877722     2.000
    10   -1.93826846    5.65881384    3.32616010     2.000
    11    3.13898314    4.57855566    3.94677914     1.300
    12    1.85198141    1.61173605    3.05439532     1.300
    13    4.76617572    2.62704139    1.78238428     1.300
    14    2.33644335    7.64501175   -2.38146555     1.300
    15    2.92569034    8.30760723    0.84813948     1.300
    16    5.03554175    6.38006181   -0.87195476     1.300
    17   -1.74411063    8.84781268   -0.71740438     1.300
    18   -1.89405739    6.53766125   -3.13655753     1.300
    19   -4.44555107    6.90653443   -1.00947074     1.300
    20   -0.97794846    7.39431349    3.89349065     1.300
    21   -3.96856183    5.97220281    3.48791860     1.300
    22   -1.40477587    4.15344506    4.62183912     1.300
    23    0.52434811   -3.79833533   -1.10945164     2.000
    24   -0.73677702   -5.80678282    0.49667372     2.000
    25   -0.09225046   -8.34722400   -0.30427155     1.830
    26    2.44506729   -9.05518169    0.45143642     2.000
    27   -3.79794963   -9.68795910    0.00217926     1.300
    28    2.87064952  -10.94895662   -0.24274413     1.300
    29   -1.90281575  -10.16189292    0.65976332     2.000
    30   -0.13305105   -3.94081249   -3.06612533     1.300
    31    2.57706206   -4.00687618   -1.11118141     1.300
    32   -2.77954114   -5.56549851    0.32856479     1.300
    33   -0.24842261   -5.47980808    2.49821728     1.300
    34   -1.93324556  -10.22786988    2.74347119     1.300
    35    2.67371376   -9.05695629    2.52417092     1.300
    36    3.83933702   -7.76721943   -0.34611021     1.300
    37   -1.43112891  -12.04771726   -0.02787465     1.300
 number of segments per atom =         32
 number of   points per atom =         32
 atom (   nspa,  nppa )
 ----------------------
    1 (     10,     0 )       0
    2 (     13,     0 )       0
    3 (     14,     0 )       0
    4 (     10,     0 )       0
    5 (      2,     0 )       0
    6 (      2,     0 )       0
    7 (     14,     0 )       0
    8 (     15,     0 )       0
    9 (     12,     0 )       0
   10 (     12,     0 )       0
   11 (     13,     0 )       0
   12 (     12,     0 )       0
   13 (     13,     0 )       0
   14 (     11,     0 )       0
   15 (     12,     0 )       0
   16 (     15,     0 )       0
   17 (     13,     0 )       0
   18 (     14,     0 )       0
   19 (     16,     0 )       0
   20 (     14,     0 )       0
   21 (     14,     0 )       0
   22 (     14,     0 )       0
   23 (     10,     0 )       0
   24 (      9,     0 )       0
   25 (      6,     0 )       0
   26 (     15,     0 )       0
   27 (     14,     0 )       0
   28 (     13,     0 )       0
   29 (     15,     0 )       0
   30 (     12,     0 )       0
   31 (     14,     0 )       0
   32 (     14,     0 )       0
   33 (     14,     0 )       0
   34 (     16,     0 )       0
   35 (     16,     0 )       0
   36 (     12,     0 )       0
   37 (     14,     0 )       0
 number of -cosmo- surface points =      459
 molecular surface =    278.311 angstrom**2
 molecular volume  =    152.827 angstrom**3
 G(cav/disp)       =      2.252 kcal/mol
 ...... end of -cosmo- initialization ......


  Caching 1-el integrals 
   Time after variat. SCF:     13.3
   Time prior to 1st pass:     13.3
  Resetting Diis


         Total DFT energy =    -1016.170580497421
      One electron energy =    -3911.466148377724
           Coulomb energy =     1744.859164157321
    Exchange-Corr. energy =     -118.728521913955
 Nuclear repulsion energy =     1268.289054261353

             COSMO energy =        0.875871375583

 Numeric. integr. density =      127.999983226128

     Total iterative time =    587.5s


                                   COSMO solvation results
                                   -----------------------

                 gas phase energy =     -1016.162223004975
                 sol phase energy =     -1016.170580497421
 (electrostatic) solvation energy =         0.008357492447 (    5.24 kcal/mol)
 
 
                                NWChem Input Module
                                -------------------
 
 
                              NWChem Property Module
                              ----------------------
 
 
                                 NWChem DFT Module
                                 -----------------
 
 
                                       der1
 
 
 
 
 solvent parameters
 solvname_short: chcl3   
 solvname_long:  chloroform                         
 dielec:        4.7113
 dielecinf:     2.0906

          ---------------
          -cosmo- solvent
          ---------------
 Cosmo: York-Karplus, doi: 10.1021/jp992097l
 dielectric constant -eps-     =   4.71
 screen = (eps-1)/(eps    )    =   0.78774
 surface charge correction     = lagrangian
 -lineq- algorithm             =   0
 -bem- low  level              =   2
 -bem- from -octahedral-
 gaussian surface charge width =   0.98000
 degree of switching           =   1.00000
 switching function tolerance  =   0.00010
 atomic radii = 
 --------------
    1  8.000  1.720
    2 15.000  2.106
    3  8.000  1.720
    4  8.000  1.720
    5  6.000  2.000
    6  6.000  2.000
    7  6.000  2.000
    8  6.000  2.000
    9  6.000  2.000
   10  6.000  2.000
   11  1.000  1.300
   12  1.000  1.300
   13  1.000  1.300
   14  1.000  1.300
   15  1.000  1.300
   16  1.000  1.300
   17  1.000  1.300
   18  1.000  1.300
   19  1.000  1.300
   20  1.000  1.300
   21  1.000  1.300
   22  1.000  1.300
   23  6.000  2.000
   24  6.000  2.000
   25  7.000  1.830
   26  6.000  2.000
   27  1.000  1.300
   28  1.000  1.300
   29  6.000  2.000
   30  1.000  1.300
   31  1.000  1.300
   32  1.000  1.300
   33  1.000  1.300
   34  1.000  1.300
   35  1.000  1.300
   36  1.000  1.300
   37  1.000  1.300

 solvent accessible surface
 --------------------------

 ---------- ATOMIC COORDINATES (A.U.) ------------ VDWR(ANG.) --
     1   -0.08203385   -1.38648842   -0.07720288     1.720
     2   -0.84303861    0.90146087   -1.99070217     2.106
     3    1.58207877    2.80785011   -1.96790633     1.720
     4   -2.43727410    2.59218234    0.03901221     1.720
     5    1.58942026    4.52798402    0.16794163     2.000
     6   -1.27886128    5.00223071    0.61991478     2.000
     7    2.89787117    3.25243318    2.38737245     2.000
     8    3.04782843    6.86133657   -0.61794220     2.000
     9   -2.39249080    6.94739328   -1.17877722     2.000
    10   -1.93826846    5.65881384    3.32616010     2.000
    11    3.13898314    4.57855566    3.94677914     1.300
    12    1.85198141    1.61173605    3.05439532     1.300
    13    4.76617572    2.62704139    1.78238428     1.300
    14    2.33644335    7.64501175   -2.38146555     1.300
    15    2.92569034    8.30760723    0.84813948     1.300
    16    5.03554175    6.38006181   -0.87195476     1.300
    17   -1.74411063    8.84781268   -0.71740438     1.300
    18   -1.89405739    6.53766125   -3.13655753     1.300
    19   -4.44555107    6.90653443   -1.00947074     1.300
    20   -0.97794846    7.39431349    3.89349065     1.300
    21   -3.96856183    5.97220281    3.48791860     1.300
    22   -1.40477587    4.15344506    4.62183912     1.300
    23    0.52434811   -3.79833533   -1.10945164     2.000
    24   -0.73677702   -5.80678282    0.49667372     2.000
    25   -0.09225046   -8.34722400   -0.30427155     1.830
    26    2.44506729   -9.05518169    0.45143642     2.000
    27   -3.79794963   -9.68795910    0.00217926     1.300
    28    2.87064952  -10.94895662   -0.24274413     1.300
    29   -1.90281575  -10.16189292    0.65976332     2.000
    30   -0.13305105   -3.94081249   -3.06612533     1.300
    31    2.57706206   -4.00687618   -1.11118141     1.300
    32   -2.77954114   -5.56549851    0.32856479     1.300
    33   -0.24842261   -5.47980808    2.49821728     1.300
    34   -1.93324556  -10.22786988    2.74347119     1.300
    35    2.67371376   -9.05695629    2.52417092     1.300
    36    3.83933702   -7.76721943   -0.34611021     1.300
    37   -1.43112891  -12.04771726   -0.02787465     1.300
 number of segments per atom =         32
 number of   points per atom =         32
 atom (   nspa,  nppa )
 ----------------------
    1 (     10,     0 )       0
    2 (     13,     0 )       0
    3 (     14,     0 )       0
    4 (     10,     0 )       0
    5 (      2,     0 )       0
    6 (      2,     0 )       0
    7 (     14,     0 )       0
    8 (     15,     0 )       0
    9 (     12,     0 )       0
   10 (     12,     0 )       0
   11 (     13,     0 )       0
   12 (     12,     0 )       0
   13 (     13,     0 )       0
   14 (     11,     0 )       0
   15 (     12,     0 )       0
   16 (     15,     0 )       0
   17 (     13,     0 )       0
   18 (     14,     0 )       0
   19 (     16,     0 )       0
   20 (     14,     0 )       0
   21 (     14,     0 )       0
   22 (     14,     0 )       0
   23 (     10,     0 )       0
   24 (      9,     0 )       0
   25 (      6,     0 )       0
   26 (     15,     0 )       0
   27 (     14,     0 )       0
   28 (     13,     0 )       0
   29 (     15,     0 )       0
   30 (     12,     0 )       0
   31 (     14,     0 )       0
   32 (     14,     0 )       0
   33 (     14,     0 )       0
   34 (     16,     0 )       0
   35 (     16,     0 )       0
   36 (     12,     0 )       0
   37 (     14,     0 )       0
 number of -cosmo- surface points =      459
 molecular surface =    278.311 angstrom**2
 molecular volume  =    152.827 angstrom**3
 G(cav/disp)       =      2.252 kcal/mol
 ...... end of -cosmo- initialization ......


  Caching 1-el integrals 
   Time after variat. SCF:    601.4
   Time prior to 1st pass:    601.4


         Total DFT energy =    -1016.170580533647
      One electron energy =    -3911.467141373733
           Coulomb energy =     1744.860123691957
    Exchange-Corr. energy =     -118.728646372948
 Nuclear repulsion energy =     1268.289054261353

             COSMO energy =        0.876029259724

 Numeric. integr. density =      127.999983216820

     Total iterative time =    545.7s


                                   COSMO solvation results
                                   -----------------------

                 gas phase energy =     -1016.162223000859
                 sol phase energy =     -1016.170580533647
 (electrostatic) solvation energy =         0.008357532788 (    5.24 kcal/mol)

      -----------------------------------
      Indirect Spin-Spin Coupling Tensors
      -----------------------------------


      Indirect spin-spin coupling not calculated for RHF
      wave functions: needs UHF wave function

          -----------------------------------------
          Chemical Shielding Tensors (GIAO, in ppm)
          -----------------------------------------

    0 giaofock schwarz done =      46.54%
    0 giaofock schwarz done =      45.21%
 
 solvent parameters
 solvname_short: chcl3   
 solvname_long:  chloroform                         
 dielec:        4.7113
 dielecinf:     2.0906

          ---------------
          -cosmo- solvent
          ---------------
 Cosmo: York-Karplus, doi: 10.1021/jp992097l
 dielectric constant -eps-     =   4.71
 screen = (eps-1)/(eps    )    =   0.78774
 surface charge correction     = lagrangian
 -lineq- algorithm             =   0
 -bem- low  level              =   2
 -bem- from -octahedral-
 gaussian surface charge width =   0.98000
 degree of switching           =   1.00000
 switching function tolerance  =   0.00010
 atomic radii = 
 --------------
    1  8.000  1.720
    2 15.000  2.106
    3  8.000  1.720
    4  8.000  1.720
    5  6.000  2.000
    6  6.000  2.000
    7  6.000  2.000
    8  6.000  2.000
    9  6.000  2.000
   10  6.000  2.000
   11  1.000  1.300
   12  1.000  1.300
   13  1.000  1.300
   14  1.000  1.300
   15  1.000  1.300
   16  1.000  1.300
   17  1.000  1.300
   18  1.000  1.300
   19  1.000  1.300
   20  1.000  1.300
   21  1.000  1.300
   22  1.000  1.300
   23  6.000  2.000
   24  6.000  2.000
   25  7.000  1.830
   26  6.000  2.000
   27  1.000  1.300
   28  1.000  1.300
   29  6.000  2.000
   30  1.000  1.300
   31  1.000  1.300
   32  1.000  1.300
   33  1.000  1.300
   34  1.000  1.300
   35  1.000  1.300
   36  1.000  1.300
   37  1.000  1.300

 solvent accessible surface
 --------------------------

 ---------- ATOMIC COORDINATES (A.U.) ------------ VDWR(ANG.) --
     1   -0.08203385   -1.38648842   -0.07720288     1.720
     2   -0.84303861    0.90146087   -1.99070217     2.106
     3    1.58207877    2.80785011   -1.96790633     1.720
     4   -2.43727410    2.59218234    0.03901221     1.720
     5    1.58942026    4.52798402    0.16794163     2.000
     6   -1.27886128    5.00223071    0.61991478     2.000
     7    2.89787117    3.25243318    2.38737245     2.000
     8    3.04782843    6.86133657   -0.61794220     2.000
     9   -2.39249080    6.94739328   -1.17877722     2.000
    10   -1.93826846    5.65881384    3.32616010     2.000
    11    3.13898314    4.57855566    3.94677914     1.300
    12    1.85198141    1.61173605    3.05439532     1.300
    13    4.76617572    2.62704139    1.78238428     1.300
    14    2.33644335    7.64501175   -2.38146555     1.300
    15    2.92569034    8.30760723    0.84813948     1.300
    16    5.03554175    6.38006181   -0.87195476     1.300
    17   -1.74411063    8.84781268   -0.71740438     1.300
    18   -1.89405739    6.53766125   -3.13655753     1.300
    19   -4.44555107    6.90653443   -1.00947074     1.300
    20   -0.97794846    7.39431349    3.89349065     1.300
    21   -3.96856183    5.97220281    3.48791860     1.300
    22   -1.40477587    4.15344506    4.62183912     1.300
    23    0.52434811   -3.79833533   -1.10945164     2.000
    24   -0.73677702   -5.80678282    0.49667372     2.000
    25   -0.09225046   -8.34722400   -0.30427155     1.830
    26    2.44506729   -9.05518169    0.45143642     2.000
    27   -3.79794963   -9.68795910    0.00217926     1.300
    28    2.87064952  -10.94895662   -0.24274413     1.300
    29   -1.90281575  -10.16189292    0.65976332     2.000
    30   -0.13305105   -3.94081249   -3.06612533     1.300
    31    2.57706206   -4.00687618   -1.11118141     1.300
    32   -2.77954114   -5.56549851    0.32856479     1.300
    33   -0.24842261   -5.47980808    2.49821728     1.300
    34   -1.93324556  -10.22786988    2.74347119     1.300
    35    2.67371376   -9.05695629    2.52417092     1.300
    36    3.83933702   -7.76721943   -0.34611021     1.300
    37   -1.43112891  -12.04771726   -0.02787465     1.300
 number of segments per atom =         32
 number of   points per atom =         32
 atom (   nspa,  nppa )
 ----------------------
    1 (     10,     0 )       0
    2 (     13,     0 )       0
    3 (     14,     0 )       0
    4 (     10,     0 )       0
    5 (      2,     0 )       0
    6 (      2,     0 )       0
    7 (     14,     0 )       0
    8 (     15,     0 )       0
    9 (     12,     0 )       0
   10 (     12,     0 )       0
   11 (     13,     0 )       0
   12 (     12,     0 )       0
   13 (     13,     0 )       0
   14 (     11,     0 )       0
   15 (     12,     0 )       0
   16 (     15,     0 )       0
   17 (     13,     0 )       0
   18 (     14,     0 )       0
   19 (     16,     0 )       0
   20 (     14,     0 )       0
   21 (     14,     0 )       0
   22 (     14,     0 )       0
   23 (     10,     0 )       0
   24 (      9,     0 )       0
   25 (      6,     0 )       0
   26 (     15,     0 )       0
   27 (     14,     0 )       0
   28 (     13,     0 )       0
   29 (     15,     0 )       0
   30 (     12,     0 )       0
   31 (     14,     0 )       0
   32 (     14,     0 )       0
   33 (     14,     0 )       0
   34 (     16,     0 )       0
   35 (     16,     0 )       0
   36 (     12,     0 )       0
   37 (     14,     0 )       0
 number of -cosmo- surface points =      459
 molecular surface =    278.311 angstrom**2
 molecular volume  =    152.827 angstrom**3
 G(cav/disp)       =      2.252 kcal/mol
 ...... end of -cosmo- initialization ......


 SCF residual:   7.120912195349108E-005

 Wrote CPHF data to ./molecule.shieldcphf

 Calc. par tensor-> nonrel
      Atom:    1  O 
        Diamagnetic
    370.3882    -13.4219      2.1466
    -13.4219    418.5448     -4.4109
      2.1466     -4.4109    378.1461

        Paramagnetic
   -138.5895     14.2744      2.0929
     14.2744   -309.4902    -99.3945
      2.0929    -99.3945   -135.6382

        Total Shielding Tensor
    231.7987      0.8525      4.2396
      0.8525    109.0546   -103.8054
      4.2396   -103.8054    242.5079

           isotropic =     194.4538
          anisotropy =     157.3378

          Principal Components and Axis System
                 1           2           3
              299.3456    231.6793     52.3364

      1         0.0490      0.9987     -0.0155
      2        -0.4781      0.0371      0.8775
      3         0.8769     -0.0356      0.4793



      Atom:    2  P 
        Diamagnetic
    963.8499     -0.3823     -0.6494
     -0.3823    974.1962      0.4450
     -0.6494      0.4450    962.7192

        Paramagnetic
   -735.4772      3.9223     64.6248
      3.9223   -789.2072     -3.6905
     64.6248     -3.6905   -634.5523

        Total Shielding Tensor
    228.3727      3.5400     63.9755
      3.5400    184.9890     -3.2455
     63.9755     -3.2455    328.1669

           isotropic =     247.1762
          anisotropy =     168.3561

          Principal Components and Axis System
                 1           2           3
              359.4136    198.6839    183.4311

      1         0.4385      0.8530     -0.2830
      2        -0.0078      0.3185      0.9479
      3         0.8987     -0.4135      0.1463



      Atom:    3  O 
        Diamagnetic
    387.6205     16.6498      2.7578
     16.6498    398.6819     15.3256
      2.7578     15.3256    384.7692

        Paramagnetic
   -162.8547      8.5800     25.0618
      8.5800   -204.0270     11.5560
     25.0618     11.5560   -258.3582

        Total Shielding Tensor
    224.7657     25.2298     27.8196
     25.2298    194.6549     26.8817
     27.8196     26.8817    126.4110

           isotropic =     181.9439
          anisotropy =     102.8672

          Principal Components and Axis System
                 1           2           3
              250.5220    181.4995    113.8101

      1         0.8113     -0.5566     -0.1789
      2         0.5067      0.8221     -0.2597
      3         0.2916      0.1201      0.9490



      Atom:    4  O 
        Diamagnetic
    381.0620     -0.6437     -5.9896
     -0.6437    404.7229     21.4105
     -5.9896     21.4105    383.2813

        Paramagnetic
   -217.8607     10.8704    -48.7435
     10.8704   -182.3607      6.5656
    -48.7435      6.5656   -188.9232

        Total Shielding Tensor
    163.2014     10.2267    -54.7331
     10.2267    222.3622     27.9761
    -54.7331     27.9761    194.3580

           isotropic =     193.3072
          anisotropy =      82.3370

          Principal Components and Axis System
                 1           2           3
              248.1985    215.8515    115.8716

      1        -0.3770      0.5341      0.7567
      2         0.6077      0.7592     -0.2331
      3         0.6990     -0.3719      0.6108



      Atom:    5  C 
        Diamagnetic
    246.4339      2.7350      1.2254
      2.7350    245.8503      1.6897
      1.2254      1.6897    243.2708

        Paramagnetic
   -153.7903     -7.1728     -3.2190
     -7.1728   -132.5159     28.0653
     -3.2190     28.0653   -122.1162

        Total Shielding Tensor
     92.6436     -4.4379     -1.9936
     -4.4379    113.3344     29.7550
     -1.9936     29.7550    121.1546

           isotropic =     109.0442
          anisotropy =      57.8517

          Principal Components and Axis System
                 1           2           3
              147.6120     92.9924     86.5282

      1        -0.0803      0.9408      0.3294
      2         0.6593     -0.1977      0.7254
      3         0.7476      0.2755     -0.6044



      Atom:    6  C 
        Diamagnetic
    244.4764     -2.0647     -1.6603
     -2.0647    248.0170      2.6566
     -1.6603      2.6566    242.6360

        Paramagnetic
   -139.5015     24.8500      4.2051
     24.8500   -114.4972     10.9214
      4.2051     10.9214   -160.0456

        Total Shielding Tensor
    104.9749     22.7853      2.5449
     22.7853    133.5199     13.5780
      2.5449     13.5780     82.5904

           isotropic =     107.0284
          anisotropy =      62.5758

          Principal Components and Axis System
                 1           2           3
              148.7456     93.6782     78.6614

      1         0.4618      0.8701      0.1721
      2         0.8652     -0.3991     -0.3035
      3         0.1953     -0.2890      0.9372



      Atom:    7  C 
        Diamagnetic
    245.8245     -0.6926      5.8367
     -0.6926    243.7277     -0.8366
      5.8367     -0.8366    248.4496

        Paramagnetic
    -87.1130     -5.7402      4.0076
     -5.7402    -79.9058     -7.8550
      4.0076     -7.8550    -71.3839

        Total Shielding Tensor
    158.7115     -6.4328      9.8443
     -6.4328    163.8219     -8.6915
      9.8443     -8.6915    177.0656

           isotropic =     166.5330
          anisotropy =      29.6829

          Principal Components and Axis System
                 1           2           3
              186.3216    159.7808    153.4966

      1         0.3903     -0.1847      0.9020
      2        -0.4267      0.8318      0.3550
      3         0.8158      0.5235     -0.2458



      Atom:    8  C 
        Diamagnetic
    246.2524      5.6170     -1.0068
      5.6170    249.9251     -1.2957
     -1.0068     -1.2957    241.5535

        Paramagnetic
    -82.0358      7.4724      0.8341
      7.4724    -69.0746     -9.8064
      0.8341     -9.8064    -79.7621

        Total Shielding Tensor
    164.2166     13.0894     -0.1727
     13.0894    180.8504    -11.1021
     -0.1727    -11.1021    161.7914

           isotropic =     168.9528
          anisotropy =      33.6478

          Principal Components and Axis System
                 1           2           3
              191.3847    162.7232    152.7506

      1         0.4126      0.7002      0.5826
      2         0.8521     -0.0705     -0.5186
      3        -0.3221      0.7104     -0.6257



      Atom:    9  C 
        Diamagnetic
    243.7111     -4.2484      1.9371
     -4.2484    250.0684     -3.7995
      1.9371     -3.7995    243.0944

        Paramagnetic
    -84.2288      0.2142      6.3197
      0.2142    -77.2614    -11.6696
      6.3197    -11.6696    -75.6123

        Total Shielding Tensor
    159.4823     -4.0343      8.2568
     -4.0343    172.8070    -15.4690
      8.2568    -15.4690    167.4821

           isotropic =     166.5905
          anisotropy =      32.6027

          Principal Components and Axis System
                 1           2           3
              188.3256    159.5193    151.9266

      1        -0.2833      0.7812     -0.5563
      2         0.7130      0.5595      0.4226
      3        -0.6414      0.2769      0.7155



      Atom:   10  C 
        Diamagnetic
    243.0177     -1.5690     -3.0407
     -1.5690    244.1417      4.3874
     -3.0407      4.3874    250.7121

        Paramagnetic
    -85.6913     -4.2416     -0.5974
     -4.2416    -82.1749      0.1498
     -0.5974      0.1498    -61.4970

        Total Shielding Tensor
    157.3264     -5.8106     -3.6380
     -5.8106    161.9668      4.5372
     -3.6380      4.5372    189.2151

           isotropic =     169.5028
          anisotropy =      31.6197

          Principal Components and Axis System
                 1           2           3
              190.5826    164.5424    153.3833

      1        -0.1384     -0.5381      0.8315
      2         0.1824      0.8113      0.5554
      3         0.9734     -0.2285      0.0141



      Atom:   11  H 
        Diamagnetic
     26.0456      1.1343      5.0111
      1.1343     27.7427      5.9761
      5.0111      5.9761     35.7125

        Paramagnetic
      3.0844     -0.7435     -1.9209
     -0.7435      0.4254     -3.4598
     -1.9209     -3.4598     -1.5098

        Total Shielding Tensor
     29.1300      0.3908      3.0902
      0.3908     28.1681      2.5164
      3.0902      2.5164     34.2027

           isotropic =      30.5003
          anisotropy =       8.8411

          Principal Components and Axis System
                 1           2           3
               36.3943     28.2544     26.8521

      1         0.3881      0.7744      0.4997
      2         0.2864     -0.6167      0.7333
      3         0.8760     -0.1414     -0.4611



      Atom:   12  H 
        Diamagnetic
     25.8597      4.2519      2.0310
      4.2519     33.6255     -4.4365
      2.0310     -4.4365     29.0279

        Paramagnetic
      1.3055     -3.0934     -0.1328
     -3.0934     -1.0648      1.7913
     -0.1328      1.7913      0.3906

        Total Shielding Tensor
     27.1652      1.1585      1.8982
      1.1585     32.5608     -2.6452
      1.8982     -2.6452     29.4186

           isotropic =      29.7148
          anisotropy =       6.5282

          Principal Components and Axis System
                 1           2           3
               34.0670     29.7927     25.2849

      1         0.0111      0.6457      0.7635
      2         0.8710      0.3688     -0.3245
      3        -0.4911      0.6687     -0.5583



      Atom:   13  H 
        Diamagnetic
     38.4498     -4.5352      1.4027
     -4.5352     26.0288     -0.2628
      1.4027     -0.2628     25.0214

        Paramagnetic
     -4.0772      2.2899     -0.1325
      2.2899      3.4013     -0.1854
     -0.1325     -0.1854      2.7454

        Total Shielding Tensor
     34.3726     -2.2453      1.2701
     -2.2453     29.4301     -0.4482
      1.2701     -0.4482     27.7668

           isotropic =      30.5231
          anisotropy =       7.4284

          Principal Components and Axis System
                 1           2           3
               35.4754     28.5639     27.5302

      1         0.9192      0.3532     -0.1740
      2        -0.3542      0.9348      0.0266
      3         0.1720      0.0372      0.9844



      Atom:   14  H 
        Diamagnetic
     26.6922      1.4943      1.2802
      1.4943     30.2547     -7.4688
      1.2802     -7.4688     32.0767

        Paramagnetic
      3.0613     -0.5351     -1.4472
     -0.5351      0.2994      2.6279
     -1.4472      2.6279     -0.9566

        Total Shielding Tensor
     29.7535      0.9591     -0.1670
      0.9591     30.5541     -4.8409
     -0.1670     -4.8409     31.1201

           isotropic =      30.4759
          anisotropy =       7.9675

          Principal Components and Axis System
                 1           2           3
               35.7876     29.7418     25.8983

      1        -0.1289      0.9800     -0.1519
      2        -0.6860      0.0225      0.7273
      3         0.7161      0.1979      0.6693



      Atom:   15  H 
        Diamagnetic
     25.2237      3.6124     -0.0471
      3.6124     35.5676      6.6740
     -0.0471      6.6740     27.9275

        Paramagnetic
      3.4467     -0.9133      0.2765
     -0.9133     -1.3034     -3.6222
      0.2765     -3.6222      0.5865

        Total Shielding Tensor
     28.6705      2.6991      0.2294
      2.6991     34.2642      3.0518
      0.2294      3.0518     28.5140

           isotropic =      30.4829
          anisotropy =       8.9359

          Principal Components and Axis System
                 1           2           3
               36.4401     28.3788     26.6297

      1         0.3167      0.7773      0.5437
      2         0.8821     -0.0306     -0.4701
      3         0.3488     -0.6284      0.6953



      Atom:   16  H 
        Diamagnetic
     39.9177      2.0555     -2.9563
      2.0555     26.5780     -1.0225
     -2.9563     -1.0225     22.8610

        Paramagnetic
     -4.7031     -0.4651      1.2958
     -0.4651      2.1717     -0.1014
      1.2958     -0.1014      4.0665

        Total Shielding Tensor
     35.2146      1.5904     -1.6605
      1.5904     28.7497     -1.1239
     -1.6605     -1.1239     26.9275

           isotropic =      30.2973
          anisotropy =       8.5165

          Principal Components and Axis System
                 1           2           3
               35.9749     28.6152     26.3017

      1         0.9489     -0.2958      0.1096
      2         0.2406      0.9034      0.3550
      3        -0.2041     -0.3105      0.9284



      Atom:   17  H 
        Diamagnetic
     25.2975      0.7076      1.0529
      0.7076     40.4384     -0.0780
      1.0529     -0.0780     23.5352

        Paramagnetic
      3.3362     -1.0823     -0.7429
     -1.0823     -3.8187     -1.1658
     -0.7429     -1.1658      3.1665

        Total Shielding Tensor
     28.6337     -0.3747      0.3100
     -0.3747     36.6197     -1.2438
      0.3100     -1.2438     26.7017

           isotropic =      30.6517
          anisotropy =       9.2133

          Principal Components and Axis System
                 1           2           3
               36.7939     28.6456     26.5155

      1        -0.0502      0.9911     -0.1236
      2         0.9911      0.0648      0.1167
      3        -0.1237      0.1166      0.9854



      Atom:   18  H 
        Diamagnetic
     24.3275     -2.9968     -0.3492
     -2.9968     27.7680     -2.1445
     -0.3492     -2.1445     36.8497

        Paramagnetic
      3.9119      1.0203      1.3789
      1.0203      1.0830     -0.2956
      1.3789     -0.2956     -2.7805

        Total Shielding Tensor
     28.2393     -1.9765      1.0297
     -1.9765     28.8510     -2.4401
      1.0297     -2.4401     34.0691

           isotropic =      30.3865
          anisotropy =       7.5831

          Principal Components and Axis System
                 1           2           3
               35.4419     29.2793     26.4382

      1         0.2361     -0.6762      0.6979
      2        -0.3989      0.5874      0.7042
      3         0.8861      0.4446      0.1310



      Atom:   19  H 
        Diamagnetic
     38.8938     -4.6387      1.4951
     -4.6387     26.6385     -1.8346
      1.4951     -1.8346     23.7668

        Paramagnetic
     -4.1818      2.0784     -0.1376
      2.0784      2.3784      0.7680
     -0.1376      0.7680      4.3230

        Total Shielding Tensor
     34.7120     -2.5603      1.3576
     -2.5603     29.0168     -1.0666
      1.3576     -1.0666     28.0898

           isotropic =      30.6062
          anisotropy =       8.1469

          Principal Components and Axis System
                 1           2           3
               36.0375     28.4099     27.3713

      1         0.9093      0.4100      0.0705
      2        -0.3626      0.6981      0.6174
      3         0.2040     -0.5870      0.7835



      Atom:   20  H 
        Diamagnetic
     25.4233      3.6562      0.4534
      3.6562     34.1107      7.4002
      0.4534      7.4002     29.2877

        Paramagnetic
      2.4787     -2.5541     -0.4350
     -2.5541     -1.7844     -2.8008
     -0.4350     -2.8008      1.7104

        Total Shielding Tensor
     27.9020      1.1021      0.0184
      1.1021     32.3263      4.5994
      0.0184      4.5994     30.9981

           isotropic =      30.4088
          anisotropy =       8.9777

          Principal Components and Axis System
                 1           2           3
               36.3940     28.2268     26.6057

      1         0.0996      0.8600      0.5004
      2         0.7571      0.2608     -0.5990
      3         0.6457     -0.4385      0.6251



      Atom:   21  H 
        Diamagnetic
     37.2036     -4.0211     -5.3544
     -4.0211     24.2375      2.5336
     -5.3544      2.5336     28.0087

        Paramagnetic
     -3.6769      1.7410      2.3037
      1.7410      3.0882     -1.4431
      2.3037     -1.4431      1.9752

        Total Shielding Tensor
     33.5266     -2.2801     -3.0507
     -2.2801     27.3257      1.0905
     -3.0507      1.0905     29.9839

           isotropic =      30.2787
          anisotropy =       8.6034

          Principal Components and Axis System
                 1           2           3
               36.0143     28.2479     26.5740

      1         0.8357      0.4633      0.2949
      2        -0.2787     -0.1049      0.9546
      3        -0.4732      0.8800     -0.0415



      Atom:   22  H 
        Diamagnetic
     24.4642     -2.8803     -0.4136
     -2.8803     28.8011     -4.2675
     -0.4136     -4.2675     35.8698

        Paramagnetic
      3.7456      1.0748     -0.5545
      1.0748     -0.0585      1.8148
     -0.5545      1.8148     -1.8741

        Total Shielding Tensor
     28.2098     -1.8055     -0.9681
     -1.8055     28.7426     -2.4528
     -0.9681     -2.4528     33.9957

           isotropic =      30.3160
          anisotropy =       6.9841

          Principal Components and Axis System
                 1           2           3
               34.9721     30.0325     25.9435

      1        -0.0385     -0.7423      0.6690
      2        -0.3564      0.6357      0.6848
      3         0.9335      0.2121      0.2890



      Atom:   23  C 
        Diamagnetic
    239.1144     -0.5204     -1.7763
     -0.5204    259.8785     -0.4819
     -1.7763     -0.4819    239.9726

        Paramagnetic
   -129.0218     -5.7503     -8.2489
     -5.7503    -88.7086     16.6335
     -8.2489     16.6335   -122.5282

        Total Shielding Tensor
    110.0926     -6.2707    -10.0252
     -6.2707    171.1698     16.1516
    -10.0252     16.1516    117.4445

           isotropic =     132.9023
          anisotropy =      65.8607

          Principal Components and Axis System
                 1           2           3
              176.8095    119.1119    102.7856

      1        -0.1316     -0.6075      0.7833
      2         0.9507     -0.3012     -0.0739
      3         0.2809      0.7350      0.6172



      Atom:   24  C 
        Diamagnetic
    239.5731      1.5172     -1.5170
      1.5172    257.9644     -1.7327
     -1.5170     -1.7327    238.7035

        Paramagnetic
   -132.1841    -13.8161     -5.8042
    -13.8161    -83.7290      9.0573
     -5.8042      9.0573   -124.6227

        Total Shielding Tensor
    107.3890    -12.2990     -7.3212
    -12.2990    174.2355      7.3245
     -7.3212      7.3245    114.0808

           isotropic =     131.9017
          anisotropy =      68.5052

          Principal Components and Axis System
                 1           2           3
              177.5719    116.1019    102.0314

      1        -0.1846     -0.4448      0.8764
      2         0.9737     -0.2040      0.1015
      3         0.1336      0.8721      0.4708



      Atom:   25  N 
        Diamagnetic
    322.2905     -0.1298     -1.9197
     -0.1298    326.2134     -0.0221
     -1.9197     -0.0221    284.7988

        Paramagnetic
    -81.3235     -1.8671      0.6670
     -1.8671    -72.2910      1.7084
      0.6670      1.7084    -83.1142

        Total Shielding Tensor
    240.9670     -1.9970     -1.2528
     -1.9970    253.9224      1.6863
     -1.2528      1.6863    201.6846

           isotropic =     232.1913
          anisotropy =      33.1460

          Principal Components and Axis System
                 1           2           3
              254.2887    240.6910    201.5943

      1        -0.1514      0.9880      0.0302
      2         0.9878      0.1523     -0.0310
      3         0.0353     -0.0251      0.9991



      Atom:   26  C 
        Diamagnetic
    250.1207     -2.7859      2.0799
     -2.7859    246.2098     -0.9735
      2.0799     -0.9735    241.5100

        Paramagnetic
    -66.9544    -15.5766     12.4428
    -15.5766   -117.7600      1.2778
     12.4428      1.2778   -101.8068

        Total Shielding Tensor
    183.1663    -18.3625     14.5227
    -18.3625    128.4498      0.3044
     14.5227      0.3044    139.7032

           isotropic =     150.4398
          anisotropy =      62.9316

          Principal Components and Axis System
                 1           2           3
              192.3942    137.3988    121.5264

      1         0.9298     -0.1540      0.3344
      2        -0.2658      0.3476      0.8992
      3         0.2547      0.9249     -0.2822



      Atom:   27  H 
        Diamagnetic
     38.5920      0.8183      3.1765
      0.8183     28.1562     -0.9271
      3.1765     -0.9271     24.0504

        Paramagnetic
     -4.1867      2.1872     -2.0623
      2.1872     -0.1170      0.4586
     -2.0623      0.4586      1.7477

        Total Shielding Tensor
     34.4053      3.0056      1.1142
      3.0056     28.0391     -0.4685
      1.1142     -0.4685     25.7980

           isotropic =      29.4141
          anisotropy =       9.3927

          Principal Components and Axis System
                 1           2           3
               35.6759     27.2962     25.2703

      1         0.9288     -0.2802     -0.2427
      2         0.3602      0.8370      0.4121
      3         0.0877     -0.4701      0.8782



      Atom:   28  H 
        Diamagnetic
     29.1702     -5.2392     -1.1969
     -5.2392     37.2568      3.6252
     -1.1969      3.6252     24.2836

        Paramagnetic
      1.4577      0.6127      0.4733
      0.6127     -5.5181     -1.8361
      0.4733     -1.8361      2.0474

        Total Shielding Tensor
     30.6279     -4.6265     -0.7235
     -4.6265     31.7386      1.7890
     -0.7235      1.7890     26.3310

           isotropic =      29.5658
          anisotropy =       9.9215

          Principal Components and Axis System
                 1           2           3
               36.1802     26.9464     25.5710

      1        -0.6433      0.6959     -0.3192
      2         0.7436      0.4686     -0.4770
      3         0.1823      0.5442      0.8189



      Atom:   29  C 
        Diamagnetic
    246.4886      3.9770     -1.9577
      3.9770    248.7180     -2.1938
     -1.9577     -2.1938    241.4793

        Paramagnetic
    -88.3512     26.4438     -9.8215
     26.4438    -91.2541    -11.0537
     -9.8215    -11.0537   -120.3352

        Total Shielding Tensor
    158.1374     30.4208    -11.7792
     30.4208    157.4640    -13.2476
    -11.7792    -13.2476    121.1441

           isotropic =     145.5818
          anisotropy =      70.5333

          Principal Components and Axis System
                 1           2           3
              192.6040    127.4903    116.6512

      1         0.6872     -0.7198      0.0978
      2         0.6855      0.6871      0.2406
      3        -0.2404     -0.0983      0.9657



      Atom:   30  H 
        Diamagnetic
     21.4853     -0.1934      2.7740
     -0.1934     32.0006      1.5241
      2.7740      1.5241     35.9551

        Paramagnetic
      2.3465     -0.1342     -2.6653
     -0.1342     -1.0026     -0.8993
     -2.6653     -0.8993     -7.2925

        Total Shielding Tensor
     23.8317     -0.3276      0.1086
     -0.3276     30.9979      0.6248
      0.1086      0.6248     28.6626

           isotropic =      27.8308
          anisotropy =       5.0032

          Principal Components and Axis System
                 1           2           3
               31.1662     28.5132     23.8128

      1        -0.0398      0.0392      0.9984
      2         0.9699     -0.2388      0.0480
      3         0.2403      0.9703     -0.0286



      Atom:   31  H 
        Diamagnetic
     37.4405     -2.6222     -2.1414
     -2.6222     31.9311     -0.9350
     -2.1414     -0.9350     20.3022

        Paramagnetic
     -8.1588      0.7364      0.3746
      0.7364      0.7102      0.8975
      0.3746      0.8975      1.6850

        Total Shielding Tensor
     29.2817     -1.8858     -1.7669
     -1.8858     32.6413     -0.0374
     -1.7669     -0.0374     21.9872

           isotropic =      27.9701
          anisotropy =       8.3399

          Principal Components and Axis System
                 1           2           3
               33.5300     28.8181     21.5621

      1        -0.4265      0.8740      0.2329
      2         0.9023      0.4289      0.0429
      3         0.0624     -0.2284      0.9716



      Atom:   32  H 
        Diamagnetic
     37.4605     -0.5372     -0.7136
     -0.5372     32.4535     -1.1429
     -0.7136     -1.1429     21.5048

        Paramagnetic
     -6.8582     -0.7078      0.2989
     -0.7078      0.1433      0.2549
      0.2989      0.2549      3.0160

        Total Shielding Tensor
     30.6023     -1.2450     -0.4147
     -1.2450     32.5967     -0.8880
     -0.4147     -0.8880     24.5207

           isotropic =      29.2399
          anisotropy =       5.9998

          Principal Components and Axis System
                 1           2           3
               33.2398     30.1051     24.3749

      1        -0.4164      0.9047      0.0899
      2         0.9063      0.4052      0.1204
      3        -0.0725     -0.1316      0.9886



      Atom:   33  H 
        Diamagnetic
     21.5656      0.3758      1.8324
      0.3758     30.5187      1.4412
      1.8324      1.4412     36.5406

        Paramagnetic
      4.5674     -0.3706     -2.4894
     -0.3706      2.1706     -0.2518
     -2.4894     -0.2518     -6.2134

        Total Shielding Tensor
     26.1330      0.0052     -0.6570
      0.0052     32.6893      1.1893
     -0.6570      1.1893     30.3272

           isotropic =      29.7165
          anisotropy =       5.2150

          Principal Components and Axis System
                 1           2           3
               33.1932     29.9292     26.0271

      1        -0.0356     -0.1575      0.9869
      2         0.9201     -0.3905     -0.0291
      3         0.3900      0.9070      0.1588



      Atom:   34  H 
        Diamagnetic
     24.5753      2.1466     -2.7756
      2.1466     26.4298     -3.5116
     -2.7756     -3.5116     36.9417

        Paramagnetic
      3.6308     -0.4239     -0.1488
     -0.4239      3.4366      0.4247
     -0.1488      0.4247     -5.7203

        Total Shielding Tensor
     28.2061      1.7228     -2.9244
      1.7228     29.8664     -3.0869
     -2.9244     -3.0869     31.2214

           isotropic =      29.7647
          anisotropy =       8.3044

          Principal Components and Axis System
                 1           2           3
               35.3009     27.5812     26.4119

      1        -0.4292     -0.3661      0.8257
      2        -0.5451      0.8339      0.0864
      3         0.7202      0.4130      0.5575



      Atom:   35  H 
        Diamagnetic
     26.8937     -1.7292      4.8735
     -1.7292     24.8453     -1.6081
      4.8735     -1.6081     36.2392

        Paramagnetic
      3.2710      0.5024     -0.9570
      0.5024      3.8920      0.1568
     -0.9570      0.1568     -4.6241

        Total Shielding Tensor
     30.1647     -1.2269      3.9165
     -1.2269     28.7373     -1.4512
      3.9165     -1.4512     31.6151

           isotropic =      30.1724
          anisotropy =       7.8621

          Principal Components and Axis System
                 1           2           3
               35.4138     28.1966     26.9067

      1         0.6154      0.1664      0.7704
      2        -0.2738      0.9617      0.0110
      3         0.7391      0.2177     -0.6374



      Atom:   36  H 
        Diamagnetic
     35.2649      2.9167     -3.2249
      2.9167     31.4236     -3.1575
     -3.2249     -3.1575     23.7439

        Paramagnetic
     -0.9599     -2.7423      1.6525
     -2.7423     -2.9365      1.6273
      1.6525      1.6273      1.0915

        Total Shielding Tensor
     34.3050      0.1744     -1.5724
      0.1744     28.4871     -1.5302
     -1.5724     -1.5302     24.8353

           isotropic =      29.2091
          anisotropy =       8.0694

          Principal Components and Axis System
                 1           2           3
               34.5887     28.9584     24.0803

      1         0.9830     -0.1204      0.1387
      2         0.0706      0.9448      0.3200
      3        -0.1696     -0.3047      0.9372



      Atom:   37  H 
        Diamagnetic
     26.5483      0.3430     -0.8744
      0.3430     39.7790      3.3947
     -0.8744      3.3947     24.3920

        Paramagnetic
      0.5033      2.3129      0.6601
      2.3129     -4.3200     -2.2712
      0.6601     -2.2712      1.5234

        Total Shielding Tensor
     27.0516      2.6559     -0.2142
      2.6559     35.4590      1.1235
     -0.2142      1.1235     25.9154

           isotropic =      29.4754
          anisotropy =      10.2787

          Principal Components and Axis System
                 1           2           3
               36.3278     26.6152     25.4830

      1         0.2718      0.8231      0.4985
      2         0.9574     -0.1787     -0.2269
      3         0.0977     -0.5390      0.8366



 
 
                                NWChem Input Module
                                -------------------
 
 
 
 
                                     CITATION
                                     --------
                Please cite the following reference when publishing
                           results obtained with NWChem:
 
          E. Apr, E. J. Bylaska, W. A. de Jong, N. Govind, K. Kowalski,
       T. P. Straatsma, M. Valiev, H. J. J. van Dam, Y. Alexeev, J. Anchell,
       V. Anisimov, F. W. Aquino, R. Atta-Fynn, J. Autschbach, N. P. Bauman,
     J. C. Becca, D. E. Bernholdt, K. Bhaskaran-Nair, S. Bogatko, P. Borowski,
        J. Boschen, J. Brabec, A. Bruner, E. Caut, Y. Chen, G. N. Chuev,
      C. J. Cramer, J. Daily, M. J. O. Deegan, T. H. Dunning Jr., M. Dupuis,
   K. G. Dyall, G. I. Fann, S. A. Fischer, A. Fonari, H. Frchtl, L. Gagliardi,
      J. Garza, N. Gawande, S. Ghosh, K. Glaesemann, A. W. Gtz, J. Hammond,
       V. Helms, E. D. Hermes, K. Hirao, S. Hirata, M. Jacquelin, L. Jensen,
   B. G. Johnson, H. Jnsson, R. A. Kendall, M. Klemm, R. Kobayashi, V. Konkov,
      S. Krishnamoorthy, M. Krishnan, Z. Lin, R. D. Lins, R. J. Littlefield,
      A. J. Logsdail, K. Lopata, W. Ma, A. V. Marenich, J. Martin del Campo,
   D. Mejia-Rodriguez, J. E. Moore, J. M. Mullin, T. Nakajima, D. R. Nascimento,
    J. A. Nichols, P. J. Nichols, J. Nieplocha, A. Otero-de-la-Roza, B. Palmer,
    A. Panyala, T. Pirojsirikul, B. Peng, R. Peverati, J. Pittner, L. Pollack,
   R. M. Richard, P. Sadayappan, G. C. Schatz, W. A. Shelton, D. W. Silverstein,
   D. M. A. Smith, T. A. Soares, D. Song, M. Swart, H. L. Taylor, G. S. Thomas,
            V. Tipparaju, D. G. Truhlar, K. Tsemekhman, T. Van Voorhis,
     . Vzquez-Mayagoitia, P. Verma, O. Villa, A. Vishnu, K. D. Vogiatzis,
        D. Wang, J. H. Weare, M. J. Williamson, T. L. Windus, K. Woliski,
        A. T. Wong, Q. Wu, C. Yang, Q. Yu, M. Zacharias, Z. Zhang, Y. Zhao,
                                and R. J. Harrison
                        "NWChem: Past, present, and future
                         J. Chem. Phys. 152, 184102 (2020)
                               doi:10.1063/5.0004997
 
                                      AUTHORS
                                      -------
     E. Apra, E. J. Bylaska, N. Govind, K. Kowalski, M. Valiev, W. A. de Jong,
      T. P. Straatsma, H. J. J. van Dam, D. Wang, T. L. Windus, N. P. Bauman,
       A. Panyala, J. Hammond, J. Autschbach, K. Bhaskaran-Nair, J. Brabec,
    K. Lopata, S. A. Fischer, S. Krishnamoorthy, M. Jacquelin, W. Ma, M. Klemm,
       O. Villa, Y. Chen, V. Anisimov, F. Aquino, S. Hirata, M. T. Hackler,
           Eric Hermes, L. Jensen, J. E. Moore, J. C. Becca, V. Konjkov,
            D. Mejia-Rodriguez, T. Risthaus, M. Malagoli, A. Marenich,
   A. Otero-de-la-Roza, J. Mullin, P. Nichols, R. Peverati, J. Pittner, Y. Zhao,
        P.-D. Fan, A. Fonari, M. J. Williamson, R. J. Harrison, J. R. Rehr,
      M. Dupuis, D. Silverstein, D. M. A. Smith, J. Nieplocha, V. Tipparaju,
      M. Krishnan, B. E. Van Kuiken, A. Vazquez-Mayagoitia, M. Swart, Q. Wu,
   T. Van Voorhis, A. A. Auer, M. Nooijen, L. D. Crosby, E. Brown, G. Cisneros,
     G. I. Fann, H. Fruchtl, J. Garza, K. Hirao, R. A. Kendall, J. A. Nichols,
       K. Tsemekhman, K. Wolinski, J. Anchell, D. E. Bernholdt, P. Borowski,
       T. Clark, D. Clerc, H. Dachsel, M. J. O. Deegan, K. Dyall, D. Elwood,
      E. Glendening, M. Gutowski, A. C. Hess, J. Jaffe, B. G. Johnson, J. Ju,
        R. Kobayashi, R. Kutteh, Z. Lin, R. Littlefield, X. Long, B. Meng,
      T. Nakajima, S. Niu, L. Pollack, M. Rosing, K. Glaesemann, G. Sandrone,
      M. Stave, H. Taylor, G. Thomas, J. H. van Lenthe, A. T. Wong, Z. Zhang.

 Total times  cpu:     2708.5s     wall:     2713.2s
