 argument  1 = /home/milias/Work/open-collection/theoretical_chemistry/projects/nmr_diplomovky/derivaty_markerov/derivative_2/nwchem/der2.dk_odft_nmr_b3lyp_ccpvdz-dk_cosmo-chcl3.nw
 


============================== echo of input deck ==============================
echo

start molecule
memory total 40 gb

#print low

title "der2"
charge 0

geometry units angstroms print xyz autosym
#  load format xyz VX.converged_geometry_blyp_tz2p-solvent-chcl3.xyz
#  load format xyz VX.geom.xyz
 # load format xyz der1.pbe0_tz2p_good_cosmo-chcl3_optimized_geom.xyz
  load format xyz der2.geopt_freq_nmr_pbe0_tz2p_good_cosmo-chcl3_converged_geometry.xyz
end

# spinfree DK2
relativistic
   douglas-kroll
end

basis
  * library cc-pvdz-dk
end

dft
  odft # for spinspin coupling
  direct
  grid fine
  xc b3lyp
  mult 1
# Reduce output during geometry optimization
#  noprint "final vectors analysis"
end

property
  giao
  shielding 1  2
  spinspin  3  2 23 2 30 2 31
end

cosmo
  solvent chcl3
end

#task dft energy
task dft property
================================================================================


                                         
                                         
 
 
             Northwest Computational Chemistry Package (NWChem) 7.0.1
             --------------------------------------------------------
 
 
                    Environmental Molecular Sciences Laboratory
                       Pacific Northwest National Laboratory
                                Richland, WA 99352
 
                              Copyright (c) 1994-2020
                       Pacific Northwest National Laboratory
                            Battelle Memorial Institute
 
             NWChem is an open-source computational chemistry package
                        distributed under the terms of the
                      Educational Community License (ECL) 2.0
             A copy of the license is included with this distribution
                              in the LICENSE.TXT file
 
                                  ACKNOWLEDGMENT
                                  --------------

            This software and its documentation were developed at the
            EMSL at Pacific Northwest National Laboratory, a multiprogram
            national laboratory, operated for the U.S. Department of Energy
            by Battelle under Contract Number DE-AC05-76RL01830. Support
            for this work was provided by the Department of Energy Office
            of Biological and Environmental Research, Office of Basic
            Energy Sciences, and the Office of Advanced Scientific Computing.


           Job information
           ---------------

    hostname        = comp27.grid.umb.sk
    program         = /home/milias/Work/qch/software/nwchem_suite/nwchem_master/bin/LINUX64/nwchem
    date            = Sun Sep 12 17:41:14 2021

    compiled        = Sat_Sep_11_13:54:11_2021
    source          = /home/milias/Work/qch/software/nwchem_suite/nwchem_master
    nwchem branch   = 7.0.0
    nwchem revision = nwchem_on_git-2853-g04c637f
    ga revision     = 5.8.0
    use scalapack   = F
    input           = /home/milias/Work/open-collection/theoretical_chemistry/projects/nmr_diplomovky/derivaty_markerov/derivative_2/nwchem/der2.dk_odft_nmr_b3lyp_ccpvdz-dk_cosmo-chcl3.nw
    prefix          = molecule.
    data base       = ./molecule.db
    status          = startup
    nproc           =       12
    time left       =     -1s



           Memory information
           ------------------

    heap     = 1342177280 doubles =  10240.0 Mbytes
    stack    = 1342177277 doubles =  10240.0 Mbytes
    global   = 2684354560 doubles =  20480.0 Mbytes (distinct from heap & stack)
    total    = 5368709117 doubles =  40960.0 Mbytes
    verify   = yes
    hardfail = no 


           Directory information
           ---------------------
 
  0 permanent = .
  0 scratch   = .
 
 
 
 
                                NWChem Input Module
                                -------------------
 
 
                                       der2
                                       ----

 Scaling coordinates for geometry "geometry" by  1.889725989
 (inverse scale =  0.529177249)

 C1  symmetry detected

          ------
          auto-z
          ------
  no constraints, skipping   0.000000000000000E+000
  no constraints, skipping   0.000000000000000E+000
 
 
                             Geometry "geometry" -> ""
                             -------------------------
 
 Output coordinates in angstroms (scale by  1.889725989 to convert to a.u.)
 
  No.       Tag          Charge          X              Y              Z
 ---- ---------------- ---------- -------------- -------------- --------------
    1 O                    8.0000    -0.04341044    -0.73369813    -0.04085401
    2 P                   15.0000    -0.44611685     0.47703258    -1.05343430
    3 O                    8.0000     0.83720009     1.48585040    -1.04137126
    4 O                    8.0000    -1.28975000     1.37172392     0.02064437
    5 C                    6.0000     0.84108504     2.39610613     0.08887089
    6 C                    6.0000    -0.67674430     2.64706668     0.32804480
    7 C                    6.0000     1.53348750     1.72111364     1.26334319
    8 C                    6.0000     1.61284146     3.63086321    -0.32700096
    9 C                    6.0000    -1.26605170     3.67640246    -0.62378209
   10 C                    6.0000    -1.02568757     2.99451554     1.76012825
   11 H                    1.0000     1.66107846     2.42286749     2.08854573
   12 H                    1.0000     0.98002643     0.85289405     1.61631651
   13 H                    1.0000     2.52215176     1.39017053     0.94319721
   14 H                    1.0000     1.23639267     4.04556628    -1.26021739
   15 H                    1.0000     1.54820876     4.39619674     0.44881612
   16 H                    1.0000     2.66469413     3.37618356    -0.46141862
   17 H                    1.0000    -0.92294367     4.68206117    -0.37963408
   18 H                    1.0000    -1.00229208     3.45958160    -1.65979489
   19 H                    1.0000    -2.35248448     3.65478089    -0.53418895
   20 H                    1.0000    -0.51750808     3.91290247     2.06034667
   21 H                    1.0000    -2.10007263     3.16035386     1.84572717
   22 H                    1.0000    -0.74337543     2.19790863     2.44577211
   23 C                    6.0000     0.27747309    -2.00999264    -0.58709657
   24 C                    6.0000    -0.38988564    -3.07281736     0.26282843
   25 N                    7.0000    -0.04881684    -4.41716103    -0.16101358
   26 C                    6.0000     1.29387398    -4.79179613     0.23888988
   27 H                    1.0000    -2.00978854    -5.12664754     0.00115322
   28 H                    1.0000     1.51908242    -5.79393874    -0.12845467
   29 C                    6.0000    -1.00692680    -5.37744254     0.34913174
   30 H                    1.0000    -0.07040759    -2.08538831    -1.62252377
   31 H                    1.0000     1.36372261    -2.12034771    -0.58801192
   32 H                    1.0000    -1.47086993    -2.94513519     0.17386901
   33 H                    1.0000    -0.13145960    -2.89978976     1.32199975
   34 H                    1.0000    -1.02302957    -5.41235605     1.45178254
   35 H                    1.0000     1.41486849    -4.79273521     1.33573382
   36 H                    1.0000     2.03168980    -4.11023581    -0.18315365
   37 H                    1.0000    -0.75732086    -6.37537787    -0.01475063
 
      Atomic Mass 
      ----------- 
 
      O                 15.994910
      P                 30.973760
      C                 12.000000
      H                  1.007825
      N                 14.003070
 

 Effective nuclear repulsion energy (a.u.)    1268.2890542614

            Nuclear Dipole moment (a.u.) 
            ----------------------------
        X                 Y               Z
 ---------------- ---------------- ----------------
     0.0000000000    -0.0000000000    -0.0000000000
 


                                Z-matrix (autoz)
                                -------- 

 Units are Angstrom for bonds and degrees for angles
 
      Type          Name      I     J     K     L     M      Value
      ----------- --------  ----- ----- ----- ----- ----- ----------
    1 Stretch                  1     2                       1.62891
    2 Stretch                  1    23                       1.42488
    3 Stretch                  2     3                       1.63241
    4 Stretch                  2     4                       1.63274
    5 Stretch                  3     5                       1.45122
    6 Stretch                  4     6                       1.44802
    7 Stretch                  5     6                       1.55692
    8 Stretch                  5     7                       1.52132
    9 Stretch                  5     8                       1.51433
   10 Stretch                  6     9                       1.52079
   11 Stretch                  6    10                       1.51438
   12 Stretch                  7    11                       1.09073
   13 Stretch                  7    12                       1.08845
   14 Stretch                  7    13                       1.09063
   15 Stretch                  8    14                       1.08839
   16 Stretch                  8    15                       1.09170
   17 Stretch                  8    16                       1.09056
   18 Stretch                  9    17                       1.09027
   19 Stretch                  9    18                       1.09083
   20 Stretch                  9    19                       1.09034
   21 Stretch                 10    20                       1.09170
   22 Stretch                 10    21                       1.09047
   23 Stretch                 10    22                       1.08830
   24 Stretch                 23    24                       1.51570
   25 Stretch                 23    30                       1.09490
   26 Stretch                 23    31                       1.09184
   27 Stretch                 24    25                       1.45025
   28 Stretch                 24    32                       1.09213
   29 Stretch                 24    33                       1.10389
   30 Stretch                 25    26                       1.45020
   31 Stretch                 25    29                       1.44926
   32 Stretch                 26    28                       1.09085
   33 Stretch                 26    35                       1.10350
   34 Stretch                 26    36                       1.08950
   35 Stretch                 27    29                       1.09074
   36 Stretch                 29    34                       1.10332
   37 Stretch                 29    37                       1.09114
   38 Bend                     1     2     3               105.09322
   39 Bend                     1     2     4                97.24432
   40 Bend                     1    23    24               108.29843
   41 Bend                     1    23    30               110.65034
   42 Bend                     1    23    31               108.35489
   43 Bend                     2     1    23               118.89033
   44 Bend                     2     3     5               113.29639
   45 Bend                     2     4     6               113.79946
   46 Bend                     3     2     4                93.59475
   47 Bend                     3     5     6               102.59969
   48 Bend                     3     5     7               108.91586
   49 Bend                     3     5     8               107.39265
   50 Bend                     4     6     5               103.77626
   51 Bend                     4     6     9               107.41057
   52 Bend                     4     6    10               107.77501
   53 Bend                     5     6     9               112.99973
   54 Bend                     5     6    10               114.00959
   55 Bend                     5     7    11               110.60048
   56 Bend                     5     7    12               111.89103
   57 Bend                     5     7    13               108.69906
   58 Bend                     5     8    14               111.70835
   59 Bend                     5     8    15               110.26048
   60 Bend                     5     8    16               109.57130
   61 Bend                     6     5     7               113.36754
   62 Bend                     6     5     8               114.05402
   63 Bend                     6     9    17               111.23640
   64 Bend                     6     9    18               111.48121
   65 Bend                     6     9    19               108.73941
   66 Bend                     6    10    20               110.23103
   67 Bend                     6    10    21               109.64210
   68 Bend                     6    10    22               111.59641
   69 Bend                     7     5     8               109.98882
   70 Bend                     9     6    10               110.32149
   71 Bend                    11     7    12               109.10738
   72 Bend                    11     7    13               108.13573
   73 Bend                    12     7    13               108.30615
   74 Bend                    14     8    15               108.76819
   75 Bend                    14     8    16               108.47551
   76 Bend                    15     8    16               107.96347
   77 Bend                    17     9    18               108.65870
   78 Bend                    17     9    19               108.26819
   79 Bend                    18     9    19               108.36275
   80 Bend                    20    10    21               108.00518
   81 Bend                    20    10    22               108.76958
   82 Bend                    21    10    22               108.50842
   83 Bend                    23    24    25               112.49323
   84 Bend                    23    24    32               107.94779
   85 Bend                    23    24    33               108.96844
   86 Bend                    24    23    30               110.00532
   87 Bend                    24    23    31               111.57016
   88 Bend                    24    25    26               112.12447
   89 Bend                    24    25    29               110.84618
   90 Bend                    25    24    32               108.50258
   91 Bend                    25    24    33               111.75610
   92 Bend                    25    26    28               109.60969
   93 Bend                    25    26    35               112.07570
   94 Bend                    25    26    36               111.01255
   95 Bend                    25    29    27               110.07108
   96 Bend                    25    29    34               112.48276
   97 Bend                    25    29    37               109.71733
   98 Bend                    26    25    29               110.11168
   99 Bend                    27    29    34               108.22156
  100 Bend                    27    29    37               108.31394
  101 Bend                    28    26    35               108.13772
  102 Bend                    28    26    36               107.72453
  103 Bend                    30    23    31               107.95965
  104 Bend                    32    24    33               106.95061
  105 Bend                    34    29    37               107.91966
  106 Bend                    35    26    36               108.13856
  107 Torsion                  1     2     3     5         -82.12025
  108 Torsion                  1     2     4     6         113.85827
  109 Torsion                  1    23    24    25        -176.12111
  110 Torsion                  1    23    24    32          64.19786
  111 Torsion                  1    23    24    33         -51.61224
  112 Torsion                  2     1    23    24        -137.12910
  113 Torsion                  2     1    23    30         -16.48541
  114 Torsion                  2     1    23    31         101.69329
  115 Torsion                  2     3     5     6         -32.97790
  116 Torsion                  2     3     5     7          87.43406
  117 Torsion                  2     3     5     8        -153.48746
  118 Torsion                  2     4     6     5         -27.36425
  119 Torsion                  2     4     6     9          92.53668
  120 Torsion                  2     4     6    10        -148.59896
  121 Torsion                  3     2     1    23        -107.45302
  122 Torsion                  3     2     4     6           8.13516
  123 Torsion                  3     5     6     4          35.58340
  124 Torsion                  3     5     6     9         -80.44125
  125 Torsion                  3     5     6    10         152.53942
  126 Torsion                  3     5     7    11         173.06517
  127 Torsion                  3     5     7    12         -65.07036
  128 Torsion                  3     5     7    13          54.49165
  129 Torsion                  3     5     8    14          52.45457
  130 Torsion                  3     5     8    15         173.52527
  131 Torsion                  3     5     8    16         -67.78010
  132 Torsion                  4     2     1    23         156.82256
  133 Torsion                  4     2     3     5          16.37957
  134 Torsion                  4     6     5     7         -81.70273
  135 Torsion                  4     6     5     8         151.38095
  136 Torsion                  4     6     9    17         174.16519
  137 Torsion                  4     6     9    18         -64.38251
  138 Torsion                  4     6     9    19          55.02412
  139 Torsion                  4     6    10    20         175.53112
  140 Torsion                  4     6    10    21         -65.69739
  141 Torsion                  4     6    10    22          54.55373
  142 Torsion                  5     6     9    17         -71.99233
  143 Torsion                  5     6     9    18          49.45996
  144 Torsion                  5     6     9    19         168.86660
  145 Torsion                  5     6    10    20          60.91401
  146 Torsion                  5     6    10    21         179.68551
  147 Torsion                  5     6    10    22         -60.06338
  148 Torsion                  6     5     7    11         -73.40309
  149 Torsion                  6     5     7    12          48.46137
  150 Torsion                  6     5     7    13         168.02338
  151 Torsion                  6     5     8    14         -60.50894
  152 Torsion                  6     5     8    15          60.56176
  153 Torsion                  6     5     8    16         179.25638
  154 Torsion                  7     5     6     9         162.27262
  155 Torsion                  7     5     6    10          35.25328
  156 Torsion                  7     5     8    14         170.84182
  157 Torsion                  7     5     8    15         -68.08748
  158 Torsion                  7     5     8    16          50.60714
  159 Torsion                  8     5     6     9          35.35630
  160 Torsion                  8     5     6    10         -91.66304
  161 Torsion                  8     5     7    11          55.62065
  162 Torsion                  8     5     7    12         177.48511
  163 Torsion                  8     5     7    13         -62.95288
  164 Torsion                  9     6    10    20         -67.48137
  165 Torsion                  9     6    10    21          51.29013
  166 Torsion                  9     6    10    22         171.54124
  167 Torsion                 10     6     9    17          56.95186
  168 Torsion                 10     6     9    18         178.40416
  169 Torsion                 10     6     9    19         -62.18921
  170 Torsion                 23    24    25    26          75.38476
  171 Torsion                 23    24    25    29        -161.11140
  172 Torsion                 24    25    26    28        -178.11163
  173 Torsion                 24    25    26    35          61.81523
  174 Torsion                 24    25    26    36         -59.22630
  175 Torsion                 24    25    29    27          58.52919
  176 Torsion                 24    25    29    34         -62.23527
  177 Torsion                 24    25    29    37         177.62853
  178 Torsion                 25    24    23    30          62.83505
  179 Torsion                 25    24    23    31         -56.95262
  180 Torsion                 26    25    24    32        -165.25683
  181 Torsion                 26    25    24    33         -47.57453
  182 Torsion                 26    25    29    27        -176.81775
  183 Torsion                 26    25    29    34          62.41779
  184 Torsion                 26    25    29    37         -57.71840
  185 Torsion                 28    26    25    29          57.97336
  186 Torsion                 29    25    24    32         -41.75299
  187 Torsion                 29    25    24    33          75.92931
  188 Torsion                 29    25    26    35         -62.09978
  189 Torsion                 29    25    26    36         176.85868
  190 Torsion                 30    23    24    32         -56.84598
  191 Torsion                 30    23    24    33        -172.65608
  192 Torsion                 31    23    24    32        -176.63365
  193 Torsion                 31    23    24    33          67.55626
 
 
            XYZ format geometry
            -------------------
    37
 geometry
 O                    -0.04341044    -0.73369813    -0.04085401
 P                    -0.44611685     0.47703258    -1.05343430
 O                     0.83720009     1.48585040    -1.04137126
 O                    -1.28975000     1.37172392     0.02064437
 C                     0.84108504     2.39610613     0.08887089
 C                    -0.67674430     2.64706668     0.32804480
 C                     1.53348750     1.72111364     1.26334319
 C                     1.61284146     3.63086321    -0.32700096
 C                    -1.26605170     3.67640246    -0.62378209
 C                    -1.02568757     2.99451554     1.76012825
 H                     1.66107846     2.42286749     2.08854573
 H                     0.98002643     0.85289405     1.61631651
 H                     2.52215176     1.39017053     0.94319721
 H                     1.23639267     4.04556628    -1.26021739
 H                     1.54820876     4.39619674     0.44881612
 H                     2.66469413     3.37618356    -0.46141862
 H                    -0.92294367     4.68206117    -0.37963408
 H                    -1.00229208     3.45958160    -1.65979489
 H                    -2.35248448     3.65478089    -0.53418895
 H                    -0.51750808     3.91290247     2.06034667
 H                    -2.10007263     3.16035386     1.84572717
 H                    -0.74337543     2.19790863     2.44577211
 C                     0.27747309    -2.00999264    -0.58709657
 C                    -0.38988564    -3.07281736     0.26282843
 N                    -0.04881684    -4.41716103    -0.16101358
 C                     1.29387398    -4.79179613     0.23888988
 H                    -2.00978854    -5.12664754     0.00115322
 H                     1.51908242    -5.79393874    -0.12845467
 C                    -1.00692680    -5.37744254     0.34913174
 H                    -0.07040759    -2.08538831    -1.62252377
 H                     1.36372261    -2.12034771    -0.58801192
 H                    -1.47086993    -2.94513519     0.17386901
 H                    -0.13145960    -2.89978976     1.32199975
 H                    -1.02302957    -5.41235605     1.45178254
 H                     1.41486849    -4.79273521     1.33573382
 H                     2.03168980    -4.11023581    -0.18315365
 H                    -0.75732086    -6.37537787    -0.01475063
 
 ==============================================================================
                                internuclear distances
 ------------------------------------------------------------------------------
       center one      |      center two      | atomic units |  angstroms
 ------------------------------------------------------------------------------
    2 P                |   1 O                |     3.07820  |     1.62891
    3 O                |   2 P                |     3.08481  |     1.63241
    4 O                |   2 P                |     3.08543  |     1.63274
    5 C                |   3 O                |     2.74240  |     1.45122
    6 C                |   4 O                |     2.73637  |     1.44802
    6 C                |   5 C                |     2.94215  |     1.55692
    7 C                |   5 C                |     2.87488  |     1.52132
    8 C                |   5 C                |     2.86166  |     1.51433
    9 C                |   6 C                |     2.87387  |     1.52079
   10 C                |   6 C                |     2.86176  |     1.51438
   11 H                |   7 C                |     2.06119  |     1.09073
   12 H                |   7 C                |     2.05686  |     1.08845
   13 H                |   7 C                |     2.06099  |     1.09063
   14 H                |   8 C                |     2.05675  |     1.08839
   15 H                |   8 C                |     2.06301  |     1.09170
   16 H                |   8 C                |     2.06086  |     1.09056
   17 H                |   9 C                |     2.06030  |     1.09027
   18 H                |   9 C                |     2.06136  |     1.09083
   19 H                |   9 C                |     2.06043  |     1.09034
   20 H                |  10 C                |     2.06302  |     1.09170
   21 H                |  10 C                |     2.06070  |     1.09047
   22 H                |  10 C                |     2.05658  |     1.08830
   23 C                |   1 O                |     2.69263  |     1.42488
   24 C                |  23 C                |     2.86425  |     1.51570
   25 N                |  24 C                |     2.74058  |     1.45025
   26 C                |  25 N                |     2.74049  |     1.45020
   28 H                |  26 C                |     2.06140  |     1.09085
   29 C                |  25 N                |     2.73871  |     1.44926
   29 C                |  27 H                |     2.06120  |     1.09074
   30 H                |  23 C                |     2.06907  |     1.09490
   31 H                |  23 C                |     2.06328  |     1.09184
   32 H                |  24 C                |     2.06382  |     1.09213
   33 H                |  24 C                |     2.08604  |     1.10389
   34 H                |  29 C                |     2.08497  |     1.10332
   35 H                |  26 C                |     2.08531  |     1.10350
   36 H                |  26 C                |     2.05886  |     1.08950
   37 H                |  29 C                |     2.06196  |     1.09114
 ------------------------------------------------------------------------------
                         number of included internuclear distances:         37
 ==============================================================================



 ==============================================================================
                                 internuclear angles
 ------------------------------------------------------------------------------
        center 1       |       center 2       |       center 3       |  degrees
 ------------------------------------------------------------------------------
    2 P                |   1 O                |  23 C                |   118.89
    1 O                |   2 P                |   3 O                |   105.09
    1 O                |   2 P                |   4 O                |    97.24
    3 O                |   2 P                |   4 O                |    93.59
    2 P                |   3 O                |   5 C                |   113.30
    2 P                |   4 O                |   6 C                |   113.80
    3 O                |   5 C                |   6 C                |   102.60
    3 O                |   5 C                |   7 C                |   108.92
    3 O                |   5 C                |   8 C                |   107.39
    6 C                |   5 C                |   7 C                |   113.37
    6 C                |   5 C                |   8 C                |   114.05
    7 C                |   5 C                |   8 C                |   109.99
    4 O                |   6 C                |   5 C                |   103.78
    4 O                |   6 C                |   9 C                |   107.41
    4 O                |   6 C                |  10 C                |   107.78
    5 C                |   6 C                |   9 C                |   113.00
    5 C                |   6 C                |  10 C                |   114.01
    9 C                |   6 C                |  10 C                |   110.32
    5 C                |   7 C                |  11 H                |   110.60
    5 C                |   7 C                |  12 H                |   111.89
    5 C                |   7 C                |  13 H                |   108.70
   11 H                |   7 C                |  12 H                |   109.11
   11 H                |   7 C                |  13 H                |   108.14
   12 H                |   7 C                |  13 H                |   108.31
    5 C                |   8 C                |  14 H                |   111.71
    5 C                |   8 C                |  15 H                |   110.26
    5 C                |   8 C                |  16 H                |   109.57
   14 H                |   8 C                |  15 H                |   108.77
   14 H                |   8 C                |  16 H                |   108.48
   15 H                |   8 C                |  16 H                |   107.96
    6 C                |   9 C                |  17 H                |   111.24
    6 C                |   9 C                |  18 H                |   111.48
    6 C                |   9 C                |  19 H                |   108.74
   17 H                |   9 C                |  18 H                |   108.66
   17 H                |   9 C                |  19 H                |   108.27
   18 H                |   9 C                |  19 H                |   108.36
    6 C                |  10 C                |  20 H                |   110.23
    6 C                |  10 C                |  21 H                |   109.64
    6 C                |  10 C                |  22 H                |   111.60
   20 H                |  10 C                |  21 H                |   108.01
   20 H                |  10 C                |  22 H                |   108.77
   21 H                |  10 C                |  22 H                |   108.51
    1 O                |  23 C                |  24 C                |   108.30
    1 O                |  23 C                |  30 H                |   110.65
    1 O                |  23 C                |  31 H                |   108.35
   24 C                |  23 C                |  30 H                |   110.01
   24 C                |  23 C                |  31 H                |   111.57
   30 H                |  23 C                |  31 H                |   107.96
   23 C                |  24 C                |  25 N                |   112.49
   23 C                |  24 C                |  32 H                |   107.95
   23 C                |  24 C                |  33 H                |   108.97
   25 N                |  24 C                |  32 H                |   108.50
   25 N                |  24 C                |  33 H                |   111.76
   32 H                |  24 C                |  33 H                |   106.95
   24 C                |  25 N                |  26 C                |   112.12
   24 C                |  25 N                |  29 C                |   110.85
   26 C                |  25 N                |  29 C                |   110.11
   25 N                |  26 C                |  28 H                |   109.61
   25 N                |  26 C                |  35 H                |   112.08
   25 N                |  26 C                |  36 H                |   111.01
   28 H                |  26 C                |  35 H                |   108.14
   28 H                |  26 C                |  36 H                |   107.72
   35 H                |  26 C                |  36 H                |   108.14
   25 N                |  29 C                |  27 H                |   110.07
   25 N                |  29 C                |  34 H                |   112.48
   25 N                |  29 C                |  37 H                |   109.72
   27 H                |  29 C                |  34 H                |   108.22
   27 H                |  29 C                |  37 H                |   108.31
   34 H                |  29 C                |  37 H                |   107.92
 ------------------------------------------------------------------------------
                            number of included internuclear angles:         69
 ==============================================================================




Douglas-Kroll integrals are switched on !

Integrals for the no-pair equation with external-field projection operators
will be computed (Douglas-Kroll-Hess).



 Summary of "ao basis" -> "" (cartesian)
 ------------------------------------------------------------------------------
       Tag                 Description            Shells   Functions and Types
 ---------------- ------------------------------  ------  ---------------------
 *                         cc-pvdz-dk                 on all atoms 


                              NWChem Property Module
                              ----------------------
 
 
                                       der2
 
 
                                 NWChem DFT Module
                                 -----------------
 
 
                                       der2
 
 
                      Basis "ao basis" -> "ao basis" (cartesian)
                      -----
  O (Oxygen)
  ----------
            Exponent  Coefficients 
       -------------- ---------------------------------------------------------
  1 S  1.17200000E+04  0.000977
  1 S  1.75900000E+03  0.005811
  1 S  4.00800000E+02  0.028365
  1 S  1.13700000E+02  0.105431
  1 S  3.70300000E+01  0.283447
  1 S  1.32700000E+01  0.448284
  1 S  5.02500000E+00  0.270294
  1 S  1.01300000E+00  0.015403
 
  2 S  1.17200000E+04 -0.000221
  2 S  1.75900000E+03 -0.001343
  2 S  4.00800000E+02 -0.006401
  2 S  1.13700000E+02 -0.025927
  2 S  3.70300000E+01 -0.071129
  2 S  1.32700000E+01 -0.165615
  2 S  5.02500000E+00 -0.116081
  2 S  1.01300000E+00  0.558524
 
  3 S  3.02300000E-01  1.000000
 
  4 P  1.77000000E+01  0.043155
  4 P  3.85400000E+00  0.228986
  4 P  1.04600000E+00  0.508608
 
  5 P  2.75300000E-01  1.000000
 
  6 D  1.18500000E+00  1.000000
 
  P (Phosphorous)
  ---------------
            Exponent  Coefficients 
       -------------- ---------------------------------------------------------
  1 S  9.48400000E+04  0.000696
  1 S  1.42200000E+04  0.002842
  1 S  3.23600000E+03  0.011656
  1 S  9.17100000E+02  0.043393
  1 S  2.99500000E+02  0.134177
  1 S  1.08100000E+02  0.309584
  1 S  4.21800000E+01  0.418732
  1 S  1.72800000E+01  0.220741
  1 S  4.85800000E+00  0.016202
  1 S  1.81800000E+00 -0.002509
  1 S  3.37200000E-01  0.000738
 
  2 S  9.48400000E+04 -0.000190
  2 S  1.42200000E+04 -0.000774
  2 S  3.23600000E+03 -0.003241
  2 S  9.17100000E+02 -0.012021
  2 S  2.99500000E+02 -0.040267
  2 S  1.08100000E+02 -0.100541
  2 S  4.21800000E+01 -0.198320
  2 S  1.72800000E+01 -0.110954
  2 S  4.85800000E+00  0.523115
  2 S  1.81800000E+00  0.596558
  2 S  3.37200000E-01  0.036026
 
  3 S  9.48400000E+04  0.000052
  3 S  1.42200000E+04  0.000213
  3 S  3.23600000E+03  0.000889
  3 S  9.17100000E+02  0.003319
  3 S  2.99500000E+02  0.011088
  3 S  1.08100000E+02  0.028275
  3 S  4.21800000E+01  0.056446
  3 S  1.72800000E+01  0.034729
  3 S  4.85800000E+00 -0.196113
  3 S  1.81800000E+00 -0.368582
  3 S  3.37200000E-01  0.629612
 
  4 S  1.23200000E-01  1.000000
 
  5 P  3.70500000E+02  0.004207
  5 P  8.73300000E+01  0.030750
  5 P  2.75900000E+01  0.130311
  5 P  1.00000000E+01  0.327883
  5 P  3.82500000E+00  0.456508
  5 P  1.49400000E+00  0.252570
  5 P  3.92100000E-01  0.016882
 
  6 P  3.70500000E+02 -0.001021
  6 P  8.73300000E+01 -0.007232
  6 P  2.75900000E+01 -0.032895
  6 P  1.00000000E+01 -0.079602
  6 P  3.82500000E+00 -0.134826
  6 P  1.49400000E+00 -0.008623
  6 P  3.92100000E-01  0.537535
 
  7 P  1.18600000E-01  1.000000
 
  8 D  3.73000000E-01  1.000000
 
  C (Carbon)
  ----------
            Exponent  Coefficients 
       -------------- ---------------------------------------------------------
  1 S  6.66500000E+03  0.000852
  1 S  1.00000000E+03  0.005512
  1 S  2.28000000E+02  0.027369
  1 S  6.47100000E+01  0.102057
  1 S  2.10600000E+01  0.274948
  1 S  7.49500000E+00  0.448341
  1 S  2.79700000E+00  0.284713
  1 S  5.21500000E-01  0.015175
 
  2 S  6.66500000E+03 -0.000180
  2 S  1.00000000E+03 -0.001195
  2 S  2.28000000E+02 -0.005794
  2 S  6.47100000E+01 -0.023417
  2 S  2.10600000E+01 -0.064050
  2 S  7.49500000E+00 -0.150092
  2 S  2.79700000E+00 -0.126838
  2 S  5.21500000E-01  0.545160
 
  3 S  1.59600000E-01  1.000000
 
  4 P  9.43900000E+00  0.038163
  4 P  2.00200000E+00  0.209492
  4 P  5.45600000E-01  0.508448
 
  5 P  1.51700000E-01  1.000000
 
  6 D  5.50000000E-01  1.000000
 
  H (Hydrogen)
  ------------
            Exponent  Coefficients 
       -------------- ---------------------------------------------------------
  1 S  1.30100000E+01  0.019698
  1 S  1.96200000E+00  0.137991
  1 S  4.44600000E-01  0.478142
 
  2 S  1.22000000E-01  1.000000
 
  3 P  7.27000000E-01  1.000000
 
  N (Nitrogen)
  ------------
            Exponent  Coefficients 
       -------------- ---------------------------------------------------------
  1 S  9.04600000E+03  0.000911
  1 S  1.35700000E+03  0.005644
  1 S  3.09300000E+02  0.027807
  1 S  8.77300000E+01  0.103680
  1 S  2.85600000E+01  0.279014
  1 S  1.02100000E+01  0.448222
  1 S  3.83800000E+00  0.277737
  1 S  7.46600000E-01  0.015399
 
  2 S  9.04600000E+03 -0.000199
  2 S  1.35700000E+03 -0.001267
  2 S  3.09300000E+02 -0.006091
  2 S  8.77300000E+01 -0.024697
  2 S  2.85600000E+01 -0.067603
  2 S  1.02100000E+01 -0.158233
  2 S  3.83800000E+00 -0.121206
  2 S  7.46600000E-01  0.549887
 
  3 S  2.24800000E-01  1.000000
 
  4 P  1.35500000E+01  0.040010
  4 P  2.91700000E+00  0.217213
  4 P  7.97300000E-01  0.510191
 
  5 P  2.18500000E-01  1.000000
 
  6 D  8.17000000E-01  1.000000
 


 Summary of "ao basis" -> "ao basis" (cartesian)
 ------------------------------------------------------------------------------
       Tag                 Description            Shells   Functions and Types
 ---------------- ------------------------------  ------  ---------------------
 O                         cc-pvdz-dk                6       15   3s2p1d
 P                         cc-pvdz-dk                8       19   4s3p1d
 C                         cc-pvdz-dk                6       15   3s2p1d
 H                         cc-pvdz-dk                3        5   2s1p
 N                         cc-pvdz-dk                6       15   3s2p1d




 Summary of "ao basis" -> "ao basis" (cartesian)
 ------------------------------------------------------------------------------
       Tag                 Description            Shells   Functions and Types
 ---------------- ------------------------------  ------  ---------------------
 O                         cc-pvdz-dk                6       15   3s2p1d
 P                         cc-pvdz-dk                8       19   4s3p1d
 C                         cc-pvdz-dk                6       15   3s2p1d
 H                         cc-pvdz-dk                3        5   2s1p
 N                         cc-pvdz-dk                6       15   3s2p1d


 
 solvent parameters
 solvname_short: chcl3   
 solvname_long:  chloroform                         
 dielec:        4.7113
 dielecinf:     2.0906

          ---------------
          -cosmo- solvent
          ---------------
 Cosmo: York-Karplus, doi: 10.1021/jp992097l
 dielectric constant -eps-     =   4.71
 screen = (eps-1)/(eps    )    =   0.78774
 surface charge correction     = lagrangian
 -lineq- algorithm             =   0
 -bem- low  level              =   2
 -bem- from -octahedral-
 gaussian surface charge width =   0.98000
 degree of switching           =   1.00000
 switching function tolerance  =   0.00010
 atomic radii = 
 --------------
    1  8.000  1.720
    2 15.000  2.106
    3  8.000  1.720
    4  8.000  1.720
    5  6.000  2.000
    6  6.000  2.000
    7  6.000  2.000
    8  6.000  2.000
    9  6.000  2.000
   10  6.000  2.000
   11  1.000  1.300
   12  1.000  1.300
   13  1.000  1.300
   14  1.000  1.300
   15  1.000  1.300
   16  1.000  1.300
   17  1.000  1.300
   18  1.000  1.300
   19  1.000  1.300
   20  1.000  1.300
   21  1.000  1.300
   22  1.000  1.300
   23  6.000  2.000
   24  6.000  2.000
   25  7.000  1.830
   26  6.000  2.000
   27  1.000  1.300
   28  1.000  1.300
   29  6.000  2.000
   30  1.000  1.300
   31  1.000  1.300
   32  1.000  1.300
   33  1.000  1.300
   34  1.000  1.300
   35  1.000  1.300
   36  1.000  1.300
   37  1.000  1.300

 solvent accessible surface
 --------------------------

 ---------- ATOMIC COORDINATES (A.U.) ------------ VDWR(ANG.) --
     1   -0.08203385   -1.38648842   -0.07720288     1.720
     2   -0.84303861    0.90146087   -1.99070217     2.106
     3    1.58207877    2.80785011   -1.96790633     1.720
     4   -2.43727410    2.59218234    0.03901221     1.720
     5    1.58942026    4.52798402    0.16794163     2.000
     6   -1.27886128    5.00223071    0.61991478     2.000
     7    2.89787117    3.25243318    2.38737245     2.000
     8    3.04782843    6.86133657   -0.61794220     2.000
     9   -2.39249080    6.94739328   -1.17877722     2.000
    10   -1.93826846    5.65881384    3.32616010     2.000
    11    3.13898314    4.57855566    3.94677914     1.300
    12    1.85198141    1.61173605    3.05439532     1.300
    13    4.76617572    2.62704139    1.78238428     1.300
    14    2.33644335    7.64501175   -2.38146555     1.300
    15    2.92569034    8.30760723    0.84813948     1.300
    16    5.03554175    6.38006181   -0.87195476     1.300
    17   -1.74411063    8.84781268   -0.71740438     1.300
    18   -1.89405739    6.53766125   -3.13655753     1.300
    19   -4.44555107    6.90653443   -1.00947074     1.300
    20   -0.97794846    7.39431349    3.89349065     1.300
    21   -3.96856183    5.97220281    3.48791860     1.300
    22   -1.40477587    4.15344506    4.62183912     1.300
    23    0.52434811   -3.79833533   -1.10945164     2.000
    24   -0.73677702   -5.80678282    0.49667372     2.000
    25   -0.09225046   -8.34722400   -0.30427155     1.830
    26    2.44506729   -9.05518169    0.45143642     2.000
    27   -3.79794963   -9.68795910    0.00217926     1.300
    28    2.87064952  -10.94895662   -0.24274413     1.300
    29   -1.90281575  -10.16189292    0.65976332     2.000
    30   -0.13305105   -3.94081249   -3.06612533     1.300
    31    2.57706206   -4.00687618   -1.11118141     1.300
    32   -2.77954114   -5.56549851    0.32856479     1.300
    33   -0.24842261   -5.47980808    2.49821728     1.300
    34   -1.93324556  -10.22786988    2.74347119     1.300
    35    2.67371376   -9.05695629    2.52417092     1.300
    36    3.83933702   -7.76721943   -0.34611021     1.300
    37   -1.43112891  -12.04771726   -0.02787465     1.300
 number of segments per atom =         32
 number of   points per atom =         32
 atom (   nspa,  nppa )
 ----------------------
    1 (     10,     0 )       0
    2 (     13,     0 )       0
    3 (     14,     0 )       0
    4 (     10,     0 )       0
    5 (      2,     0 )       0
    6 (      2,     0 )       0
    7 (     14,     0 )       0
    8 (     15,     0 )       0
    9 (     12,     0 )       0
   10 (     12,     0 )       0
   11 (     13,     0 )       0
   12 (     12,     0 )       0
   13 (     13,     0 )       0
   14 (     11,     0 )       0
   15 (     12,     0 )       0
   16 (     15,     0 )       0
   17 (     13,     0 )       0
   18 (     14,     0 )       0
   19 (     16,     0 )       0
   20 (     14,     0 )       0
   21 (     14,     0 )       0
   22 (     14,     0 )       0
   23 (     10,     0 )       0
   24 (      9,     0 )       0
   25 (      6,     0 )       0
   26 (     15,     0 )       0
   27 (     14,     0 )       0
   28 (     13,     0 )       0
   29 (     15,     0 )       0
   30 (     12,     0 )       0
   31 (     14,     0 )       0
   32 (     14,     0 )       0
   33 (     14,     0 )       0
   34 (     16,     0 )       0
   35 (     16,     0 )       0
   36 (     12,     0 )       0
   37 (     14,     0 )       0
 number of -cosmo- surface points =      459
 molecular surface =    278.311 angstrom**2
 molecular volume  =    152.827 angstrom**3
 G(cav/disp)       =      2.252 kcal/mol
 ...... end of -cosmo- initialization ......


  Caching 1-el integrals 
 
            General Information
            -------------------
          SCF calculation type: DFT
          Wavefunction type:  spin polarized.
          No. of atoms     :    37
          No. of electrons :   128
           Alpha electrons :    64
            Beta electrons :    64
          Charge           :     0
          Spin multiplicity:     1
          Use of symmetry is: off; symmetry adaption is: off
          Maximum number of iterations:  50
          This is a Direct SCF calculation.
          AO basis - number of functions:   339
                     number of shells:   158
          Convergence on energy requested:  1.00D-07
          Convergence on density requested:  1.00D-05
          Convergence on gradient requested:  5.00D-04
 
              XC Information
              --------------
                         B3LYP Method XC Potential
                     Hartree-Fock (Exact) Exchange  0.200          
                        Slater Exchange Functional  0.800 local    
                    Becke 1988 Exchange Functional  0.720 non-local
              Lee-Yang-Parr Correlation Functional  0.810          
                  VWN I RPA Correlation Functional  0.190 local    
 
             Grid Information
             ----------------
          Grid used for XC integration:  fine      
          Radial quadrature: Mura-Knowles        
          Angular quadrature: Lebedev. 
          Tag              B.-S. Rad. Rad. Pts. Rad. Cut. Ang. Pts.
          ---              ---------- --------- --------- ---------
          O                   0.60       70          15.0       590
          P                   1.00      123          15.0       770
          C                   0.70       70          16.0       590
          H                   0.35       60          16.0       590
          N                   0.65       70          15.0       590
          Grid pruning is: on 
          Number of quadrature shells:  2423
          Spatial weights used:  Erf1
 
          Convergence Information
          -----------------------
          Convergence aids based upon iterative change in 
          total energy or number of iterations. 
          Levelshifting, if invoked, occurs when the 
          HOMO/LUMO gap drops below (HL_TOL):  1.00D-02
          DIIS, if invoked, will attempt to extrapolate 
          using up to (NFOCK): 10 stored Fock matrices.

                    Damping( 0%)  Levelshifting(0.5)       DIIS
                  --------------- ------------------- ---------------
          dE  on:    start            ASAP                start   
          dE off:    2 iters         50 iters            50 iters 

 
      Screening Tolerance Information
      -------------------------------
          Density screening/tol_rho:  1.00D-11
          AO Gaussian exp screening on grid/accAOfunc:  16
          CD Gaussian exp screening on grid/accCDfunc:  20
          XC Gaussian exp screening on grid/accXCfunc:  20
          Schwarz screening/accCoul:  1.00D-08

 
      Superposition of Atomic Density Guess
      -------------------------------------
 
 Sum of atomic energies:       -1006.68274848
 
      Non-variational initial energy
      ------------------------------

 Total energy =   -1018.069303
 1-e energy   =   -3898.823449
 2-e energy   =    1612.465092
 HOMO         =      -0.260345
 LUMO         =       0.069729
 
   Time after variat. SCF:     23.5
   Time prior to 1st pass:     23.5

 Grid_pts file          = ./molecule.gridpts.00
 Record size in doubles =  12289        No. of grid_pts per rec  =   3070
 Max. records in memory =     57        Max. recs in file   =   1162513

 Grid integrated density:     127.999980789143
 Requested integration accuracy:   0.10E-06

           Memory utilization after 1st SCF pass: 
           Heap Space remaining (MW):     1341.45          1341449936
          Stack Space remaining (MW):     1342.17          1342171492

   convergence    iter        energy       DeltaE   RMS-Dens  Diis-err    time
 ---------------- ----- ----------------- --------- --------- ---------  ------
     COSMO gas phase
 d= 0,ls=0.0,diis     1  -1017.1069947593 -2.29D+03  2.69D-03  5.45D-01    61.0
                                                     2.69D-03  5.45D-01
 Grid integrated density:     127.999983173723
 Requested integration accuracy:   0.10E-06
 d= 0,ls=0.0,diis     2  -1017.1614193645 -5.44D-02  1.49D-03  4.19D-01    90.2
                                                     1.49D-03  4.19D-01
 Grid integrated density:     127.999984667604
 Requested integration accuracy:   0.10E-06
 d= 0,ls=0.0,diis     3  -1017.2929454101 -1.32D-01  5.08D-04  8.23D-02   119.3
                                                     5.08D-04  8.23D-02
 Grid integrated density:     127.999983921355
 Requested integration accuracy:   0.10E-06
 d= 0,ls=0.0,diis     4  -1017.3211716462 -2.82D-02  1.62D-04  3.26D-03   148.4
                                                     1.62D-04  3.26D-03
 Grid integrated density:     127.999982890516
 Requested integration accuracy:   0.10E-06
 d= 0,ls=0.0,diis     5  -1017.3224774919 -1.31D-03  4.13D-05  3.16D-04   191.3
                                                     4.13D-05  3.16D-04
 Grid integrated density:     127.999982877223
 Requested integration accuracy:   0.10E-06
  Resetting Diis
 d= 0,ls=0.0,diis     6  -1017.3225920917 -1.15D-04  1.62D-05  4.32D-05   234.6
                                                     1.62D-05  4.32D-05
 Grid integrated density:     127.999982874100
 Requested integration accuracy:   0.10E-06
 d= 0,ls=0.0,diis     7  -1017.3226080463 -1.60D-05  8.58D-06  3.07D-06   278.7
                                                     8.58D-06  3.07D-06
 Grid integrated density:     127.999982875216
 Requested integration accuracy:   0.10E-06
 d= 0,ls=0.0,diis     8  -1017.3226060171  2.03D-06  5.34D-06  8.50D-06   334.8
                                                     5.34D-06  8.50D-06
 Grid integrated density:     127.999982874617
 Requested integration accuracy:   0.10E-06
 d= 0,ls=0.0,diis     9  -1017.3226092891 -3.27D-06  7.73D-07  1.36D-07   390.9
                                                     7.73D-07  1.36D-07
 Grid integrated density:     127.999982874383
 Requested integration accuracy:   0.10E-06
 d= 0,ls=0.0,diis    10  -1017.3226093431 -5.40D-08  1.77D-07  5.93D-09   447.1
                                                     1.77D-07  5.93D-09
 Grid integrated density:     127.999982874583
 Requested integration accuracy:   0.10E-06

           Memory utilization after 1st SCF pass: 
           Heap Space remaining (MW):     1341.45          1341448544
          Stack Space remaining (MW):     1342.17          1342171492

   convergence    iter        energy       DeltaE   RMS-Dens  Diis-err    time
 ---------------- ----- ----------------- --------- --------- ---------  ------
     COSMO solvation phase
 d= 0,ls=0.0,diis     1  -1017.3300958422 -7.49D-03  2.47D-04  7.69D-04   507.1
                                                     2.47D-04  7.69D-04
 Grid integrated density:     127.999983211702
 Requested integration accuracy:   0.10E-06
 d= 0,ls=0.0,diis     2  -1017.3307712858 -6.75D-04  6.40D-05  3.44D-04   562.2
                                                     6.40D-05  3.44D-04
 Grid integrated density:     127.999983146607
 Requested integration accuracy:   0.10E-06
 d= 0,ls=0.0,diis     3  -1017.3308970509 -1.26D-04  1.90D-05  1.15D-04   608.9
                                                     1.90D-05  1.15D-04
 Grid integrated density:     127.999983177439
 Requested integration accuracy:   0.10E-06
 d= 0,ls=0.0,diis     4  -1017.3309355768 -3.85D-05  5.65D-06  6.46D-06   655.4
                                                     5.65D-06  6.46D-06
 Grid integrated density:     127.999983177083
 Requested integration accuracy:   0.10E-06
 d= 0,ls=0.0,diis     5  -1017.3309379923 -2.42D-06  1.91D-06  5.64D-07   702.1
                                                     1.91D-06  5.64D-07
 Grid integrated density:     127.999983178306
 Requested integration accuracy:   0.10E-06
 d= 0,ls=0.0,diis     6  -1017.3309381784 -1.86D-07  6.39D-07  1.11D-07   752.4
                                                     6.39D-07  1.11D-07
 Grid integrated density:     127.999983178184
 Requested integration accuracy:   0.10E-06
 d= 0,ls=0.0,diis     7  -1017.3309382169 -3.85D-08  1.82D-07  5.68D-09   790.1
                                                     1.82D-07  5.68D-09


         Total DFT energy =    -1017.330938216946
      One electron energy =    -3913.056158978044
           Coulomb energy =     1745.462402324162
    Exchange-Corr. energy =     -118.902084749322
 Nuclear repulsion energy =     1268.289054261353

             COSMO energy =        0.875848924904

 Numeric. integr. density =      127.999983178184

     Total iterative time =    766.6s


                                   COSMO solvation results
                                   -----------------------

                 gas phase energy =     -1017.322609343117
                 sol phase energy =     -1017.330938216946
 (electrostatic) solvation energy =         0.008328873829 (    5.23 kcal/mol)
 
                    DFT Final Alpha Molecular Orbital Analysis
                    ------------------------------------------
 
 Vector    1  Occ=1.000000D+00  E=-7.738292D+01
              MO Center= -4.5D-01,  4.8D-01, -1.1D+00, r^2= 4.0D-03
   Bfn.  Coefficient  Atom+Function         Bfn.  Coefficient  Atom+Function  
  ----- ------------  ---------------      ----- ------------  ---------------
    16      1.000056   2 P  s         
 
 Vector    2  Occ=1.000000D+00  E=-1.917167D+01
              MO Center= -4.3D-02, -7.3D-01, -4.1D-02, r^2= 1.5D-02
   Bfn.  Coefficient  Atom+Function         Bfn.  Coefficient  Atom+Function  
  ----- ------------  ---------------      ----- ------------  ---------------
     1      1.003683   1 O  s         
 
 Vector    3  Occ=1.000000D+00  E=-1.916683D+01
              MO Center=  8.4D-01,  1.5D+00, -1.0D+00, r^2= 1.5D-02
   Bfn.  Coefficient  Atom+Function         Bfn.  Coefficient  Atom+Function  
  ----- ------------  ---------------      ----- ------------  ---------------
    35      1.003695   3 O  s         
 
 Vector    4  Occ=1.000000D+00  E=-1.916528D+01
              MO Center= -1.3D+00,  1.4D+00,  2.1D-02, r^2= 1.5D-02
   Bfn.  Coefficient  Atom+Function         Bfn.  Coefficient  Atom+Function  
  ----- ------------  ---------------      ----- ------------  ---------------
    50      1.003698   4 O  s         
 
 Vector    5  Occ=1.000000D+00  E=-1.433412D+01
              MO Center= -4.9D-02, -4.4D+00, -1.6D-01, r^2= 2.0D-02
   Bfn.  Coefficient  Atom+Function         Bfn.  Coefficient  Atom+Function  
  ----- ------------  ---------------      ----- ------------  ---------------
   245      1.003625  25 N  s         
 
 Vector    6  Occ=1.000000D+00  E=-1.025803D+01
              MO Center= -6.7D-01,  2.6D+00,  3.3D-01, r^2= 4.2D-02
   Bfn.  Coefficient  Atom+Function         Bfn.  Coefficient  Atom+Function  
  ----- ------------  ---------------      ----- ------------  ---------------
    80      1.000638   6 C  s                65      0.078299   5 C  s         
 
 Vector    7  Occ=1.000000D+00  E=-1.025679D+01
              MO Center=  8.3D-01,  2.4D+00,  9.0D-02, r^2= 4.2D-02
   Bfn.  Coefficient  Atom+Function         Bfn.  Coefficient  Atom+Function  
  ----- ------------  ---------------      ----- ------------  ---------------
    65      1.000658   5 C  s                80     -0.078508   6 C  s         
 
 Vector    8  Occ=1.000000D+00  E=-1.024277D+01
              MO Center=  2.8D-01, -2.0D+00, -5.9D-01, r^2= 2.8D-02
   Bfn.  Coefficient  Atom+Function         Bfn.  Coefficient  Atom+Function  
  ----- ------------  ---------------      ----- ------------  ---------------
   215      1.003628  23 C  s         
 
 Vector    9  Occ=1.000000D+00  E=-1.021199D+01
              MO Center= -3.9D-01, -3.1D+00,  2.6D-01, r^2= 2.8D-02
   Bfn.  Coefficient  Atom+Function         Bfn.  Coefficient  Atom+Function  
  ----- ------------  ---------------      ----- ------------  ---------------
   230      1.003676  24 C  s         
 
 Vector   10  Occ=1.000000D+00  E=-1.020603D+01
              MO Center= -1.0D+00, -5.4D+00,  3.5D-01, r^2= 2.8D-02
   Bfn.  Coefficient  Atom+Function         Bfn.  Coefficient  Atom+Function  
  ----- ------------  ---------------      ----- ------------  ---------------
   285      1.003594  29 C  s         
 
 Vector   11  Occ=1.000000D+00  E=-1.020584D+01
              MO Center=  1.3D+00, -4.8D+00,  2.4D-01, r^2= 2.8D-02
   Bfn.  Coefficient  Atom+Function         Bfn.  Coefficient  Atom+Function  
  ----- ------------  ---------------      ----- ------------  ---------------
   260      1.003599  26 C  s         
 
 Vector   12  Occ=1.000000D+00  E=-1.018511D+01
              MO Center= -1.0D+00,  3.0D+00,  1.8D+00, r^2= 2.8D-02
   Bfn.  Coefficient  Atom+Function         Bfn.  Coefficient  Atom+Function  
  ----- ------------  ---------------      ----- ------------  ---------------
   140      1.003680  10 C  s         
 
 Vector   13  Occ=1.000000D+00  E=-1.018495D+01
              MO Center=  1.6D+00,  3.6D+00, -3.3D-01, r^2= 2.8D-02
   Bfn.  Coefficient  Atom+Function         Bfn.  Coefficient  Atom+Function  
  ----- ------------  ---------------      ----- ------------  ---------------
   110      1.003682   8 C  s         
 
 Vector   14  Occ=1.000000D+00  E=-1.018256D+01
              MO Center= -1.3D+00,  3.7D+00, -6.2D-01, r^2= 2.8D-02
   Bfn.  Coefficient  Atom+Function         Bfn.  Coefficient  Atom+Function  
  ----- ------------  ---------------      ----- ------------  ---------------
   125      1.003684   9 C  s         
 
 Vector   15  Occ=1.000000D+00  E=-1.018015D+01
              MO Center=  1.5D+00,  1.7D+00,  1.3D+00, r^2= 2.8D-02
   Bfn.  Coefficient  Atom+Function         Bfn.  Coefficient  Atom+Function  
  ----- ------------  ---------------      ----- ------------  ---------------
    95      1.003675   7 C  s         
 
 Vector   16  Occ=1.000000D+00  E=-6.664412D+00
              MO Center= -4.4D-01,  4.8D-01, -1.0D+00, r^2= 9.0D-02
   Bfn.  Coefficient  Atom+Function         Bfn.  Coefficient  Atom+Function  
  ----- ------------  ---------------      ----- ------------  ---------------
    17      1.010105   2 P  s                18      0.027126   2 P  s         
 
 Vector   17  Occ=1.000000D+00  E=-4.793140D+00
              MO Center= -4.5D-01,  4.8D-01, -1.1D+00, r^2= 8.3D-02
   Bfn.  Coefficient  Atom+Function         Bfn.  Coefficient  Atom+Function  
  ----- ------------  ---------------      ----- ------------  ---------------
    20      0.845731   2 P  px               22     -0.467065   2 P  pz        
    21      0.265171   2 P  py        
 
 Vector   18  Occ=1.000000D+00  E=-4.792459D+00
              MO Center= -4.5D-01,  4.8D-01, -1.1D+00, r^2= 8.3D-02
   Bfn.  Coefficient  Atom+Function         Bfn.  Coefficient  Atom+Function  
  ----- ------------  ---------------      ----- ------------  ---------------
    21      0.919245   2 P  py               20     -0.369996   2 P  px        
    22     -0.148235   2 P  pz        
 
 Vector   19  Occ=1.000000D+00  E=-4.786012D+00
              MO Center= -4.5D-01,  4.8D-01, -1.1D+00, r^2= 8.2D-02
   Bfn.  Coefficient  Atom+Function         Bfn.  Coefficient  Atom+Function  
  ----- ------------  ---------------      ----- ------------  ---------------
    22      0.873348   2 P  pz               20      0.389008   2 P  px        
    21      0.297591   2 P  py        
 
 Vector   20  Occ=1.000000D+00  E=-1.089533D+00
              MO Center= -1.9D-01,  1.1D+00, -4.1D-01, r^2= 2.1D+00
   Bfn.  Coefficient  Atom+Function         Bfn.  Coefficient  Atom+Function  
  ----- ------------  ---------------      ----- ------------  ---------------
    52      0.272226   4 O  s                37      0.264645   3 O  s         
    51      0.241841   4 O  s                36      0.237033   3 O  s         
     3      0.204789   1 O  s                18      0.195176   2 P  s         
     2      0.168934   1 O  s                81      0.092384   6 C  s         
    66      0.089426   5 C  s                53      0.062297   4 O  px        
 
 Vector   21  Occ=1.000000D+00  E=-1.035015D+00
              MO Center= -2.4D-02, -3.7D-01, -2.6D-01, r^2= 1.9D+00
   Bfn.  Coefficient  Atom+Function         Bfn.  Coefficient  Atom+Function  
  ----- ------------  ---------------      ----- ------------  ---------------
     3      0.401324   1 O  s                 2      0.378014   1 O  s         
    36     -0.138458   3 O  s                37     -0.137967   3 O  s         
   216      0.131867  23 C  s                51     -0.113622   4 O  s         
    52     -0.107784   4 O  s                24     -0.094734   2 P  py        
   219      0.083856  23 C  py                6     -0.077455   1 O  pz        
 
 Vector   22  Occ=1.000000D+00  E=-1.005477D+00
              MO Center= -2.1D-01,  1.5D+00, -4.3D-01, r^2= 1.8D+00
   Bfn.  Coefficient  Atom+Function         Bfn.  Coefficient  Atom+Function  
  ----- ------------  ---------------      ----- ------------  ---------------
    52     -0.346706   4 O  s                37      0.343676   3 O  s         
    51     -0.311890   4 O  s                36      0.306541   3 O  s         
    81     -0.094138   6 C  s                66      0.090627   5 C  s         
    23      0.085516   2 P  px               30      0.067620   2 P  dxy       
    84      0.060368   6 C  py               70     -0.058693   5 C  pz        
 
 Vector   23  Occ=1.000000D+00  E=-9.304306D-01
              MO Center= -4.3D-02, -4.3D+00,  7.1D-02, r^2= 1.3D+00
   Bfn.  Coefficient  Atom+Function         Bfn.  Coefficient  Atom+Function  
  ----- ------------  ---------------      ----- ------------  ---------------
   246      0.341540  25 N  s               247      0.331059  25 N  s         
   231      0.153188  24 C  s               261      0.140925  26 C  s         
   286      0.140041  29 C  s               263     -0.083020  26 C  px        
   234     -0.080528  24 C  py              250      0.076079  25 N  pz        
   288      0.059960  29 C  px              289      0.060127  29 C  py        
 
 Vector   24  Occ=1.000000D+00  E=-8.238063D-01
              MO Center=  8.2D-02,  2.5D+00,  2.3D-01, r^2= 3.5D+00
   Bfn.  Coefficient  Atom+Function         Bfn.  Coefficient  Atom+Function  
  ----- ------------  ---------------      ----- ------------  ---------------
    81      0.203046   6 C  s                66      0.200366   5 C  s         
    82      0.175958   6 C  s                67      0.173886   5 C  s         
    18     -0.144037   2 P  s               141      0.136204  10 C  s         
   111      0.135507   8 C  s               126      0.122598   9 C  s         
    96      0.119200   7 C  s                37     -0.109407   3 O  s         
 
 Vector   25  Occ=1.000000D+00  E=-7.594436D-01
              MO Center=  2.7D-01,  1.6D+00,  2.4D-01, r^2= 8.4D+00
   Bfn.  Coefficient  Atom+Function         Bfn.  Coefficient  Atom+Function  
  ----- ------------  ---------------      ----- ------------  ---------------
    67      0.194982   5 C  s                82     -0.168841   6 C  s         
    96      0.168631   7 C  s               111      0.155071   8 C  s         
   126     -0.143464   9 C  s                66      0.130941   5 C  s         
   141     -0.124870  10 C  s               216     -0.118814  23 C  s         
    81     -0.114848   6 C  s                37     -0.113302   3 O  s         
 
 Vector   26  Occ=1.000000D+00  E=-7.540824D-01
              MO Center= -1.8D-01, -1.5D+00,  2.0D-02, r^2= 9.4D+00
   Bfn.  Coefficient  Atom+Function         Bfn.  Coefficient  Atom+Function  
  ----- ------------  ---------------      ----- ------------  ---------------
   216      0.219706  23 C  s               231      0.219800  24 C  s         
   232      0.149251  24 C  s               217      0.128034  23 C  s         
     5     -0.116792   1 O  py              249      0.114626  25 N  py        
   286     -0.113263  29 C  s                82     -0.110649   6 C  s         
     3     -0.108028   1 O  s               141     -0.104744  10 C  s         
 
 Vector   27  Occ=1.000000D+00  E=-7.104758D-01
              MO Center=  1.4D-01,  2.9D+00,  4.7D-01, r^2= 4.5D+00
   Bfn.  Coefficient  Atom+Function         Bfn.  Coefficient  Atom+Function  
  ----- ------------  ---------------      ----- ------------  ---------------
   141      0.196000  10 C  s               111     -0.188778   8 C  s         
   126     -0.186754   9 C  s                96      0.177494   7 C  s         
    85      0.130210   6 C  pz              142      0.108494  10 C  s         
   210      0.106029  22 H  s               112     -0.104759   8 C  s         
   170     -0.102854  14 H  s               127     -0.099615   9 C  s         
 
 Vector   28  Occ=1.000000D+00  E=-7.068278D-01
              MO Center=  2.6D-01, -4.9D+00,  2.2D-01, r^2= 2.6D+00
   Bfn.  Coefficient  Atom+Function         Bfn.  Coefficient  Atom+Function  
  ----- ------------  ---------------      ----- ------------  ---------------
   261      0.295926  26 C  s               286     -0.250815  29 C  s         
   248      0.196682  25 N  px              262      0.175593  26 C  s         
   330      0.149745  36 H  s               287     -0.146616  29 C  s         
   280      0.133218  28 H  s               275     -0.131559  27 H  s         
   325      0.127234  35 H  s               251      0.116032  25 N  px        
 
 Vector   29  Occ=1.000000D+00  E=-6.832752D-01
              MO Center=  2.5D-01,  2.9D+00,  4.9D-01, r^2= 4.8D+00
   Bfn.  Coefficient  Atom+Function         Bfn.  Coefficient  Atom+Function  
  ----- ------------  ---------------      ----- ------------  ---------------
    96      0.206256   7 C  s               111     -0.199861   8 C  s         
   126      0.197436   9 C  s               141     -0.193976  10 C  s         
    88     -0.117006   6 C  pz               85     -0.107693   6 C  pz        
   160      0.106397  12 H  s               165      0.102823  13 H  s         
   190      0.102326  18 H  s                97      0.100387   7 C  s         
 
 Vector   30  Occ=1.000000D+00  E=-6.652072D-01
              MO Center= -1.9D-01, -1.6D+00, -3.5D-02, r^2= 1.1D+01
   Bfn.  Coefficient  Atom+Function         Bfn.  Coefficient  Atom+Function  
  ----- ------------  ---------------      ----- ------------  ---------------
    18      0.225848   2 P  s                 5      0.187508   1 O  py        
   286     -0.158992  29 C  s               216     -0.156759  23 C  s         
   231      0.154455  24 C  s               249      0.139353  25 N  py        
    54     -0.109170   4 O  py              287     -0.108438  29 C  s         
   335     -0.102065  37 H  s                19      0.099565   2 P  s         
 
 Vector   31  Occ=1.000000D+00  E=-6.323068D-01
              MO Center=  1.2D-01,  5.0D-01,  4.0D-02, r^2= 1.2D+01
   Bfn.  Coefficient  Atom+Function         Bfn.  Coefficient  Atom+Function  
  ----- ------------  ---------------      ----- ------------  ---------------
   216     -0.147440  23 C  s                66      0.135899   5 C  s         
    81      0.131602   6 C  s                18     -0.128286   2 P  s         
     3      0.116665   1 O  s                39      0.112358   3 O  py        
    96     -0.110138   7 C  s                68     -0.108134   5 C  px        
   286     -0.100773  29 C  s                54      0.098392   4 O  py        
 
 Vector   32  Occ=1.000000D+00  E=-5.896198D-01
              MO Center= -3.4D-02,  2.5D-02, -1.3D-02, r^2= 1.1D+01
   Bfn.  Coefficient  Atom+Function         Bfn.  Coefficient  Atom+Function  
  ----- ------------  ---------------      ----- ------------  ---------------
    18      0.238963   2 P  s                83      0.178218   6 C  px        
    37     -0.141002   3 O  s                68     -0.140874   5 C  px        
    52     -0.135243   4 O  s               246     -0.127195  25 N  s         
    38     -0.124751   3 O  px              247     -0.123509  25 N  s         
     5      0.107647   1 O  py               36     -0.103755   3 O  s         
 
 Vector   33  Occ=1.000000D+00  E=-5.830549D-01
              MO Center=  6.4D-02, -2.5D+00,  9.0D-03, r^2= 7.8D+00
   Bfn.  Coefficient  Atom+Function         Bfn.  Coefficient  Atom+Function  
  ----- ------------  ---------------      ----- ------------  ---------------
   246     -0.169666  25 N  s               231      0.162810  24 C  s         
   315      0.146812  33 H  s               247     -0.142731  25 N  s         
   310      0.135010  32 H  s               216     -0.133709  23 C  s         
   300     -0.133346  30 H  s               220      0.131567  23 C  pz        
   305     -0.117392  31 H  s                18     -0.113281   2 P  s         
 
 Vector   34  Occ=1.000000D+00  E=-5.663604D-01
              MO Center= -9.0D-03,  1.8D+00, -5.4D-02, r^2= 5.9D+00
   Bfn.  Coefficient  Atom+Function         Bfn.  Coefficient  Atom+Function  
  ----- ------------  ---------------      ----- ------------  ---------------
    54      0.228512   4 O  py               39     -0.198370   3 O  py        
    23      0.162561   2 P  px               81      0.153922   6 C  s         
    66     -0.147406   5 C  s                40     -0.144783   3 O  pz        
    82      0.124742   6 C  s                67     -0.116141   5 C  s         
    55      0.109005   4 O  pz               57      0.107563   4 O  py        
 
 Vector   35  Occ=1.000000D+00  E=-5.195703D-01
              MO Center= -5.7D-02, -4.2D-01, -2.1D-01, r^2= 7.1D+00
   Bfn.  Coefficient  Atom+Function         Bfn.  Coefficient  Atom+Function  
  ----- ------------  ---------------      ----- ------------  ---------------
     5      0.264913   1 O  py              220     -0.195923  23 C  pz        
    24     -0.192204   2 P  py              300      0.150165  30 H  s         
    55      0.137561   4 O  pz                6     -0.135552   1 O  pz        
    38      0.135347   3 O  px               83     -0.121360   6 C  px        
   219     -0.121639  23 C  py                8      0.116810   1 O  py        
 
 Vector   36  Occ=1.000000D+00  E=-4.953652D-01
              MO Center=  7.7D-02, -2.2D+00, -1.3D-01, r^2= 6.8D+00
   Bfn.  Coefficient  Atom+Function         Bfn.  Coefficient  Atom+Function  
  ----- ------------  ---------------      ----- ------------  ---------------
   218      0.238716  23 C  px              233      0.189697  24 C  px        
   305      0.180162  31 H  s               310     -0.147594  32 H  s         
     5      0.136113   1 O  py              264      0.125870  26 C  py        
     4      0.123083   1 O  px              249      0.120602  25 N  py        
   280     -0.104746  28 H  s                 6      0.100774   1 O  pz        
 
 Vector   37  Occ=1.000000D+00  E=-4.802972D-01
              MO Center=  1.2D-01,  1.4D+00,  1.7D-01, r^2= 9.9D+00
   Bfn.  Coefficient  Atom+Function         Bfn.  Coefficient  Atom+Function  
  ----- ------------  ---------------      ----- ------------  ---------------
    84      0.158627   6 C  py              130      0.139716   9 C  pz        
   170     -0.137560  14 H  s                68      0.136486   5 C  px        
    53     -0.135352   4 O  px              145     -0.133628  10 C  pz        
   114     -0.132258   8 C  py              210     -0.128340  22 H  s         
   160     -0.126954  12 H  s                99      0.122892   7 C  py        
 
 Vector   38  Occ=1.000000D+00  E=-4.714213D-01
              MO Center=  1.1D-01, -2.2D-01,  1.4D-01, r^2= 1.5D+01
   Bfn.  Coefficient  Atom+Function         Bfn.  Coefficient  Atom+Function  
  ----- ------------  ---------------      ----- ------------  ---------------
   234     -0.155431  24 C  py              249      0.154415  25 N  py        
    39      0.152142   3 O  py               70     -0.147307   5 C  pz        
    55     -0.137987   4 O  pz               85     -0.135765   6 C  pz        
   129     -0.119208   9 C  py              100      0.114653   7 C  pz        
   288     -0.114844  29 C  px              263      0.111111  26 C  px        
 
 Vector   39  Occ=1.000000D+00  E=-4.689216D-01
              MO Center=  3.8D-02, -8.5D-01,  1.6D-01, r^2= 1.4D+01
   Bfn.  Coefficient  Atom+Function         Bfn.  Coefficient  Atom+Function  
  ----- ------------  ---------------      ----- ------------  ---------------
   219      0.160455  23 C  py              289      0.155141  29 C  py        
   248     -0.151637  25 N  px              234     -0.131165  24 C  py        
   335     -0.131276  37 H  s                84     -0.123842   6 C  py        
     4      0.117455   1 O  px              130     -0.117955   9 C  pz        
   265      0.117751  26 C  pz               70      0.114531   5 C  pz        
 
 Vector   40  Occ=1.000000D+00  E=-4.627368D-01
              MO Center= -3.2D-02, -2.5D+00,  1.4D-01, r^2= 1.2D+01
   Bfn.  Coefficient  Atom+Function         Bfn.  Coefficient  Atom+Function  
  ----- ------------  ---------------      ----- ------------  ---------------
   250      0.158008  25 N  pz              263     -0.158752  26 C  px        
   288      0.155807  29 C  px              330     -0.155130  36 H  s         
   235      0.153484  24 C  pz              275     -0.151615  27 H  s         
   315      0.135927  33 H  s               290      0.133433  29 C  pz        
     6     -0.126495   1 O  pz              265      0.125814  26 C  pz        
 
 Vector   41  Occ=1.000000D+00  E=-4.528952D-01
              MO Center= -2.1D-01,  1.2D+00,  1.3D-01, r^2= 1.2D+01
   Bfn.  Coefficient  Atom+Function         Bfn.  Coefficient  Atom+Function  
  ----- ------------  ---------------      ----- ------------  ---------------
    54      0.164084   4 O  py              129     -0.151018   9 C  py        
    85     -0.145386   6 C  pz              185     -0.144736  17 H  s         
    52     -0.126951   4 O  s                55     -0.124372   4 O  pz        
    37     -0.122486   3 O  s               205      0.120418  21 H  s         
   143     -0.115009  10 C  px              265     -0.113292  26 C  pz        
 
 Vector   42  Occ=1.000000D+00  E=-4.501864D-01
              MO Center=  9.2D-02, -2.0D-01,  1.9D-01, r^2= 1.4D+01
   Bfn.  Coefficient  Atom+Function         Bfn.  Coefficient  Atom+Function  
  ----- ------------  ---------------      ----- ------------  ---------------
    40      0.166817   3 O  pz              248     -0.165414  25 N  px        
   130      0.138024   9 C  pz              289      0.125602  29 C  py        
   218      0.124301  23 C  px                4      0.122424   1 O  px        
    69     -0.121240   5 C  py              210     -0.120523  22 H  s         
   264     -0.120246  26 C  py              190     -0.112354  18 H  s         
 
 Vector   43  Occ=1.000000D+00  E=-4.347763D-01
              MO Center=  3.0D-01, -8.5D-01, -4.2D-03, r^2= 1.3D+01
   Bfn.  Coefficient  Atom+Function         Bfn.  Coefficient  Atom+Function  
  ----- ------------  ---------------      ----- ------------  ---------------
   218      0.201067  23 C  px                5      0.195166   1 O  py        
   305      0.164956  31 H  s                69      0.152876   5 C  py        
   264     -0.141292  26 C  py              290     -0.133061  29 C  pz        
   249     -0.126040  25 N  py               40     -0.121446   3 O  pz        
   113     -0.119811   8 C  px              280      0.115933  28 H  s         
 
 Vector   44  Occ=1.000000D+00  E=-4.123556D-01
              MO Center=  3.3D-01, -6.3D-01,  2.2D-01, r^2= 1.3D+01
   Bfn.  Coefficient  Atom+Function         Bfn.  Coefficient  Atom+Function  
  ----- ------------  ---------------      ----- ------------  ---------------
     6      0.216912   1 O  pz              219     -0.172010  23 C  py        
   115      0.167047   8 C  pz              235     -0.166782  24 C  pz        
   265      0.164825  26 C  pz                9      0.140603   1 O  pz        
   325      0.133761  35 H  s                 3      0.132007   1 O  s         
   315     -0.130828  33 H  s               175      0.129108  15 H  s         
 
 Vector   45  Occ=1.000000D+00  E=-4.085290D-01
              MO Center=  1.6D-02,  1.9D+00,  3.4D-01, r^2= 1.1D+01
   Bfn.  Coefficient  Atom+Function         Bfn.  Coefficient  Atom+Function  
  ----- ------------  ---------------      ----- ------------  ---------------
   144      0.200389  10 C  py              200      0.171346  20 H  s         
   180     -0.150481  16 H  s               128      0.148982   9 C  px        
   175      0.137281  15 H  s                52      0.134641   4 O  s         
   113     -0.133833   8 C  px              195     -0.134200  19 H  s         
    85     -0.118807   6 C  pz              114      0.117144   8 C  py        
 
 Vector   46  Occ=1.000000D+00  E=-4.036557D-01
              MO Center= -5.6D-03,  3.1D+00,  7.7D-01, r^2= 5.5D+00
   Bfn.  Coefficient  Atom+Function         Bfn.  Coefficient  Atom+Function  
  ----- ------------  ---------------      ----- ------------  ---------------
   143      0.301070  10 C  px              205     -0.245392  21 H  s         
   113      0.240890   8 C  px              180      0.213487  16 H  s         
   200      0.185542  20 H  s                67     -0.151264   5 C  s         
    82      0.125162   6 C  s               206     -0.113484  21 H  s         
    98      0.105567   7 C  px              146      0.103175  10 C  px        
 
 Vector   47  Occ=1.000000D+00  E=-4.006919D-01
[...]
    21   -3.96856183    5.97220281    3.48791860     1.300
    22   -1.40477587    4.15344506    4.62183912     1.300
    23    0.52434811   -3.79833533   -1.10945164     2.000
    24   -0.73677702   -5.80678282    0.49667372     2.000
    25   -0.09225046   -8.34722400   -0.30427155     1.830
    26    2.44506729   -9.05518169    0.45143642     2.000
    27   -3.79794963   -9.68795910    0.00217926     1.300
    28    2.87064952  -10.94895662   -0.24274413     1.300
    29   -1.90281575  -10.16189292    0.65976332     2.000
    30   -0.13305105   -3.94081249   -3.06612533     1.300
    31    2.57706206   -4.00687618   -1.11118141     1.300
    32   -2.77954114   -5.56549851    0.32856479     1.300
    33   -0.24842261   -5.47980808    2.49821728     1.300
    34   -1.93324556  -10.22786988    2.74347119     1.300
    35    2.67371376   -9.05695629    2.52417092     1.300
    36    3.83933702   -7.76721943   -0.34611021     1.300
    37   -1.43112891  -12.04771726   -0.02787465     1.300
 number of segments per atom =         32
 number of   points per atom =         32
 atom (   nspa,  nppa )
 ----------------------
    1 (     10,     0 )       0
    2 (     13,     0 )       0
    3 (     14,     0 )       0
    4 (     10,     0 )       0
    5 (      2,     0 )       0
    6 (      2,     0 )       0
    7 (     14,     0 )       0
    8 (     15,     0 )       0
    9 (     12,     0 )       0
   10 (     12,     0 )       0
   11 (     13,     0 )       0
   12 (     12,     0 )       0
   13 (     13,     0 )       0
   14 (     11,     0 )       0
   15 (     12,     0 )       0
   16 (     15,     0 )       0
   17 (     13,     0 )       0
   18 (     14,     0 )       0
   19 (     16,     0 )       0
   20 (     14,     0 )       0
   21 (     14,     0 )       0
   22 (     14,     0 )       0
   23 (     10,     0 )       0
   24 (      9,     0 )       0
   25 (      6,     0 )       0
   26 (     15,     0 )       0
   27 (     14,     0 )       0
   28 (     13,     0 )       0
   29 (     15,     0 )       0
   30 (     12,     0 )       0
   31 (     14,     0 )       0
   32 (     14,     0 )       0
   33 (     14,     0 )       0
   34 (     16,     0 )       0
   35 (     16,     0 )       0
   36 (     12,     0 )       0
   37 (     14,     0 )       0
 number of -cosmo- surface points =      459
 molecular surface =    278.311 angstrom**2
 molecular volume  =    152.827 angstrom**3
 G(cav/disp)       =      2.252 kcal/mol
 ...... end of -cosmo- initialization ......


  scftype          =     UHF 
  nalpha           =       64
  nbeta            =       64
  variables        =    35200
  # of vectors     =        3
  tolerance        = 0.10D-03
  level shift      = 0.00D+00
  max iterations   =       50
  max subspace     =       30

 Grid integrated density:     127.999983178274
 Requested integration accuracy:   0.10E-06
 SCF residual:   1.820303997114430E-004


Iterative solution of linear equations
  No. of variables    35200
  No. of equations        3
  Maximum subspace       30
        Iterations       50
       Convergence  1.0D-04
        Start time   3614.1


   iter   nsub   residual    time
   ----  ------  --------  ---------
     1      3    1.33D+00    3715.5
     2      6    1.50D-01    3824.1
     3      9    4.69D-03    3962.2
     4     12    1.95D-04    4117.4
     5     15    8.34D-06    4248.6

      ----------------------------------
      Indirect Spin-Spin Tensors (in Hz)
      ----------------------------------

      -------------------------------------------------
      Atom    2:  31-P  and Atom   23:  13-C 

      Respective Nuclear g-factors: 2.263200 & 1.404822
      -------------------------------------------------

      Fermi Contact (FC) Term (Hz):
     43.2619      0.0000      0.0000
      0.0000     43.2619      0.0000
      0.0000      0.0000     43.2619
        Isotropic =      43.2619

      Spin-Dipole   (SD) Term (Hz):
      0.2100      0.0831      0.0336
      0.0455      0.0113     -0.2055
     -0.0099      0.3426      0.0461
        Isotropic =       0.0892

      FC - SD  Cross Term (Hz):
      0.3240     -0.8749      3.1728
     -0.8749     -0.8007     -3.6131
      3.1728     -3.6131      0.4767
        Isotropic =       0.0000

      Paramagnetic Spin-Orbit Term (Hz):
     -1.8159      0.8362      0.5332
     -0.3356     -1.1963      0.1206
      0.5102     -1.5410      0.1164
        Isotropic =      -0.9653

      Diamagnetic Spin-Orbit Term (Hz):
     -0.6112     -0.7458      0.2035
     -0.7906      1.5730     -0.6992
      0.0959     -0.3006     -0.8263
        Isotropic =       0.0452

      Total Spin-Spin Coupling Tensor (Hz):
     41.3687     -0.7014      3.9431
     -1.9556     42.8492     -4.3971
      3.7690     -5.1120     43.0749


      Isotropic Spin-Spin Coupling =      42.4309 Hz



      -------------------------------------------------
      Atom    2:  31-P  and Atom   30:   1-H 

      Respective Nuclear g-factors: 2.263200 & 5.585689
      -------------------------------------------------

      Fermi Contact (FC) Term (Hz):
     12.7118      0.0000      0.0000
      0.0000     12.7118      0.0000
      0.0000      0.0000     12.7118
        Isotropic =      12.7118

      Spin-Dipole   (SD) Term (Hz):
      0.0995      0.2122     -0.3316
      0.1675     -0.5281     -0.1838
     -0.2049      0.1741     -0.3896
        Isotropic =      -0.2727

      FC - SD  Cross Term (Hz):
     -1.6997     -2.1242      3.4151
     -2.1242     -1.9116     -6.1959
      3.4151     -6.1959      3.6113
        Isotropic =       0.0000

      Paramagnetic Spin-Orbit Term (Hz):
      1.9642      0.3477      0.2013
      0.5637     -5.0381     -2.2754
      0.1362     -4.1259      0.9988
        Isotropic =      -0.6917

      Diamagnetic Spin-Orbit Term (Hz):
     -1.8360     -0.7914     -0.2110
     -1.3953      5.6099      1.0780
     -0.6413      3.0977     -2.0057
        Isotropic =       0.5894

      Total Spin-Spin Coupling Tensor (Hz):
     11.2398     -2.3558      3.0738
     -2.7884     10.8439     -7.5771
      2.7051     -7.0501     14.9266


      Isotropic Spin-Spin Coupling =      12.3368 Hz



      -------------------------------------------------
      Atom    2:  31-P  and Atom   31:   1-H 

      Respective Nuclear g-factors: 2.263200 & 5.585689
      -------------------------------------------------

      Fermi Contact (FC) Term (Hz):
      0.6100      0.0000      0.0000
      0.0000      0.6100      0.0000
      0.0000      0.0000      0.6100
        Isotropic =       0.6100

      Spin-Dipole   (SD) Term (Hz):
      0.0294      0.0274      0.4212
     -0.0052      0.1757     -0.1916
     -0.1740      0.3982     -0.2093
        Isotropic =      -0.0014

      FC - SD  Cross Term (Hz):
      1.7800      2.1498      0.3600
      2.1498     -2.6480     -1.5863
      0.3600     -1.5863      0.8680
        Isotropic =       0.0000

      Paramagnetic Spin-Orbit Term (Hz):
     -0.6657      2.3538      0.6726
      2.6985     -1.7519     -0.2561
     -0.0598     -0.3431      1.2506
        Isotropic =      -0.3890

      Diamagnetic Spin-Orbit Term (Hz):
      0.1895     -3.3930      1.0107
     -2.4784      1.2869     -1.0971
      0.3301     -0.3556     -1.8439
        Isotropic =      -0.1225

      Total Spin-Spin Coupling Tensor (Hz):
      1.9432      1.1380      2.4645
      2.3648     -2.3272     -3.1311
      0.4564     -1.8867      0.6753


      Isotropic Spin-Spin Coupling =       0.0971 Hz




          -----------------------------------------
          Chemical Shielding Tensors (GIAO, in ppm)
          -----------------------------------------

 Grid integrated density:     127.999983178274
 Requested integration accuracy:   0.10E-06
                                NWChem CPHF Module
                                ------------------
 
 
 
 solvent parameters
 solvname_short: chcl3   
 solvname_long:  chloroform                         
 dielec:        4.7113
 dielecinf:     2.0906

          ---------------
          -cosmo- solvent
          ---------------
 Cosmo: York-Karplus, doi: 10.1021/jp992097l
 dielectric constant -eps-     =   4.71
 screen = (eps-1)/(eps    )    =   0.78774
 surface charge correction     = lagrangian
 -lineq- algorithm             =   0
 -bem- low  level              =   2
 -bem- from -octahedral-
 gaussian surface charge width =   0.98000
 degree of switching           =   1.00000
 switching function tolerance  =   0.00010
 atomic radii = 
 --------------
    1  8.000  1.720
    2 15.000  2.106
    3  8.000  1.720
    4  8.000  1.720
    5  6.000  2.000
    6  6.000  2.000
    7  6.000  2.000
    8  6.000  2.000
    9  6.000  2.000
   10  6.000  2.000
   11  1.000  1.300
   12  1.000  1.300
   13  1.000  1.300
   14  1.000  1.300
   15  1.000  1.300
   16  1.000  1.300
   17  1.000  1.300
   18  1.000  1.300
   19  1.000  1.300
   20  1.000  1.300
   21  1.000  1.300
   22  1.000  1.300
   23  6.000  2.000
   24  6.000  2.000
   25  7.000  1.830
   26  6.000  2.000
   27  1.000  1.300
   28  1.000  1.300
   29  6.000  2.000
   30  1.000  1.300
   31  1.000  1.300
   32  1.000  1.300
   33  1.000  1.300
   34  1.000  1.300
   35  1.000  1.300
   36  1.000  1.300
   37  1.000  1.300

 solvent accessible surface
 --------------------------

 ---------- ATOMIC COORDINATES (A.U.) ------------ VDWR(ANG.) --
     1   -0.08203385   -1.38648842   -0.07720288     1.720
     2   -0.84303861    0.90146087   -1.99070217     2.106
     3    1.58207877    2.80785011   -1.96790633     1.720
     4   -2.43727410    2.59218234    0.03901221     1.720
     5    1.58942026    4.52798402    0.16794163     2.000
     6   -1.27886128    5.00223071    0.61991478     2.000
     7    2.89787117    3.25243318    2.38737245     2.000
     8    3.04782843    6.86133657   -0.61794220     2.000
     9   -2.39249080    6.94739328   -1.17877722     2.000
    10   -1.93826846    5.65881384    3.32616010     2.000
    11    3.13898314    4.57855566    3.94677914     1.300
    12    1.85198141    1.61173605    3.05439532     1.300
    13    4.76617572    2.62704139    1.78238428     1.300
    14    2.33644335    7.64501175   -2.38146555     1.300
    15    2.92569034    8.30760723    0.84813948     1.300
    16    5.03554175    6.38006181   -0.87195476     1.300
    17   -1.74411063    8.84781268   -0.71740438     1.300
    18   -1.89405739    6.53766125   -3.13655753     1.300
    19   -4.44555107    6.90653443   -1.00947074     1.300
    20   -0.97794846    7.39431349    3.89349065     1.300
    21   -3.96856183    5.97220281    3.48791860     1.300
    22   -1.40477587    4.15344506    4.62183912     1.300
    23    0.52434811   -3.79833533   -1.10945164     2.000
    24   -0.73677702   -5.80678282    0.49667372     2.000
    25   -0.09225046   -8.34722400   -0.30427155     1.830
    26    2.44506729   -9.05518169    0.45143642     2.000
    27   -3.79794963   -9.68795910    0.00217926     1.300
    28    2.87064952  -10.94895662   -0.24274413     1.300
    29   -1.90281575  -10.16189292    0.65976332     2.000
    30   -0.13305105   -3.94081249   -3.06612533     1.300
    31    2.57706206   -4.00687618   -1.11118141     1.300
    32   -2.77954114   -5.56549851    0.32856479     1.300
    33   -0.24842261   -5.47980808    2.49821728     1.300
    34   -1.93324556  -10.22786988    2.74347119     1.300
    35    2.67371376   -9.05695629    2.52417092     1.300
    36    3.83933702   -7.76721943   -0.34611021     1.300
    37   -1.43112891  -12.04771726   -0.02787465     1.300
 number of segments per atom =         32
 number of   points per atom =         32
 atom (   nspa,  nppa )
 ----------------------
    1 (     10,     0 )       0
    2 (     13,     0 )       0
    3 (     14,     0 )       0
    4 (     10,     0 )       0
    5 (      2,     0 )       0
    6 (      2,     0 )       0
    7 (     14,     0 )       0
    8 (     15,     0 )       0
    9 (     12,     0 )       0
   10 (     12,     0 )       0
   11 (     13,     0 )       0
   12 (     12,     0 )       0
   13 (     13,     0 )       0
   14 (     11,     0 )       0
   15 (     12,     0 )       0
   16 (     15,     0 )       0
   17 (     13,     0 )       0
   18 (     14,     0 )       0
   19 (     16,     0 )       0
   20 (     14,     0 )       0
   21 (     14,     0 )       0
   22 (     14,     0 )       0
   23 (     10,     0 )       0
   24 (      9,     0 )       0
   25 (      6,     0 )       0
   26 (     15,     0 )       0
   27 (     14,     0 )       0
   28 (     13,     0 )       0
   29 (     15,     0 )       0
   30 (     12,     0 )       0
   31 (     14,     0 )       0
   32 (     14,     0 )       0
   33 (     14,     0 )       0
   34 (     16,     0 )       0
   35 (     16,     0 )       0
   36 (     12,     0 )       0
   37 (     14,     0 )       0
 number of -cosmo- surface points =      459
 molecular surface =    278.311 angstrom**2
 molecular volume  =    152.827 angstrom**3
 G(cav/disp)       =      2.252 kcal/mol
 ...... end of -cosmo- initialization ......


  scftype          =     UHF 
  nalpha           =       64
  nbeta            =       64
  variables        =    35200
  # of vectors     =        3
  tolerance        = 0.10D-03
  level shift      = 0.00D+00
  max iterations   =       50
  max subspace     =       30

 Grid integrated density:     127.999983178274
 Requested integration accuracy:   0.10E-06
 SCF residual:   1.820303996533726E-004


Iterative solution of linear equations
  No. of variables    35200
  No. of equations        3
  Maximum subspace       30
        Iterations       50
       Convergence  1.0D-04
        Start time   6679.2


   iter   nsub   residual    time
   ----  ------  --------  ---------
     1      3    3.00D-01    6823.3
     2      6    1.29D-01    6980.8
     3      9    1.36D-01    7113.1
     4     12    6.64D-02    7236.2
     5     15    1.16D-03    7333.0
     6     18    1.80D-04    7447.8
     7     21    2.74D-05    7599.2

 Wrote CPHF data to ./molecule.shieldcphf

 Calc. par tensor-> nonrel
      Atom:    1  P 
        Diamagnetic
    970.9908     -0.3807     -0.6490
     -0.3807    981.3406      0.4466
     -0.6490      0.4466    969.8687

        Paramagnetic
   -742.8855      3.9792     64.8219
      3.9792   -797.4115     -4.2288
     64.8219     -4.2288   -641.9325

        Total Shielding Tensor
    228.1054      3.5985     64.1729
      3.5985    183.9291     -3.7823
     64.1729     -3.7823    327.9361

           isotropic =     246.6569
          anisotropy =     169.0242

          Principal Components and Axis System
                 1           2           3
              359.3397    198.3764    182.2546

      1         0.4390      0.8525     -0.2836
      2        -0.0104      0.3204      0.9472
      3         0.8984     -0.4129      0.1495




 Task  times  cpu:     7594.0s     wall:     7600.6s
 
 
                                NWChem Input Module
                                -------------------
 
 
 Summary of allocated global arrays
-----------------------------------
  No active global arrays



                         GA Statistics for process    0
                         ------------------------------

       create   destroy   get      put      acc     scatter   gather  read&inc
calls: 4327     4327     1.14e+08 3.21e+07 2.47e+07 2667        0     1.76e+04 
number of processes/call -5.74e+10 2.75e+11 1.64e+11 0.00e+00 0.00e+00
bytes total:             3.29e+10 1.39e+09 4.22e+10 2.53e+04 0.00e+00 1.41e+05
bytes remote:            2.68e+10 3.93e+08 3.75e+10 -5.34e+04 0.00e+00 0.00e+00
Max memory consumed for GA by this process: 50733632 bytes
 
MA_summarize_allocated_blocks: starting scan ...
MA_summarize_allocated_blocks: scan completed: 0 heap blocks, 0 stack blocks
MA usage statistics:

	allocation statistics:
					      heap	     stack
					      ----	     -----
	current number of blocks	         0	         0
	maximum number of blocks	        35	        57
	current total bytes		         0	         0
	maximum total bytes		   5828784	  93422664
	maximum total K-bytes		      5829	     93423
	maximum total M-bytes		         6	        94
 
 
                                     CITATION
                                     --------
                Please cite the following reference when publishing
                           results obtained with NWChem:
 
          E. Apra, E. J. Bylaska, W. A. de Jong, N. Govind, K. Kowalski,
       T. P. Straatsma, M. Valiev, H. J. J. van Dam, Y. Alexeev, J. Anchell,
       V. Anisimov, F. W. Aquino, R. Atta-Fynn, J. Autschbach, N. P. Bauman,
     J. C. Becca, D. E. Bernholdt, K. Bhaskaran-Nair, S. Bogatko, P. Borowski,
         J. Boschen, J. Brabec, A. Bruner, E. Cauet, Y. Chen, G. N. Chuev,
      C. J. Cramer, J. Daily, M. J. O. Deegan, T. H. Dunning Jr., M. Dupuis,
   K. G. Dyall, G. I. Fann, S. A. Fischer, A. Fonari, H. Fruchtl, L. Gagliardi,
      J. Garza, N. Gawande, S. Ghosh, K. Glaesemann, A. W. Gotz, J. Hammond,
       V. Helms, E. D. Hermes, K. Hirao, S. Hirata, M. Jacquelin, L. Jensen,
   B. G. Johnson, H. Jonsson, R. A. Kendall, M. Klemm, R. Kobayashi, V. Konkov,
      S. Krishnamoorthy, M. Krishnan, Z. Lin, R. D. Lins, R. J. Littlefield,
      A. J. Logsdail, K. Lopata, W. Ma, A. V. Marenich, J. Martin del Campo,
   D. Mejia-Rodriguez, J. E. Moore, J. M. Mullin, T. Nakajima, D. R. Nascimento,
    J. A. Nichols, P. J. Nichols, J. Nieplocha, A. Otero-de-la-Roza, B. Palmer,
    A. Panyala, T. Pirojsirikul, B. Peng, R. Peverati, J. Pittner, L. Pollack,
   R. M. Richard, P. Sadayappan, G. C. Schatz, W. A. Shelton, D. W. Silverstein,
   D. M. A. Smith, T. A. Soares, D. Song, M. Swart, H. L. Taylor, G. S. Thomas,
            V. Tipparaju, D. G. Truhlar, K. Tsemekhman, T. Van Voorhis,
      A. Vazquez-Mayagoitia, P. Verma, O. Villa, A. Vishnu, K. D. Vogiatzis,
        D. Wang, J. H. Weare, M. J. Williamson, T. L. Windus, K. Wolinski,
        A. T. Wong, Q. Wu, C. Yang, Q. Yu, M. Zacharias, Z. Zhang, Y. Zhao,
                                and R. J. Harrison
                        "NWChem: Past, present, and future
                         J. Chem. Phys. 152, 184102 (2020)
                               doi:10.1063/5.0004997
 
                                      AUTHORS
                                      -------
     E. Apra, E. J. Bylaska, N. Govind, K. Kowalski, M. Valiev, W. A. de Jong,
      T. P. Straatsma, H. J. J. van Dam, D. Wang, T. L. Windus, N. P. Bauman,
       A. Panyala, J. Hammond, J. Autschbach, K. Bhaskaran-Nair, J. Brabec,
    K. Lopata, S. A. Fischer, S. Krishnamoorthy, M. Jacquelin, W. Ma, M. Klemm,
       O. Villa, Y. Chen, V. Anisimov, F. Aquino, S. Hirata, M. T. Hackler,
           Eric Hermes, L. Jensen, J. E. Moore, J. C. Becca, V. Konjkov,
            D. Mejia-Rodriguez, T. Risthaus, M. Malagoli, A. Marenich,
   A. Otero-de-la-Roza, J. Mullin, P. Nichols, R. Peverati, J. Pittner, Y. Zhao,
        P.-D. Fan, A. Fonari, M. J. Williamson, R. J. Harrison, J. R. Rehr,
      M. Dupuis, D. Silverstein, D. M. A. Smith, J. Nieplocha, V. Tipparaju,
      M. Krishnan, B. E. Van Kuiken, A. Vazquez-Mayagoitia, M. Swart, Q. Wu,
   T. Van Voorhis, A. A. Auer, M. Nooijen, L. D. Crosby, E. Brown, G. Cisneros,
     G. I. Fann, H. Fruchtl, J. Garza, K. Hirao, R. A. Kendall, J. A. Nichols,
       K. Tsemekhman, K. Wolinski, J. Anchell, D. E. Bernholdt, P. Borowski,
       T. Clark, D. Clerc, H. Dachsel, M. J. O. Deegan, K. Dyall, D. Elwood,
      E. Glendening, M. Gutowski, A. C. Hess, J. Jaffe, B. G. Johnson, J. Ju,
        R. Kobayashi, R. Kutteh, Z. Lin, R. Littlefield, X. Long, B. Meng,
      T. Nakajima, S. Niu, L. Pollack, M. Rosing, K. Glaesemann, G. Sandrone,
      M. Stave, H. Taylor, G. Thomas, J. H. van Lenthe, A. T. Wong, Z. Zhang.

 Total times  cpu:     7594.0s     wall:     7601.4s
