34
Lattice="11.539982668964457 0.0 0.0 5.769991334482229 9.993918150555366 0.0 0.0 0.0 22.355589098293674" Properties=species:S:1:pos:R:3:tags:I:1:forces:R:3:energies:R:1 energy=9.863909905592141 pbc="T T F"
Au      -0.00000000       1.66565303      10.00000000        2       0.00000000       0.03177678       0.61307570       0.25630678
Au       2.88499567       1.66565303      10.00000000        2       0.00105157       0.00060713       0.65775118       0.25671131
Au       5.76999133       1.66565303      10.00000000        2       0.00000000       0.00000838       0.65910616       0.25673313
Au       8.65498700       1.66565303      10.00000000        2      -0.00105157       0.00060713       0.65775118       0.25671131
Au       1.44249783       4.16413256      10.00000000        2       0.00003490       0.00035769       0.65868158       0.25673313
Au       4.32749350       4.16413256      10.00000000        2       0.00000726      -0.00000419       0.65910616       0.25673313
Au       7.21248917       4.16413256      10.00000000        2      -0.00000726      -0.00000419       0.65910616       0.25673313
Au      10.09748484       4.16413256      10.00000000        2      -0.00003490       0.00035769       0.65868158       0.25673313
Au       2.88499567       6.66261210      10.00000000        2      -0.00029232      -0.00020907       0.65868158       0.25673313
Au       5.76999133       6.66261210      10.00000000        2       0.00000000      -0.00121425       0.65775118       0.25671131
Au       8.65498700       6.66261210      10.00000000        2       0.00029232      -0.00020907       0.65868158       0.25673313
Au      11.53998267       6.66261210      10.00000000        2       0.00000000      -0.00000000       0.65911716       0.25673313
Au       4.32749350       9.16109164      10.00000000        2      -0.02751950      -0.01588839       0.61307570       0.25630678
Au       7.21248917       9.16109164      10.00000000        2       0.02751950      -0.01588839       0.61307570       0.25630678
Au      10.09748484       9.16109164      10.00000000        2       0.00032722      -0.00014862       0.65868158       0.25673313
Au      12.98248050       9.16109164      10.00000000        2      -0.00032722      -0.00014862       0.65868158       0.25673313
Au       0.00000000       0.00000000      12.35558910        1      -0.00000000      -0.00000000      -7.37267496      -0.50675427
Au       2.88499567       0.00000000      12.35558910        1       0.06840696       0.00000372      -0.66433435       0.24604965
Au       5.76999133       0.00000000      12.35558910        1       0.00000000      -0.00000001      -0.65912105       0.25673313
Au       8.65498700       0.00000000      12.35558910        1      -0.06840696       0.00000372      -0.66433435       0.24604965
Au       1.44249783       2.49847954      12.35558910        1       0.03420670       0.05924030      -0.66433435       0.24604965
Au       4.32749350       2.49847954      12.35558910        1       0.00063475       0.00036647      -0.65905129       0.25670075
Au       7.21248917       2.49847954      12.35558910        1      -0.00063475       0.00036647      -0.65905129       0.25670075
Au      10.09748484       2.49847954      12.35558910        1      -0.03420670       0.05924030      -0.66433435       0.24604965
Au       2.88499567       4.99695908      12.35558910        1      -0.00000000       0.00000000      -0.65912105       0.25673313
Au       5.76999133       4.99695908      12.35558910        1       0.00000000      -0.00073295      -0.65905129       0.25670075
Au       8.65498700       4.99695908      12.35558910        1       0.00000000       0.00000000      -0.65912105       0.25673313
Au      11.53998267       4.99695908      12.35558910        1       0.00000000       0.00073285      -0.65905161       0.25670075
Au       4.32749350       7.49543861      12.35558910        1      -0.03420026      -0.05924402      -0.66433435       0.24604965
Au       7.21248917       7.49543861      12.35558910        1       0.03420026      -0.05924402      -0.66433435       0.24604965
Au      10.09748484       7.49543861      12.35558910        1       0.00063466      -0.00036642      -0.65905161       0.25670075
Au      12.98248050       7.49543861      12.35558910        1      -0.00063466      -0.00036642      -0.65905161       0.25670075
O        0.00000000       0.00000000      14.20558910        0      -0.00000000       0.00000000       4.64402964       2.15656467
O        0.00000000       0.00000000      15.36558910        0       0.00000000       0.00000000       2.24531752       0.32101209
34
Lattice="11.539982668964457 0.0 0.0 5.769991334482229 9.993918150555366 0.0 0.0 0.0 22.355589098293674" Properties=species:S:1:pos:R:3:tags:I:1:forces:R:3:energies:R:1 energy=8.531985298673069 pbc="T T F"
Au       0.00000000       1.66651504      10.01663102        2      -0.00000000       0.22536759       0.24921926       0.23866529
Au       2.88502419       1.66566949      10.01784295        2       0.03167817       0.01828940       0.56311120       0.24357372
Au       5.76999133       1.66565325      10.01787970        2       0.00000000       0.00050297       0.55963843       0.24572997
Au       8.65495848       1.66566949      10.01784295        2      -0.03167817       0.01828940       0.56311120       0.24357372
Au       1.44249878       4.16414227      10.01786818        2       0.01247711       0.02152080       0.55943441       0.24543829
Au       4.32749370       4.16413245      10.01787970        2       0.00043559      -0.00025149       0.55963843       0.24572997
Au       7.21248897       4.16413245      10.01787970        2      -0.00043559      -0.00025149       0.55963843       0.24572997
Au      10.09748389       4.16414227      10.01786818        2      -0.01247711       0.02152080       0.55943441       0.24543829
Au       2.88498774       6.66260643      10.01786818        2      -0.01239901      -0.02156590       0.55943441       0.24543829
Au       5.76999133       6.66257916      10.01784295        2       0.00000000      -0.03657880       0.56311120       0.24357372
Au       8.65499493       6.66260643      10.01786818        2       0.01239901      -0.02156590       0.55943441       0.24543829
Au      11.53998267       6.66261210      10.01788000        2       0.00000000       0.00000000       0.55970626       0.24576978
Au       4.32674697       9.16066063      10.01663102        2      -0.19517406      -0.11268379       0.24921926       0.23866529
Au       7.21323570       9.16066063      10.01663102        2       0.19517406      -0.11268379       0.24921926       0.23866529
Au      10.09749371       9.16108761      10.01786818        2       0.02487612       0.00004510       0.55943441       0.24543829
Au      12.98247163       9.16108761      10.01786818        2      -0.02487612       0.00004510       0.55943441       0.24543829
Au      -0.00000000      -0.00000000      12.15558910        1       0.00000000      -0.00000000      -1.04506316      -0.07515354
Au       2.88685136       0.00000010      12.33756757        1       0.08594244       0.00754025      -0.54528127       0.23815940
Au       5.76999133      -0.00000000      12.33770899        1       0.00000000       0.00016383      -0.55852459       0.24540556
Au       8.65313131       0.00000010      12.33756757        1      -0.08594244       0.00754025      -0.54528127       0.23815940
Au       1.44342577       2.50008656      12.33756757        1       0.04950127       0.07065821      -0.54528127       0.23815940
Au       4.32751072       2.49848948      12.33771088        1      -0.00071150      -0.00041078      -0.55933863       0.24558206
Au       7.21247195       2.49848948      12.33771088        1       0.00071150      -0.00041078      -0.55933863       0.24558206
Au      10.09655690       2.50008656      12.33756757        1      -0.04950127       0.07065821      -0.54528127       0.23815940
Au       2.88499567       4.99695908      12.33770899        1       0.00014188      -0.00008191      -0.55852459       0.24540556
Au       5.76999133       4.99693919      12.33771088        1       0.00000000       0.00082157      -0.55933863       0.24558206
Au       8.65498700       4.99695908      12.33770899        1      -0.00014188      -0.00008191      -0.55852459       0.24540556
Au      11.53998267       4.99697896      12.33771088        1       0.00000000      -0.00046425      -0.55893472       0.24558056
Au       4.32656574       7.49383149      12.33756757        1      -0.03644117      -0.07819846      -0.54528127       0.23815940
Au       7.21341693       7.49383149      12.33756757        1       0.03644117      -0.07819846      -0.54528127       0.23815940
Au      10.09750205       7.49542867      12.33771088        1      -0.00040205       0.00023212      -0.55893472       0.24558056
Au      12.98246329       7.49542867      12.33771088        1       0.00040205       0.00023212      -0.55893472       0.24558056
O       -0.00000000       0.00000000      14.33156860        0       0.00000000      -0.00000000      -1.27035335       0.75677260
O        0.00000000       0.00000000      15.42649827        0      -0.00000000      -0.00000000       2.58527853       0.30939886
34
Lattice="11.539982668964457 0.0 0.0 5.769991334482229 9.993918150555366 0.0 0.0 0.0 22.355589098293674" Properties=species:S:1:pos:R:3:tags:I:1:forces:R:3:energies:R:1 energy=8.11902479835446 pbc="T T F"
Au      -0.00000000       1.67699383      10.02964745        2       0.00000000       0.30029581      -0.03836930       0.23915929
Au       2.88648867       1.66651501      10.04545526        2       0.02112688       0.01219761       0.36618688       0.23036314
Au       5.76999133       1.66567648      10.04533510        2      -0.00000000       0.00257811       0.35473042       0.23247182
Au       8.65349400       1.66651501      10.04545526        2      -0.02112688       0.01219761       0.36618688       0.23036314
Au       1.44307466       4.16513629      10.04531312        2       0.01222119       0.01896325       0.35290917       0.23181916
Au       4.32751382       4.16412083      10.04533510        2       0.00223271      -0.00128905       0.35473042       0.23247182
Au       7.21246885       4.16412083      10.04533510        2      -0.00223271      -0.00128905       0.35473042       0.23247182
Au      10.09690801       4.16513629      10.04531312        2      -0.01222119       0.01896325       0.35290917       0.23181916
Au       2.88441483       6.66161069      10.04531312        2      -0.01031206      -0.02006549       0.35290917       0.23181916
Au       5.76999133       6.66088812      10.04545526        2      -0.00000000      -0.02439522       0.36618688       0.23036314
Au       8.65556784       6.66161069      10.04531312        2       0.01031206      -0.02006549       0.35290917       0.23181916
Au      11.53998267       6.66261210      10.04533856        2       0.00000000       0.00000000       0.35618421       0.23263327
Au       4.31767207       9.15542123      10.02964745        2      -0.26006380      -0.15014790      -0.03836930       0.23915929
Au       7.22231059       9.15542123      10.02964745        2       0.26006380      -0.15014790      -0.03836930       0.23915929
Au      10.09864250       9.16108932      10.04531312        2       0.02253325       0.00110224       0.35290917       0.23181916
Au      12.98132284       9.16108932      10.04531312        2      -0.02253325       0.00110224       0.35290917       0.23181916
Au      -0.00000000      -0.00000000      12.08913695        1       0.00000000      -0.00000000       0.33208335      -0.02766335
Au       2.89098652       0.00034808      12.31076180        1       0.05688241       0.00451023      -0.34993882       0.22703221
Au       5.76999133       0.00000756      12.31030496        1       0.00000000       0.00074426      -0.34951884       0.23193485
Au       8.64899615       0.00034808      12.31076180        1      -0.05688241       0.00451023      -0.34993882       0.22703221
Au       1.44579470       2.50349373      12.31076180        1       0.03234718       0.04700650      -0.34993882       0.22703221
Au       4.32747945       2.49847143      12.31026946        1      -0.00300856      -0.00173700      -0.35401839       0.23238889
Au       7.21250321       2.49847143      12.31026946        1       0.00300856      -0.00173700      -0.35401839       0.23238889
Au      10.09418797       2.50349373      12.31076180        1      -0.03234718       0.04700650      -0.34993882       0.22703221
Au       2.88500221       4.99695530      12.31030496        1       0.00064454      -0.00037213      -0.34951884       0.23193485
Au       5.76999133       4.99697529      12.31026946        1      -0.00000000       0.00347399      -0.35401839       0.23238889
Au       8.65498045       4.99695530      12.31030496        1      -0.00064454      -0.00037213      -0.34951884       0.23193485
Au      11.53998267       4.99695934      12.31028809        1      -0.00000000      -0.00259512      -0.35344216       0.23250313
Au       4.32479952       7.49007635      12.31076180        1      -0.02453524      -0.05151673      -0.34993882       0.22703221
Au       7.21518315       7.49007635      12.31076180        1       0.02453524      -0.05151673      -0.34993882       0.22703221
Au      10.09748507       7.49543848      12.31028809        1      -0.00224744       0.00129756      -0.35344216       0.23250313
Au      12.98248027       7.49543848      12.31028809        1       0.00224744       0.00129756      -0.35344216       0.23250313
O        0.00000000      -0.00000000      14.28442414        0       0.00000000       0.00000000       1.77128525       0.48232059
O       -0.00000000      -0.00000000      15.55135370        0       0.00000000      -0.00000000      -1.35408068       0.48216274
34
Lattice="11.539982668964457 0.0 0.0 5.769991334482229 9.993918150555366 0.0 0.0 0.0 22.355589098293674" Properties=species:S:1:pos:R:3:tags:I:1:forces:R:3:energies:R:1 energy=7.845813161553306 pbc="T T F"
Au      -0.00000000       1.70150198      10.03255811        2      -0.00000000       0.07182619      -0.05601688       0.23783649
Au       2.88871000       1.66779749      10.08169489        2      -0.03390927      -0.01957752       0.00509316       0.22459808
Au       5.76999133       1.66584348      10.08078829        2       0.00000000       0.00651002      -0.01634868       0.22530088
Au       8.65127267       1.66779749      10.08169489        2       0.03390927      -0.01957752       0.00509316       0.22459808
Au       1.44418018       4.16691760      10.08065482        2       0.00107725      -0.00220115      -0.02498331       0.22474705
Au       4.32765844       4.16403734      10.08078829        2       0.00563784      -0.00325501      -0.01634868       0.22530088
Au       7.21232423       4.16403734      10.08078829        2      -0.00563784      -0.00325501      -0.01634868       0.22530088
Au      10.09580249       4.16691760      10.08065482        2      -0.00107725      -0.00220115      -0.02498331       0.22474705
Au       2.88342493       6.65976263      10.08065482        2       0.00244487       0.00016765      -0.02498331       0.22474705
Au       5.76999133       6.65832316      10.08169489        2      -0.00000000       0.03915505       0.00509316       0.22459808
Au       8.65655774       6.65976263      10.08065482        2      -0.00244487       0.00016765      -0.02498331       0.22474705
Au      11.53998267       6.66261210      10.08087918        2       0.00000000      -0.00000000      -0.01245668       0.22556872
Au       4.29644740       9.14316716      10.03255811        2      -0.06220330      -0.03591309      -0.05601688       0.23783649
Au       7.24353527       9.14316716      10.03255811        2       0.06220330      -0.03591309      -0.05601688       0.23783649
Au      10.10073792       9.16115607      10.08065482        2      -0.00136763       0.00203350      -0.02498331       0.22474705
Au      12.97922742       9.16115607      10.08065482        2       0.00136763       0.00203350      -0.02498331       0.22474705
Au       0.00000000      -0.00000000      12.10724666        1      -0.00000000       0.00000000       0.02301549      -0.02645024
Au       2.89671079       0.00084740      12.27605854        1      -0.04551899      -0.01791990      -0.05489565       0.22133698
Au       5.76999133       0.00005636      12.27519249        1       0.00000000       0.00320393       0.03119232       0.22507494
Au       8.64327188       0.00084740      12.27605854        1       0.04551899      -0.01791990      -0.05489565       0.22133698
Au       1.44908927       2.50820143      12.27605854        1      -0.03827858      -0.03046065      -0.05489565       0.22133698
Au       4.32727799       2.49835511      12.27486717        1      -0.00270593      -0.00156227       0.02056686       0.22572780
Au       7.21270468       2.49835511      12.27486717        1       0.00270593      -0.00156227       0.02056686       0.22572780
Au      10.09089340       2.50820143      12.27605854        1       0.03827858      -0.03046065      -0.05489565       0.22133698
Au       2.88504447       4.99693090      12.27519249        1       0.00277468      -0.00160196       0.03119232       0.22507494
Au       5.76999133       4.99720793      12.27486717        1      -0.00000000       0.00312454       0.02056686       0.22572780
Au       8.65493819       4.99693090      12.27519249        1      -0.00277468      -0.00160196       0.03119232       0.22507494
Au      11.53998267       4.99678943      12.27493220        1      -0.00000000      -0.00377455       0.01942495       0.22561004
Au       4.32236981       7.48486931      12.27605854        1       0.00724041       0.04838055      -0.05489565       0.22133698
Au       7.21761286       7.48486931      12.27605854        1      -0.00724041       0.04838055      -0.05489565       0.22133698
Au      10.09733792       7.49552344      12.27493220        1      -0.00326886       0.00188728       0.01942495       0.22561004
Au      12.98262742       7.49552344      12.27493220        1       0.00326886       0.00188728       0.01942495       0.22561004
O        0.00000000       0.00000000      14.32932779        0      -0.00000000       0.00000000       1.05497414       0.48597986
O        0.00000000      -0.00000000      15.54277057        0       0.00000000      -0.00000000      -0.59799435       0.39176600
34
Lattice="11.539982668964457 0.0 0.0 5.769991334482229 9.993918150555366 0.0 0.0 0.0 22.355589098293674" Properties=species:S:1:pos:R:3:tags:I:1:forces:R:3:energies:R:1 energy=7.814597498106346 pbc="T T F"
Au      -0.00000000       1.70924891      10.02877051        2       0.00000000      -0.00323415      -0.02907963       0.23712285
Au       2.88520478       1.66577375      10.08453381        2      -0.01550049      -0.00894921      -0.04060022       0.22508606
Au       5.76999133       1.66654512      10.08131898        2      -0.00000000       0.00523572      -0.01185753       0.22556471
Au       8.65477789       1.66577375      10.08453381        2       0.01550049      -0.00894921      -0.04060022       0.22508606
Au       1.44436352       4.16680953      10.08024080        2       0.00451881       0.01335722      -0.03664282       0.22453205
Au       4.32826608       4.16368651      10.08131898        2       0.00453427      -0.00261786      -0.01185753       0.22556471
Au       7.21171659       4.16368651      10.08131898        2      -0.00453427      -0.00261786      -0.01185753       0.22556471
Au      10.09561915       4.16680953      10.08024080        2      -0.00451881       0.01335722      -0.03664282       0.22453205
Au       2.88361019       6.65965788      10.08024080        2      -0.00930829      -0.01059201      -0.03664282       0.22453205
Au       5.76999133       6.66237064      10.08453381        2      -0.00000000       0.01789843      -0.04060022       0.22508606
Au       8.65637248       6.65965788      10.08024080        2       0.00930829      -0.01059201      -0.03664282       0.22453205
Au      11.53998267       6.66261210      10.08182586        2      -0.00000000       0.00000000      -0.01539545       0.22561695
Au       4.28973836       9.13929370      10.02877051        2       0.00280085       0.00161707      -0.02907963       0.23712285
Au       7.25024431       9.13929370      10.02877051        2      -0.00280085       0.00161707      -0.02907963       0.23712285
Au      10.10073600       9.16136889      10.08024080        2       0.01382710      -0.00276521      -0.03664282       0.22453205
Au      12.97922934       9.16136889      10.08024080        2      -0.01382710      -0.00276521      -0.03664282       0.22453205
Au      -0.00000000      -0.00000000      12.12245497        1       0.00000000      -0.00000000      -0.17298010      -0.02062253
Au       2.89208742      -0.00108622      12.26775566        1      -0.03361360      -0.01808183      -0.00749372       0.22115253
Au       5.76999133       0.00040848      12.27627198        1      -0.00000000       0.00384513       0.02281597       0.22550277
Au       8.64789525      -0.00108622      12.26775566        1       0.03361360      -0.01808183      -0.00749372       0.22115253
Au       1.44510302       2.50516428      12.26775566        1      -0.03246613      -0.02006932      -0.00749372       0.22115253
Au       4.32700388       2.49819685      12.27480588        1       0.00375943       0.00217051       0.02151309       0.22618732
Au       7.21297879       2.49819685      12.27480588        1      -0.00375943       0.00217051       0.02151309       0.22618732
Au      10.09487965       2.50516428      12.26775566        1       0.03246613      -0.02006932      -0.00749372       0.22115253
Au       2.88534942       4.99675484      12.27627198        1       0.00332998      -0.00192257       0.02281597       0.22550277
Au       5.76999133       4.99752444      12.27480588        1       0.00000000      -0.00434101       0.02151309       0.22618732
Au       8.65463325       4.99675484      12.27627198        1      -0.00332998      -0.00192257       0.02281597       0.22550277
Au      11.53998267       4.99639290      12.27474140        1      -0.00000000       0.00411348       0.02140026       0.22567950
Au       4.32300693       7.48984009      12.26775566        1       0.00114748       0.03815115      -0.00749372       0.22115253
Au       7.21697574       7.48984009      12.26775566        1      -0.00114748       0.03815115      -0.00749372       0.22115253
Au      10.09699451       7.49572170      12.27474140        1       0.00356237      -0.00205674       0.02140026       0.22567950
Au      12.98297082       7.49572170      12.27474140        1      -0.00356237      -0.00205674       0.02140026       0.22567950
O        0.00000000       0.00000000      14.36764238        0       0.00000000       0.00000000       0.33473905       0.49852940
O        0.00000000      -0.00000000      15.53937409        0       0.00000000      -0.00000000       0.16587994       0.34153658
34
Lattice="11.539982668964457 0.0 0.0 5.769991334482229 9.993918150555366 0.0 0.0 0.0 22.355589098293674" Properties=species:S:1:pos:R:3:tags:I:1:forces:R:3:energies:R:1 energy=7.794040951154289 pbc="T T F"
Au       0.00000000       1.71805167      10.01419598        2      -0.00000000      -0.07463102       0.02464801       0.23747733
Au       2.87874217       1.66204256      10.07734992        2       0.01350204       0.00779541      -0.01608474       0.22583463
Au       5.76999133       1.66865904      10.08169291        2      -0.00000000      -0.00441841       0.01787530       0.22610330
Au       8.66124050       1.66204256      10.07734992        2      -0.01350204       0.00779541      -0.01608474       0.22583463
Au       1.44617224       4.17141506      10.07216907        2       0.00192497       0.00873530       0.01064892       0.22385511
Au       4.33009679       4.16262955      10.08169291        2      -0.00382646       0.00220921       0.01787530       0.22610330
Au       7.20988588       4.16262955      10.08169291        2       0.00382646       0.00220921       0.01787530       0.22610330
Au      10.09381043       4.17141506      10.07216907        2      -0.00192497       0.00873530       0.01064892       0.22385511
Au       2.88052604       6.65578872      10.07216907        2      -0.00660251      -0.00603473       0.01064892       0.22385511
Au       5.76999133       6.66983302      10.07734992        2       0.00000000      -0.01559081      -0.01608474       0.22583463
Au       8.65945663       6.65578872      10.07216907        2       0.00660251      -0.00603473       0.01064892       0.22385511
Au      11.53998267       6.66261210      10.08134347        2       0.00000000      -0.00000000      -0.00038317       0.22467254
Au       4.28211495       9.13489232      10.01419598        2       0.06463236       0.03731551       0.02464801       0.23747733
Au       7.25786772       9.13489232      10.01419598        2      -0.06463236       0.03731551       0.02464801       0.23747733
Au      10.10562887       9.16063252      10.07216907        2       0.00852748      -0.00270058       0.01064892       0.22385511
Au      12.97433647       9.16063252      10.07216907        2      -0.00852748      -0.00270058       0.01064892       0.22385511
Au      -0.00000000      -0.00000000      12.13837090        1       0.00000000       0.00000000      -0.19785317       0.00912708
Au       2.87954925      -0.00785734      12.25680496        1       0.01311561       0.00415793      -0.00480897       0.22122577
Au       5.76999133       0.00184977      12.28040818        1       0.00000000      -0.00315454      -0.03303260       0.22721260
Au       8.66043342      -0.00785734      12.25680496        1      -0.01311561       0.00415793      -0.00480897       0.22122577
Au       1.43296997       2.49769147      12.25680496        1       0.01015867       0.00927948      -0.00480897       0.22122577
Au       4.32798907       2.49876565      12.27778774        1      -0.01272334      -0.00734582      -0.02416819       0.22756274
Au       7.21199360       2.49876565      12.27778774        1       0.01272334      -0.00734582      -0.02416819       0.22756274
Au      10.10701270       2.49769147      12.25680496        1      -0.01015867       0.00927948      -0.00480897       0.22122577
Au       2.88659762       4.99603419      12.28040818        1      -0.00273191       0.00157727      -0.03303260       0.22721260
Au       5.76999133       4.99638684      12.27778774        1      -0.00000000       0.01469165      -0.02416819       0.22756274
Au       8.65338505       4.99603419      12.28040818        1       0.00273191       0.00157727      -0.03303260       0.22721260
Au      11.53998267       4.99742165      12.27761885        1       0.00000000      -0.00085990      -0.02231557       0.22573809
Au       4.32341206       7.50408402      12.25680496        1      -0.00295693      -0.01343741      -0.00480897       0.22122577
Au       7.21657061       7.50408402      12.25680496        1       0.00295693      -0.01343741      -0.00480897       0.22122577
Au      10.09788543       7.49520733      12.27761885        1      -0.00074469       0.00042995      -0.02231557       0.22573809
Au      12.98207990       7.49520733      12.27761885        1       0.00074469       0.00042995      -0.02231557       0.22573809
O        0.00000000       0.00000000      14.44890872        0       0.00000000       0.00000000      -0.29500563       0.46026972
O        0.00000000      -0.00000000      15.59097578        0      -0.00000000      -0.00000000       0.61743563       0.31970030
34
Lattice="11.539982668964457 0.0 0.0 5.769991334482229 9.993918150555366 0.0 0.0 0.0 22.355589098293674" Properties=species:S:1:pos:R:3:tags:I:1:forces:R:3:energies:R:1 energy=7.778743798587261 pbc="T T F"
Au      -0.00000000       1.71309614      10.00649129        2       0.00000000      -0.06884730       0.02509963       0.23665052
Au       2.87752728       1.66134115      10.07179611        2       0.01503369       0.00867970      -0.01855794       0.22629638
Au       5.76999133       1.66894917      10.08515141        2       0.00000000      -0.00488940      -0.01365079       0.22622821
Au       8.66245539       1.66134115      10.07179611        2      -0.01503369       0.00867970      -0.01855794       0.22629638
Au       1.44749035       4.17520496      10.07024055        2      -0.00901821      -0.01076136      -0.00357637       0.22386567
Au       4.33034805       4.16248449      10.08515141        2      -0.00423435       0.00244470      -0.01365079       0.22622821
Au       7.20963462       4.16248449      10.08515141        2       0.00423435       0.00244470      -0.01365079       0.22622821
Au      10.09249232       4.17520496      10.07024055        2       0.00901821      -0.01076136      -0.00357637       0.22386567
Au       2.87790295       6.65275225      10.07024055        2       0.00481050       0.01319068      -0.00357637       0.22386567
Au       5.76999133       6.67123585      10.07179611        2      -0.00000000      -0.01735941      -0.01855794       0.22629638
Au       8.66207972       6.65275225      10.07024055        2      -0.00481050       0.01319068      -0.00357637       0.22386567
Au      11.53998267       6.66261210      10.08088843        2      -0.00000000       0.00000000      -0.02085013       0.22388785
Au       4.28640656       9.13737008      10.00649129        2       0.05962351       0.03442365       0.02509963       0.23665052