#  E (eV)   dos(E)     Int dos(E) EFermi =    7.969 eV
 -20.000  0.6886E-85  0.6886E-87
 -19.990  0.6886E-85  0.1377E-86
 -19.980  0.6886E-85  0.2066E-86
 -19.970  0.6886E-85  0.2755E-86
 -19.960  0.6886E-85  0.3443E-86
 -19.950  0.6886E-85  0.4132E-86
 -19.940  0.6886E-85  0.4820E-86
 -19.930  0.6886E-85  0.5509E-86
 -19.920  0.6886E-85  0.6198E-86
 -19.910  0.6886E-85  0.6886E-86
 -19.900  0.6886E-85  0.7575E-86
 -19.890  0.6886E-85  0.8264E-86
 -19.880  0.6886E-85  0.8952E-86
 -19.870  0.6886E-85  0.9641E-86
 -19.860  0.6886E-85  0.1033E-85
 -19.850  0.6886E-85  0.1102E-85
 -19.840  0.6886E-85  0.1171E-85
 -19.830  0.6886E-85  0.1240E-85
 -19.820  0.6886E-85  0.1308E-85
 -19.810  0.6886E-85  0.1377E-85
 -19.800  0.6886E-85  0.1446E-85
 -19.790  0.6886E-85  0.1515E-85
 -19.780  0.6886E-85  0.1584E-85
 -19.770  0.6886E-85  0.1653E-85
 -19.760  0.6886E-85  0.1722E-85
 -19.750  0.6886E-85  0.1790E-85
 -19.740  0.6886E-85  0.1859E-85
 -19.730  0.6886E-85  0.1928E-85
 -19.720  0.6886E-85  0.1997E-85
 -19.710  0.6886E-85  0.2066E-85
 -19.700  0.6886E-85  0.2135E-85
 -19.690  0.6886E-85  0.2204E-85
 -19.680  0.6886E-85  0.2272E-85
 -19.670  0.6886E-85  0.2341E-85
 -19.660  0.6886E-85  0.2410E-85
 -19.650  0.6886E-85  0.2479E-85
 -19.640  0.6886E-85  0.2548E-85
 -19.630  0.6886E-85  0.2617E-85
 -19.620  0.6886E-85  0.2686E-85
 -19.610  0.6886E-85  0.2755E-85
 -19.600  0.6886E-85  0.2823E-85
 -19.590  0.6886E-85  0.2892E-85
 -19.580  0.6886E-85  0.2961E-85
 -19.570  0.6886E-85  0.3030E-85
 -19.560  0.6886E-85  0.3099E-85
 -19.550  0.6886E-85  0.3168E-85
 -19.540  0.6886E-85  0.3237E-85
 -19.530  0.6886E-85  0.3305E-85
 -19.520  0.6886E-85  0.3374E-85
 -19.510  0.6886E-85  0.3443E-85
 -19.500  0.6886E-85  0.3512E-85
 -19.490  0.6886E-85  0.3581E-85
 -19.480  0.6886E-85  0.3650E-85
 -19.470  0.6886E-85  0.3719E-85
 -19.460  0.6886E-85  0.3787E-85
 -19.450  0.6886E-85  0.3856E-85
 -19.440  0.6886E-85  0.3925E-85
 -19.430  0.6886E-85  0.3994E-85
 -19.420  0.6886E-85  0.4063E-85
 -19.410  0.6886E-85  0.4132E-85
 -19.400  0.6886E-85  0.4201E-85
 -19.390  0.6886E-85  0.4270E-85
 -19.380  0.6886E-85  0.4338E-85
 -19.370  0.6886E-85  0.4407E-85
 -19.360  0.6886E-85  0.4476E-85
 -19.350  0.6886E-85  0.4545E-85
 -19.340  0.6886E-85  0.4614E-85
 -19.330  0.6886E-85  0.4683E-85
 -19.320  0.6886E-85  0.4752E-85
 -19.310  0.6886E-85  0.4820E-85
 -19.300  0.6886E-85  0.4889E-85
 -19.290  0.6886E-85  0.4958E-85
 -19.280  0.6886E-85  0.5027E-85
 -19.270  0.6886E-85  0.5096E-85
 -19.260  0.6886E-85  0.5165E-85
 -19.250  0.6886E-85  0.5234E-85
 -19.240  0.6886E-85  0.5302E-85
 -19.230  0.6886E-85  0.5371E-85
 -19.220  0.6886E-85  0.5440E-85
 -19.210  0.6886E-85  0.5509E-85
 -19.200  0.6886E-85  0.5578E-85
 -19.190  0.6886E-85  0.5647E-85
 -19.180  0.6886E-85  0.5716E-85
 -19.170  0.6886E-85  0.5785E-85
 -19.160  0.6886E-85  0.5853E-85
 -19.150  0.6886E-85  0.5922E-85
 -19.140  0.6886E-85  0.5991E-85
 -19.130  0.6886E-85  0.6060E-85
 -19.120  0.6886E-85  0.6129E-85
 -19.110  0.6886E-85  0.6198E-85
 -19.100  0.6886E-85  0.6267E-85
 -19.090  0.6886E-85  0.6335E-85
 -19.080  0.6886E-85  0.6404E-85
 -19.070  0.6886E-85  0.6473E-85
 -19.060  0.6886E-85  0.6542E-85
 -19.050  0.6886E-85  0.6611E-85
 -19.040  0.6886E-85  0.6680E-85
 -19.030  0.6886E-85  0.6749E-85
 -19.020  0.6886E-85  0.6817E-85
 -19.010  0.6886E-85  0.6886E-85
 -19.000  0.6886E-85  0.6955E-85
 -18.990  0.6886E-85  0.7024E-85
 -18.980  0.6886E-85  0.7093E-85
 -18.970  0.6886E-85  0.7162E-85
 -18.960  0.6886E-85  0.7231E-85
 -18.950  0.6886E-85  0.7300E-85
 -18.940  0.6886E-85  0.7368E-85
 -18.930  0.6886E-85  0.7437E-85
 -18.920  0.6886E-85  0.7506E-85
 -18.910  0.6886E-85  0.7575E-85
 -18.900  0.6886E-85  0.7644E-85
 -18.890  0.6886E-85  0.7713E-85
 -18.880  0.6886E-85  0.7782E-85
 -18.870  0.6886E-85  0.7850E-85
 -18.860  0.6886E-85  0.7919E-85
 -18.850  0.6886E-85  0.7988E-85
 -18.840  0.6886E-85  0.8057E-85
 -18.830  0.6886E-85  0.8126E-85
 -18.820  0.6886E-85  0.8195E-85
 -18.810  0.6886E-85  0.8264E-85
 -18.800  0.6886E-85  0.8332E-85
 -18.790  0.6886E-85  0.8401E-85
 -18.780  0.6886E-85  0.8470E-85
 -18.770  0.6886E-85  0.8539E-85
 -18.760  0.6886E-85  0.8608E-85
 -18.750  0.6886E-85  0.8677E-85
 -18.740  0.6886E-85  0.8746E-85
 -18.730  0.6886E-85  0.8815E-85
 -18.720  0.6886E-85  0.8883E-85
 -18.710  0.6886E-85  0.8952E-85
 -18.700  0.6886E-85  0.9021E-85
 -18.690  0.6886E-85  0.9090E-85
 -18.680  0.6886E-85  0.9159E-85
 -18.670  0.6886E-85  0.9228E-85
 -18.660  0.6886E-85  0.9297E-85
 -18.650  0.6886E-85  0.9365E-85
 -18.640  0.6886E-85  0.9434E-85
 -18.630  0.6886E-85  0.9503E-85
 -18.620  0.6886E-85  0.9572E-85
 -18.610  0.6886E-85  0.9641E-85
 -18.600  0.6886E-85  0.9710E-85
 -18.590  0.6886E-85  0.9779E-85
 -18.580  0.6886E-85  0.9847E-85
 -18.570  0.6886E-85  0.9916E-85
 -18.560  0.6886E-85  0.9985E-85
 -18.550  0.6886E-85  0.1005E-84
 -18.540  0.6886E-85  0.1012E-84
 -18.530  0.6886E-85  0.1019E-84
 -18.520  0.6886E-85  0.1026E-84
 -18.510  0.6886E-85  0.1033E-84
 -18.500  0.6886E-85  0.1040E-84
 -18.490  0.6886E-85  0.1047E-84
 -18.480  0.6886E-85  0.1054E-84
 -18.470  0.6886E-85  0.1060E-84
 -18.460  0.6886E-85  0.1067E-84
 -18.450  0.6886E-85  0.1074E-84
 -18.440  0.6886E-85  0.1081E-84
 -18.430  0.6886E-85  0.1088E-84
 -18.420  0.6886E-85  0.1095E-84
 -18.410  0.6886E-85  0.1102E-84
 -18.400  0.6886E-85  0.1109E-84
 -18.390  0.6886E-85  0.1116E-84
 -18.380  0.6886E-85  0.1122E-84
 -18.370  0.6886E-85  0.1129E-84
 -18.360  0.6886E-85  0.1136E-84
 -18.350  0.6886E-85  0.1143E-84
 -18.340  0.6886E-85  0.1150E-84
 -18.330  0.6886E-85  0.1157E-84
 -18.320  0.6886E-85  0.1164E-84
 -18.310  0.6886E-85  0.1171E-84
 -18.300  0.6886E-85  0.1178E-84
 -18.290  0.6886E-85  0.1184E-84
 -18.280  0.6886E-85  0.1191E-84
 -18.270  0.6886E-85  0.1198E-84
 -18.260  0.6886E-85  0.1205E-84
 -18.250  0.6886E-85  0.1212E-84
 -18.240  0.6886E-85  0.1219E-84
 -18.230  0.6886E-85  0.1226E-84
 -18.220  0.6886E-85  0.1233E-84
 -18.210  0.6886E-85  0.1240E-84
 -18.200  0.6886E-85  0.1246E-84
 -18.190  0.6886E-85  0.1253E-84
 -18.180  0.6886E-85  0.1260E-84
 -18.170  0.6886E-85  0.1267E-84
 -18.160  0.6886E-85  0.1274E-84
 -18.150  0.6886E-85  0.1281E-84
 -18.140  0.6886E-85  0.1288E-84
 -18.130  0.6886E-85  0.1295E-84
 -18.120  0.6886E-85  0.1302E-84
 -18.110  0.6886E-85  0.1308E-84
 -18.100  0.6886E-85  0.1315E-84
 -18.090  0.6886E-85  0.1322E-84
 -18.080  0.6886E-85  0.1329E-84
 -18.070  0.6886E-85  0.1336E-84
 -18.060  0.6886E-85  0.1343E-84
 -18.050  0.6886E-85  0.1350E-84
 -18.040  0.6886E-85  0.1357E-84
 -18.030  0.6886E-85  0.1363E-84
 -18.020  0.6886E-85  0.1370E-84
 -18.010  0.6886E-85  0.1377E-84
 -18.000  0.6886E-85  0.1384E-84
 -17.990  0.6886E-85  0.1391E-84
 -17.980  0.6886E-85  0.1398E-84
 -17.970  0.6886E-85  0.1405E-84
 -17.960  0.6886E-85  0.1412E-84
 -17.950  0.6886E-85  0.1419E-84
 -17.940  0.6886E-85  0.1425E-84
 -17.930  0.6886E-85  0.1432E-84
 -17.920  0.6886E-85  0.1439E-84
 -17.910  0.6886E-85  0.1446E-84
 -17.900  0.6886E-85  0.1453E-84
 -17.890  0.6886E-85  0.1460E-84
 -17.880  0.6886E-85  0.1467E-84
 -17.870  0.6886E-85  0.1474E-84
 -17.860  0.6886E-85  0.1481E-84
 -17.850  0.6886E-85  0.1487E-84
 -17.840  0.6886E-85  0.1494E-84
 -17.830  0.6886E-85  0.1501E-84
 -17.820  0.6886E-85  0.1508E-84
 -17.810  0.6886E-85  0.1515E-84
 -17.800  0.6886E-85  0.1522E-84
 -17.790  0.6886E-85  0.1529E-84
 -17.780  0.6886E-85  0.1536E-84
 -17.770  0.6886E-85  0.1543E-84
 -17.760  0.6886E-85  0.1549E-84
 -17.750  0.6886E-85  0.1556E-84
 -17.740  0.6886E-85  0.1563E-84
 -17.730  0.6886E-85  0.1570E-84
 -17.720  0.6886E-85  0.1577E-84
 -17.710  0.6886E-85  0.1584E-84
 -17.700  0.6886E-85  0.1591E-84
 -17.690  0.6886E-85  0.1598E-84
 -17.680  0.6886E-85  0.1605E-84
 -17.670  0.6886E-85  0.1611E-84
 -17.660  0.6886E-85  0.1618E-84
 -17.650  0.6886E-85  0.1625E-84
 -17.640  0.6886E-85  0.1632E-84
 -17.630  0.6886E-85  0.1639E-84
 -17.620  0.6886E-85  0.1646E-84
 -17.610  0.6886E-85  0.1653E-84
 -17.600  0.6886E-85  0.1660E-84
 -17.590  0.6886E-85  0.1666E-84
 -17.580  0.6886E-85  0.1673E-84
 -17.570  0.6886E-85  0.1680E-84
 -17.560  0.6886E-85  0.1687E-84
 -17.550  0.6886E-85  0.1694E-84
 -17.540  0.6886E-85  0.1701E-84
 -17.530  0.6886E-85  0.1708E-84
 -17.520  0.6886E-85  0.1715E-84
 -17.510  0.6886E-85  0.1722E-84
 -17.500  0.6886E-85  0.1728E-84
 -17.490  0.6886E-85  0.1735E-84
 -17.480  0.6886E-85  0.1742E-84
 -17.470  0.6886E-85  0.1749E-84
 -17.460  0.6886E-85  0.1756E-84
 -17.450  0.6886E-85  0.1763E-84
 -17.440  0.6886E-85  0.1770E-84
 -17.430  0.6886E-85  0.1777E-84
 -17.420  0.6886E-85  0.1784E-84
 -17.410  0.6886E-85  0.1790E-84
 -17.400  0.6886E-85  0.1797E-84
 -17.390  0.6886E-85  0.1804E-84
 -17.380  0.6886E-85  0.1811E-84
 -17.370  0.6886E-85  0.1818E-84
 -17.360  0.6886E-85  0.1825E-84
 -17.350  0.6886E-85  0.1832E-84
 -17.340  0.6886E-85  0.1839E-84
 -17.330  0.6886E-85  0.1846E-84
 -17.320  0.6886E-85  0.1852E-84
 -17.310  0.6886E-85  0.1859E-84
 -17.300  0.6886E-85  0.1866E-84
 -17.290  0.6886E-85  0.1873E-84
 -17.280  0.6886E-85  0.1880E-84
 -17.270  0.6886E-85  0.1887E-84
 -17.260  0.6886E-85  0.1894E-84
 -17.250  0.6886E-85  0.1901E-84
 -17.240  0.6886E-85  0.1908E-84
 -17.230  0.6886E-85  0.1914E-84
 -17.220  0.6886E-85  0.1921E-84
 -17.210  0.6886E-85  0.1928E-84
 -17.200  0.6886E-85  0.1935E-84
 -17.190  0.6886E-85  0.1942E-84
 -17.180  0.6886E-85  0.1949E-84
 -17.170  0.6886E-85  0.1956E-84
 -17.160  0.6886E-85  0.1963E-84
 -17.150  0.6886E-85  0.1969E-84
 -17.140  0.6886E-85  0.1976E-84
 -17.130  0.6886E-85  0.1983E-84
 -17.120  0.6886E-85  0.1990E-84
 -17.110  0.6886E-85  0.1997E-84
 -17.100  0.6886E-85  0.2004E-84
 -17.090  0.6886E-85  0.2011E-84
 -17.080  0.6886E-85  0.2018E-84
 -17.070  0.6886E-85  0.2025E-84
 -17.060  0.6886E-85  0.2031E-84
 -17.050  0.6886E-85  0.2038E-84
 -17.040  0.6886E-85  0.2045E-84
 -17.030  0.6886E-85  0.2052E-84
 -17.020  0.6886E-85  0.2059E-84
 -17.010  0.6886E-85  0.2066E-84
 -17.000  0.6886E-85  0.2073E-84
 -16.990  0.6886E-85  0.2080E-84
 -16.980  0.6886E-85  0.2087E-84
 -16.970  0.6886E-85  0.2093E-84
 -16.960  0.6886E-85  0.2100E-84
 -16.950  0.6886E-85  0.2107E-84
 -16.940  0.6886E-85  0.2114E-84
 -16.930  0.6886E-85  0.2121E-84
 -16.920  0.6886E-85  0.2128E-84
 -16.910  0.6886E-85  0.2135E-84
 -16.900  0.6886E-85  0.2142E-84
 -16.890  0.6886E-85  0.2149E-84
 -16.880  0.6886E-85  0.2155E-84
 -16.870  0.6886E-85  0.2162E-84
 -16.860  0.6886E-85  0.2169E-84
 -16.850  0.6886E-85  0.2176E-84
 -16.840  0.6886E-85  0.2183E-84
 -16.830  0.6886E-85  0.2190E-84
 -16.820  0.6886E-85  0.2197E-84
 -16.810  0.6886E-85  0.2204E-84
 -16.800  0.6886E-85  0.2211E-84
 -16.790  0.6886E-85  0.2217E-84
 -16.780  0.6886E-85  0.2224E-84
 -16.770  0.6886E-85  0.2231E-84
 -16.760  0.6886E-85  0.2238E-84
 -16.750  0.6886E-85  0.2245E-84
 -16.740  0.6886E-85  0.2252E-84
 -16.730  0.6886E-85  0.2259E-84
 -16.720  0.6886E-85  0.2266E-84
 -16.710  0.6886E-85  0.2272E-84
 -16.700  0.6886E-85  0.2279E-84
 -16.690  0.6886E-85  0.2286E-84
 -16.680  0.6886E-85  0.2293E-84
 -16.670  0.6886E-85  0.2300E-84
 -16.660  0.6886E-85  0.2307E-84
 -16.650  0.6886E-85  0.2314E-84
 -16.640  0.6886E-85  0.2321E-84
 -16.630  0.6886E-85  0.2328E-84
 -16.620  0.6886E-85  0.2334E-84
 -16.610  0.6886E-85  0.2341E-84
 -16.600  0.6886E-85  0.2348E-84
 -16.590  0.6886E-85  0.2355E-84
 -16.580  0.6886E-85  0.2362E-84
 -16.570  0.6886E-85  0.2369E-84
 -16.560  0.6886E-85  0.2376E-84
 -16.550  0.6886E-85  0.2383E-84
 -16.540  0.6886E-85  0.2390E-84
 -16.530  0.6886E-85  0.2396E-84
 -16.520  0.6886E-85  0.2403E-84
 -16.510  0.6886E-85  0.2410E-84
 -16.500  0.6886E-85  0.2417E-84
 -16.490  0.6886E-85  0.2424E-84
 -16.480  0.6886E-85  0.2431E-84
 -16.470  0.6886E-85  0.2438E-84
 -16.460  0.6886E-85  0.2445E-84
 -16.450  0.6886E-85  0.2452E-84
 -16.440  0.6886E-85  0.2458E-84
 -16.430  0.6886E-85  0.2465E-84
 -16.420  0.6886E-85  0.2472E-84
 -16.410  0.6886E-85  0.2479E-84
 -16.400  0.6886E-85  0.2486E-84
 -16.390  0.6886E-85  0.2493E-84
 -16.380  0.6886E-85  0.2500E-84
 -16.370  0.6886E-85  0.2507E-84
 -16.360  0.6886E-85  0.2514E-84
 -16.350  0.6886E-85  0.2520E-84
 -16.340  0.6886E-85  0.2527E-84
 -16.330  0.6886E-85  0.2534E-84
 -16.320  0.6886E-85  0.2541E-84
 -16.310  0.6886E-85  0.2548E-84
 -16.300  0.6886E-85  0.2555E-84
 -16.290  0.6886E-85  0.2562E-84
 -16.280  0.6886E-85  0.2569E-84
 -16.270  0.6886E-85  0.2575E-84
 -16.260  0.6886E-85  0.2582E-84
 -16.250  0.6886E-85  0.2589E-84
 -16.240  0.6886E-85  0.2596E-84
 -16.230  0.6886E-85  0.2603E-84
 -16.220  0.6886E-85  0.2610E-84
 -16.210  0.6886E-85  0.2617E-84
 -16.200  0.6886E-85  0.2624E-84
 -16.190  0.6886E-85  0.2631E-84
 -16.180  0.6886E-85  0.2637E-84
 -16.170  0.6886E-85  0.2644E-84
 -16.160  0.6886E-85  0.2651E-84
 -16.150  0.6886E-85  0.2658E-84
 -16.140  0.6886E-85  0.2665E-84
 -16.130  0.6886E-85  0.2672E-84
 -16.120  0.6886E-85  0.2679E-84
 -16.110  0.6886E-85  0.2686E-84
 -16.100  0.6886E-85  0.2693E-84
 -16.090  0.6886E-85  0.2699E-84
 -16.080  0.6886E-85  0.2706E-84
 -16.070  0.6886E-85  0.2713E-84
 -16.060  0.6886E-85  0.2720E-84
 -16.050  0.6886E-85  0.2727E-84
 -16.040  0.6886E-85  0.2734E-84
 -16.030  0.6886E-85  0.2741E-84
 -16.020  0.6886E-85  0.2748E-84
 -16.010  0.6886E-85  0.2755E-84
 -16.000  0.6886E-85  0.2761E-84
 -15.990  0.6886E-85  0.2768E-84
 -15.980  0.6886E-85  0.2775E-84
 -15.970  0.6886E-85  0.2782E-84
 -15.960  0.6886E-85  0.2789E-84
 -15.950  0.6886E-85  0.2796E-84
 -15.940  0.6886E-85  0.2803E-84
 -15.930  0.6886E-85  0.2810E-84
 -15.920  0.6886E-85  0.2817E-84
 -15.910  0.6886E-85  0.2823E-84
 -15.900  0.6886E-85  0.2830E-84
 -15.890  0.6886E-85  0.2837E-84
 -15.880  0.6886E-85  0.2844E-84
 -15.870  0.6886E-85  0.2851E-84
 -15.860  0.6886E-85  0.2858E-84
 -15.850  0.6886E-85  0.2865E-84
 -15.840  0.6886E-85  0.2872E-84
 -15.830  0.6886E-85  0.2878E-84
 -15.820  0.6886E-85  0.2885E-84
 -15.810  0.6886E-85  0.2892E-84
 -15.800  0.6886E-85  0.2899E-84
 -15.790  0.6886E-85  0.2906E-84
 -15.780  0.6886E-85  0.2913E-84
 -15.770  0.6886E-85  0.2920E-84
 -15.760  0.6886E-85  0.2927E-84
 -15.750  0.6886E-85  0.2934E-84
 -15.740  0.6886E-85  0.2940E-84
 -15.730  0.6886E-85  0.2947E-84
 -15.720  0.6886E-85  0.2954E-84
 -15.710  0.6886E-85  0.2961E-84
 -15.700  0.6886E-85  0.2968E-84
 -15.690  0.6886E-85  0.2975E-84
 -15.680  0.6886E-85  0.2982E-84
 -15.670  0.6886E-85  0.2989E-84
 -15.660  0.6886E-85  0.2996E-84
 -15.650  0.6886E-85  0.3002E-84
 -15.640  0.6886E-85  0.3009E-84
 -15.630  0.6886E-85  0.3016E-84
 -15.620  0.6886E-85  0.3023E-84
 -15.610  0.6886E-85  0.3030E-84
 -15.600  0.6886E-85  0.3037E-84
 -15.590  0.6886E-85  0.3044E-84
 -15.580  0.6886E-85  0.3051E-84
 -15.570  0.6886E-85  0.3058E-84
 -15.560  0.6886E-85  0.3064E-84
 -15.550  0.6886E-85  0.3071E-84
 -15.540  0.6886E-85  0.3078E-84
 -15.530  0.6886E-85  0.3085E-84
 -15.520  0.6886E-85  0.3092E-84
 -15.510  0.6886E-85  0.3099E-84
 -15.500  0.6886E-85  0.3106E-84
 -15.490  0.6886E-85  0.3113E-84
 -15.480  0.6886E-85  0.3120E-84
 -15.470  0.6886E-85  0.3126E-84
 -15.460  0.6886E-85  0.3133E-84
 -15.450  0.6886E-85  0.3140E-84
 -15.440  0.6886E-85  0.3147E-84
 -15.430  0.6886E-85  0.3154E-84
 -15.420  0.6886E-85  0.3161E-84
 -15.410  0.6886E-85  0.3168E-84
 -15.400  0.6886E-85  0.3175E-84
 -15.390  0.6886E-85  0.3181E-84
 -15.380  0.6886E-85  0.3188E-84
 -15.370  0.6886E-85  0.3195E-84
 -15.360  0.6886E-85  0.3202E-84
 -15.350  0.6886E-85  0.3209E-84
 -15.340  0.6886E-85  0.3216E-84
 -15.330  0.6886E-85  0.3223E-84
 -15.320  0.6886E-85  0.3230E-84
 -15.310  0.6886E-85  0.3237E-84
 -15.300  0.6886E-85  0.3243E-84
 -15.290  0.6886E-85  0.3250E-84
 -15.280  0.6886E-85  0.3257E-84
 -15.270  0.6886E-85  0.3264E-84
 -15.260  0.6886E-85  0.3271E-84
 -15.250  0.6886E-85  0.3278E-84
 -15.240  0.6886E-85  0.3285E-84
 -15.230  0.6886E-85  0.3292E-84
 -15.220  0.6886E-85  0.3299E-84
 -15.210  0.6886E-85  0.3305E-84
 -15.200  0.6886E-85  0.3312E-84
 -15.190  0.6886E-85  0.3319E-84
 -15.180  0.6886E-85  0.3326E-84
 -15.170  0.6886E-85  0.3333E-84
 -15.160  0.6886E-85  0.3340E-84
 -15.150  0.6886E-85  0.3347E-84
 -15.140  0.6886E-85  0.3354E-84
 -15.130  0.6886E-85  0.3361E-84
 -15.120  0.6886E-85  0.3367E-84
 -15.110  0.6886E-85  0.3374E-84
 -15.100  0.6886E-85  0.3381E-84
 -15.090  0.6886E-85  0.3388E-84
 -15.080  0.6886E-85  0.3395E-84
 -15.070  0.6886E-85  0.3402E-84
 -15.060  0.6886E-85  0.3409E-84
 -15.050  0.6886E-85  0.3416E-84
 -15.040  0.6886E-85  0.3423E-84
 -15.030  0.6886E-85  0.3429E-84
 -15.020  0.6886E-85  0.3436E-84
 -15.010  0.6886E-85  0.3443E-84
 -15.000  0.6886E-85  0.3450E-84
 -14.990  0.6886E-85  0.3457E-84
 -14.980  0.6886E-85  0.3464E-84
 -14.970  0.6886E-85  0.3471E-84
 -14.960  0.6886E-85  0.3478E-84
 -14.950  0.6886E-85  0.3484E-84
 -14.940  0.6886E-85  0.3491E-84
 -14.930  0.6886E-85  0.3498E-84
 -14.920  0.6886E-85  0.3505E-84
 -14.910  0.6886E-85  0.3512E-84
 -14.900  0.6886E-85  0.3519E-84
 -14.890  0.6886E-85  0.3526E-84
 -14.880  0.6886E-85  0.3533E-84
 -14.870  0.6886E-85  0.3540E-84
 -14.860  0.6886E-85  0.3546E-84
 -14.850  0.6886E-85  0.3553E-84
 -14.840  0.6886E-85  0.3560E-84
 -14.830  0.6886E-85  0.3567E-84
 -14.820  0.6886E-85  0.3574E-84
 -14.810  0.6886E-85  0.3581E-84
 -14.800  0.6886E-85  0.3588E-84
 -14.790  0.6886E-85  0.3595E-84
 -14.780  0.6886E-85  0.3602E-84
 -14.770  0.6886E-85  0.3608E-84
 -14.760  0.6886E-85  0.3615E-84
 -14.750  0.6886E-85  0.3622E-84
 -14.740  0.6886E-85  0.3629E-84
 -14.730  0.6886E-85  0.3636E-84
 -14.720  0.6886E-85  0.3643E-84
 -14.710  0.6886E-85  0.3650E-84
 -14.700  0.6886E-85  0.3657E-84
 -14.690  0.6886E-85  0.3664E-84
 -14.680  0.6886E-85  0.3670E-84
 -14.670  0.6886E-85  0.3677E-84
 -14.660  0.6886E-85  0.3684E-84
 -14.650  0.6886E-85  0.3691E-84
 -14.640  0.6886E-85  0.3698E-84
 -14.630  0.6886E-85  0.3705E-84
 -14.620  0.6886E-85  0.3712E-84
 -14.610  0.6886E-85  0.3719E-84
 -14.600  0.6886E-85  0.3726E-84
 -14.590  0.6886E-85  0.3732E-84
 -14.580  0.6886E-85  0.3739E-84
 -14.570  0.6886E-85  0.3746E-84
 -14.560  0.6886E-85  0.3753E-84
 -14.550  0.6886E-85  0.3760E-84
 -14.540  0.6886E-85  0.3767E-84
 -14.530  0.6886E-85  0.3774E-84
 -14.520  0.6886E-85  0.3781E-84
 -14.510  0.6886E-85  0.3787E-84
 -14.500  0.6886E-85  0.3794E-84
 -14.490  0.6886E-85  0.3801E-84
 -14.480  0.6886E-85  0.3808E-84
 -14.470  0.6886E-85  0.3815E-84
 -14.460  0.6886E-85  0.3822E-84
 -14.450  0.6886E-85  0.3829E-84
 -14.440  0.6886E-85  0.3836E-84
 -14.430  0.6886E-85  0.3843E-84
 -14.420  0.6886E-85  0.3849E-84
 -14.410  0.6886E-85  0.3856E-84
 -14.400  0.6886E-85  0.3863E-84
 -14.390  0.6886E-85  0.3870E-84
 -14.380  0.6886E-85  0.3877E-84
 -14.370  0.6886E-85  0.3884E-84
 -14.360  0.6886E-85  0.3891E-84
 -14.350  0.6886E-85  0.3898E-84
 -14.340  0.6886E-85  0.3905E-84
 -14.330  0.6886E-85  0.3911E-84
 -14.320  0.6886E-85  0.3918E-84
 -14.310  0.6886E-85  0.3925E-84
 -14.300  0.6886E-85  0.3932E-84
 -14.290  0.6886E-85  0.3939E-84
 -14.280  0.6886E-85  0.3946E-84
 -14.270  0.6886E-85  0.3953E-84
 -14.260  0.6886E-85  0.3960E-84
 -14.250  0.6886E-85  0.3967E-84
 -14.240  0.6886E-85  0.3973E-84
 -14.230  0.6886E-85  0.3980E-84
 -14.220  0.6886E-85  0.3987E-84
 -14.210  0.6886E-85  0.3994E-84
 -14.200  0.6886E-85  0.4001E-84
 -14.190  0.6886E-85  0.4008E-84
 -14.180  0.6886E-85  0.4015E-84
 -14.170  0.6886E-85  0.4022E-84
 -14.160  0.6886E-85  0.4029E-84
 -14.150  0.6886E-85  0.4035E-84
 -14.140  0.6886E-85  0.4042E-84
 -14.130  0.6886E-85  0.4049E-84
 -14.120  0.6886E-85  0.4056E-84
 -14.110  0.6886E-85  0.4063E-84
 -14.100  0.6886E-85  0.4070E-84
 -14.090  0.6886E-85  0.4077E-84
 -14.080  0.6886E-85  0.4084E-84
 -14.070  0.6886E-85  0.4090E-84
 -14.060  0.6886E-85  0.4097E-84
 -14.050  0.6886E-85  0.4104E-84
 -14.040  0.6886E-85  0.4111E-84
 -14.030  0.6886E-85  0.4118E-84
 -14.020  0.6886E-85  0.4125E-84
 -14.010  0.6886E-85  0.4132E-84
 -14.000  0.6886E-85  0.4139E-84
 -13.990  0.6886E-85  0.4146E-84
 -13.980  0.6886E-85  0.4152E-84
 -13.970  0.6886E-85  0.4159E-84
 -13.960  0.6886E-85  0.4166E-84
 -13.950  0.6886E-85  0.4173E-84
 -13.940  0.6886E-85  0.4180E-84
 -13.930  0.6886E-85  0.4187E-84
 -13.920  0.6886E-85  0.4194E-84
 -13.910  0.6886E-85  0.4201E-84
 -13.900  0.6886E-85  0.4208E-84
 -13.890  0.6886E-85  0.4214E-84
 -13.880  0.6886E-85  0.4221E-84
 -13.870  0.6886E-85  0.4228E-84
 -13.860  0.6886E-85  0.4235E-84
 -13.850  0.6886E-85  0.4242E-84
 -13.840  0.6886E-85  0.4249E-84
 -13.830  0.6886E-85  0.4256E-84
 -13.820  0.6886E-85  0.4263E-84
 -13.810  0.6886E-85  0.4270E-84
 -13.800  0.6886E-85  0.4276E-84
 -13.790  0.6886E-85  0.4283E-84
 -13.780  0.6886E-85  0.4290E-84
 -13.770  0.6886E-85  0.4297E-84
 -13.760  0.6886E-85  0.4304E-84
 -13.750  0.6886E-85  0.4311E-84
 -13.740  0.6886E-85  0.4318E-84
 -13.730  0.6886E-85  0.4325E-84
 -13.720  0.6886E-85  0.4332E-84
 -13.710  0.6886E-85  0.4338E-84
 -13.700  0.6886E-85  0.4345E-84
 -13.690  0.6886E-85  0.4352E-84
 -13.680  0.6886E-85  0.4359E-84
 -13.670  0.6886E-85  0.4366E-84
 -13.660  0.6886E-85  0.4373E-84
 -13.650  0.6886E-85  0.4380E-84
 -13.640  0.6886E-85  0.4387E-84
 -13.630  0.6886E-85  0.4393E-84
 -13.620  0.6886E-85  0.4400E-84
 -13.610  0.6886E-85  0.4407E-84
 -13.600  0.6886E-85  0.4414E-84
 -13.590  0.6886E-85  0.4421E-84
 -13.580  0.6886E-85  0.4428E-84
 -13.570  0.6886E-85  0.4435E-84
 -13.560  0.6886E-85  0.4442E-84
 -13.550  0.6886E-85  0.4449E-84
 -13.540  0.6886E-85  0.4455E-84
 -13.530  0.6886E-85  0.4462E-84
 -13.520  0.6886E-85  0.4469E-84
 -13.510  0.6886E-85  0.4476E-84
 -13.500  0.6886E-85  0.4483E-84
 -13.490  0.6886E-85  0.4490E-84
 -13.480  0.6886E-85  0.4497E-84
 -13.470  0.6886E-85  0.4504E-84
 -13.460  0.6886E-85  0.4511E-84
 -13.450  0.6886E-85  0.4517E-84
 -13.440  0.6886E-85  0.4524E-84
 -13.430  0.6886E-85  0.4531E-84
 -13.420  0.6886E-85  0.4538E-84
 -13.410  0.6886E-85  0.4545E-84
 -13.400  0.6886E-85  0.4552E-84
 -13.390  0.6886E-85  0.4559E-84
 -13.380  0.6886E-85  0.4566E-84
 -13.370  0.6886E-85  0.4573E-84
 -13.360  0.6886E-85  0.4579E-84
 -13.350  0.6886E-85  0.4586E-84
 -13.340  0.6886E-85  0.4593E-84
 -13.330  0.6886E-85  0.4600E-84
 -13.320  0.6886E-85  0.4607E-84
 -13.310  0.6886E-85  0.4614E-84
 -13.300  0.6886E-85  0.4621E-84
 -13.290  0.6886E-85  0.4628E-84
 -13.280  0.6886E-85  0.4635E-84
 -13.270  0.6886E-85  0.4641E-84
 -13.260  0.6886E-85  0.4648E-84
 -13.250  0.6886E-85  0.4655E-84
 -13.240  0.6886E-85  0.4662E-84
 -13.230  0.6886E-85  0.4669E-84
 -13.220  0.6886E-85  0.4676E-84
 -13.210  0.6886E-85  0.4683E-84
 -13.200  0.6886E-85  0.4690E-84
 -13.190  0.6886E-85  0.4696E-84
 -13.180  0.6886E-85  0.4703E-84
 -13.170  0.6886E-85  0.4710E-84
 -13.160  0.6886E-85  0.4717E-84
 -13.150  0.6886E-85  0.4724E-84
 -13.140  0.6886E-85  0.4731E-84
 -13.130  0.6886E-85  0.4738E-84
 -13.120  0.6886E-85  0.4745E-84
 -13.110  0.6886E-85  0.4752E-84
 -13.100  0.6886E-85  0.4758E-84
 -13.090  0.6886E-85  0.4765E-84
 -13.080  0.6886E-85  0.4772E-84
 -13.070  0.6886E-85  0.4779E-84
 -13.060  0.6886E-85  0.4786E-84
 -13.050  0.6886E-85  0.4793E-84
 -13.040  0.6886E-85  0.4800E-84
 -13.030  0.6886E-85  0.4807E-84
 -13.020  0.6886E-85  0.4814E-84
 -13.010  0.6886E-85  0.4820E-84
 -13.000  0.6886E-85  0.4827E-84
 -12.990  0.6886E-85  0.4834E-84
 -12.980  0.6886E-85  0.4841E-84
 -12.970  0.6886E-85  0.4848E-84
 -12.960  0.6886E-85  0.4855E-84
 -12.950  0.6886E-85  0.4862E-84
 -12.940  0.6886E-85  0.4869E-84
 -12.930  0.6886E-85  0.4876E-84
 -12.920  0.6886E-85  0.4882E-84
 -12.910  0.6886E-85  0.4889E-84
 -12.900  0.6886E-85  0.4896E-84
 -12.890  0.6886E-85  0.4903E-84
 -12.880  0.6886E-85  0.4910E-84
 -12.870  0.6886E-85  0.4917E-84
 -12.860  0.6886E-85  0.4924E-84
 -12.850  0.6886E-85  0.4931E-84
 -12.840  0.6886E-85  0.4938E-84
 -12.830  0.6886E-85  0.4944E-84
 -12.820  0.6886E-85  0.4951E-84
 -12.810  0.6886E-85  0.4958E-84
 -12.800  0.6886E-85  0.4965E-84
 -12.790  0.6886E-85  0.4972E-84
 -12.780  0.6886E-85  0.4979E-84
 -12.770  0.6886E-85  0.4986E-84
 -12.760  0.6886E-85  0.4993E-84
 -12.750  0.6886E-85  0.4999E-84
 -12.740  0.6886E-85  0.5006E-84
 -12.730  0.6886E-85  0.5013E-84
 -12.720  0.6886E-85  0.5020E-84
 -12.710  0.6886E-85  0.5027E-84
 -12.700  0.6886E-85  0.5034E-84
 -12.690  0.6886E-85  0.5041E-84
 -12.680  0.6886E-85  0.5048E-84
 -12.670  0.6886E-85  0.5055E-84
 -12.660  0.6886E-85  0.5061E-84
 -12.650  0.6886E-85  0.5068E-84
 -12.640  0.6886E-85  0.5075E-84
 -12.630  0.6886E-85  0.5082E-84
 -12.620  0.6886E-85  0.5089E-84
 -12.610  0.6886E-85  0.5096E-84
 -12.600  0.6886E-85  0.5103E-84
 -12.590  0.6886E-85  0.5110E-84
 -12.580  0.6886E-85  0.5117E-84
 -12.570  0.6886E-85  0.5123E-84
 -12.560  0.6886E-85  0.5130E-84
 -12.550  0.6886E-85  0.5137E-84
 -12.540  0.6886E-85  0.5144E-84
 -12.530  0.6886E-85  0.5151E-84
 -12.520  0.6886E-85  0.5158E-84
 -12.510  0.6886E-85  0.5165E-84
 -12.500  0.6886E-85  0.5172E-84
 -12.490  0.6886E-85  0.5179E-84
 -12.480  0.6886E-85  0.5185E-84
 -12.470  0.6886E-85  0.5192E-84
 -12.460  0.6886E-85  0.5199E-84
 -12.450  0.6886E-85  0.5206E-84
 -12.440  0.6886E-85  0.5213E-84
 -12.430  0.6886E-85  0.5220E-84
 -12.420  0.6886E-85  0.5227E-84
 -12.410  0.6886E-85  0.5234E-84
 -12.400  0.6886E-85  0.5241E-84
 -12.390  0.6886E-85  0.5247E-84
 -12.380  0.6886E-85  0.5254E-84
 -12.370  0.6886E-85  0.5261E-84
 -12.360  0.6886E-85  0.5268E-84
 -12.350  0.6886E-85  0.5275E-84
 -12.340  0.6886E-85  0.5282E-84
 -12.330  0.6886E-85  0.5289E-84
 -12.320  0.6886E-85  0.5296E-84
 -12.310  0.6886E-85  0.5302E-84
 -12.300  0.6886E-85  0.5309E-84
 -12.290  0.6886E-85  0.5316E-84
 -12.280  0.6886E-85  0.5323E-84
 -12.270  0.6886E-85  0.5330E-84
 -12.260  0.6886E-85  0.5337E-84
 -12.250  0.6886E-85  0.5344E-84
 -12.240  0.6886E-85  0.5351E-84
 -12.230  0.6886E-85  0.5358E-84
 -12.220  0.6886E-85  0.5364E-84
 -12.210  0.6886E-85  0.5371E-84
 -12.200  0.6886E-85  0.5378E-84
 -12.190  0.6886E-85  0.5385E-84
 -12.180  0.6886E-85  0.5392E-84
 -12.170  0.6886E-85  0.5399E-84
 -12.160  0.6886E-85  0.5406E-84
 -12.150  0.6886E-85  0.5413E-84
 -12.140  0.6886E-85  0.5420E-84
 -12.130  0.6886E-85  0.5426E-84
 -12.120  0.6886E-85  0.5433E-84
 -12.110  0.6886E-85  0.5440E-84
 -12.100  0.6886E-85  0.5447E-84
 -12.090  0.6886E-85  0.5454E-84
 -12.080  0.6886E-85  0.5461E-84
 -12.070  0.6886E-85  0.5468E-84
 -12.060  0.6886E-85  0.5475E-84
 -12.050  0.6886E-85  0.5482E-84
 -12.040  0.6886E-85  0.5488E-84
 -12.030  0.6886E-85  0.5495E-84
 -12.020  0.6886E-85  0.5502E-84
 -12.010  0.6886E-85  0.5509E-84
 -12.000  0.6886E-85  0.5516E-84
 -11.990  0.6886E-85  0.5523E-84
 -11.980  0.6886E-85  0.5530E-84
 -11.970  0.6886E-85  0.5537E-84
 -11.960  0.6886E-85  0.5544E-84
 -11.950  0.6886E-85  0.5550E-84
 -11.940  0.6886E-85  0.5557E-84
 -11.930  0.6886E-85  0.5564E-84
 -11.920  0.6886E-85  0.5571E-84
 -11.910  0.6886E-85  0.5578E-84
 -11.900  0.6886E-85  0.5585E-84
 -11.890  0.6886E-85  0.5592E-84
 -11.880  0.6886E-85  0.5599E-84
 -11.870  0.6886E-85  0.5605E-84
 -11.860  0.6886E-85  0.5612E-84
 -11.850  0.6886E-85  0.5619E-84
 -11.840  0.6886E-85  0.5626E-84
 -11.830  0.6886E-85  0.5633E-84
 -11.820  0.6886E-85  0.5640E-84
 -11.810  0.6886E-85  0.5647E-84
 -11.800  0.6886E-85  0.5654E-84
 -11.790  0.6886E-85  0.5661E-84
 -11.780  0.6886E-85  0.5667E-84
 -11.770  0.6886E-85  0.5674E-84
 -11.760  0.6886E-85  0.5681E-84
 -11.750  0.6886E-85  0.5688E-84
 -11.740  0.6886E-85  0.5695E-84
 -11.730  0.6886E-85  0.5702E-84
 -11.720  0.6886E-85  0.5709E-84
 -11.710  0.6886E-85  0.5716E-84
 -11.700  0.6886E-85  0.5723E-84
 -11.690  0.6886E-85  0.5729E-84
 -11.680  0.6886E-85  0.5736E-84
 -11.670  0.6886E-85  0.5743E-84
 -11.660  0.6886E-85  0.5750E-84
 -11.650  0.6886E-85  0.5757E-84
 -11.640  0.6886E-85  0.5764E-84
 -11.630  0.6886E-85  0.5771E-84
 -11.620  0.6886E-85  0.5778E-84
 -11.610  0.6886E-85  0.5785E-84
 -11.600  0.6886E-85  0.5791E-84
 -11.590  0.6886E-85  0.5798E-84
 -11.580  0.6886E-85  0.5805E-84
 -11.570  0.6886E-85  0.5812E-84
 -11.560  0.6886E-85  0.5819E-84
 -11.550  0.6886E-85  0.5826E-84
 -11.540  0.6886E-85  0.5833E-84
 -11.530  0.6886E-85  0.5840E-84
 -11.520  0.6886E-85  0.5847E-84
 -11.510  0.6886E-85  0.5853E-84
 -11.500  0.6886E-85  0.5860E-84
 -11.490  0.6886E-85  0.5867E-84
 -11.480  0.6886E-85  0.5874E-84
 -11.470  0.6886E-85  0.5881E-84
 -11.460  0.6886E-85  0.5888E-84
 -11.450  0.6886E-85  0.5895E-84
 -11.440  0.6886E-85  0.5902E-84
 -11.430  0.6886E-85  0.5908E-84
 -11.420  0.6886E-85  0.5915E-84
 -11.410  0.6886E-85  0.5922E-84
 -11.400  0.6886E-85  0.5929E-84
 -11.390  0.6886E-85  0.5936E-84
 -11.380  0.6886E-85  0.5943E-84
 -11.370  0.6886E-85  0.5950E-84
 -11.360  0.6886E-85  0.5957E-84
 -11.350  0.6886E-85  0.5964E-84
 -11.340  0.6886E-85  0.5970E-84
 -11.330  0.6886E-85  0.5977E-84
 -11.320  0.6886E-85  0.5984E-84
 -11.310  0.6886E-85  0.5991E-84
 -11.300  0.6886E-85  0.5998E-84
 -11.290  0.6886E-85  0.6005E-84
 -11.280  0.6886E-85  0.6012E-84
 -11.270  0.6886E-85  0.6019E-84
 -11.260  0.6886E-85  0.6026E-84
 -11.250  0.6886E-85  0.6032E-84
 -11.240  0.6886E-85  0.6039E-84
 -11.230  0.6886E-85  0.6046E-84
 -11.220  0.6886E-85  0.6053E-84
 -11.210  0.6886E-85  0.6060E-84
 -11.200  0.6886E-85  0.6067E-84
 -11.190  0.6886E-85  0.6074E-84
 -11.180  0.6886E-85  0.6081E-84
 -11.170  0.6886E-85  0.6088E-84
 -11.160  0.6886E-85  0.6094E-84
 -11.150  0.6886E-85  0.6101E-84
 -11.140  0.6886E-85  0.6108E-84
 -11.130  0.6886E-85  0.6115E-84
 -11.120  0.6886E-85  0.6122E-84
 -11.110  0.6886E-85  0.6129E-84
 -11.100  0.6886E-85  0.6136E-84
 -11.090  0.6886E-85  0.6143E-84
 -11.080  0.6886E-85  0.6150E-84
 -11.070  0.6886E-85  0.6156E-84
 -11.060  0.6886E-85  0.6163E-84
 -11.050  0.6886E-85  0.6170E-84
 -11.040  0.6886E-85  0.6177E-84
 -11.030  0.6886E-85  0.6184E-84
 -11.020  0.6886E-85  0.6191E-84
 -11.010  0.6886E-85  0.6198E-84
 -11.000  0.6886E-85  0.6205E-84
 -10.990  0.6886E-85  0.6211E-84
 -10.980  0.6886E-85  0.6218E-84
 -10.970  0.6886E-85  0.6225E-84
 -10.960  0.6886E-85  0.6232E-84
 -10.950  0.6886E-85  0.6239E-84
 -10.940  0.6886E-85  0.6246E-84