********************************************************************************
*                       GENERAL UTILITY LATTICE PROGRAM                        *
*                                 Julian Gale                                  *
*                       Curtin Institute for Computation                       *
*                    School of Molecular and Life Sciences                     *
*                    Curtin University, Western Australia                      *
********************************************************************************
* Version = 6.2.0 * Last modified =  19th December 2023                        *
********************************************************************************
*  optimise     - perform optimisation run                                     *
*  conp         - constant pressure calculation                                *
*  molq         - molecule option activated, but with Coulomb terms retained   *
********************************************************************************
* ASE calculation                                                              *
********************************************************************************


  Job Started  at 11:00.48 11th August     2024                               

  Number of CPUs =     1


  Total number of configurations input =      1

********************************************************************************
*  Input for Configuration =   1                                               *
********************************************************************************

  Formula = O20Si8H8                                                    

  Number of irreducible atoms/shells =      56


  Total number atoms/shells =      56

  Dimensionality = 0               :  Cluster


  Charge on cluster =  -0.000000


  Initial cluster dipoles : x =      0.118392 e.Angs
                            y =     -0.056657 e.Angs
                            z =     -0.022648 e.Angs

  Temperature of configuration =   0.00     K 

  Symmetry number =      1

  Cartesian coordinates of cluster :

--------------------------------------------------------------------------------
   No.  Atomic       x           y          z         Charge      Occupancy
        Label      (Angs)      (Angs)     (Angs)        (e)         (Frac)  
--------------------------------------------------------------------------------
      1 O1    c     -1.4443 *   -0.4321 *   -2.0548 *   1.91981    1.000000    
      2 O2    c     -0.2369 *    2.9873 *    1.2000 *   1.42911    1.000000    
      3 O1    c      3.0602 *   -1.0591 *    0.5799 *   1.91981    1.000000    
      4 O2    c      2.9583 *   -3.2891 *    2.0276 *   1.42911    1.000000    
      5 Si    c     -0.5227 *    0.8476 *   -2.4752 *   2.72260    1.000000    
      6 O2    c     -2.8305 *   -2.7236 *   -2.0206 *   1.42911    1.000000    
      7 Si    c     -0.7643 *   -1.2511 *    1.4024 *   2.72260    1.000000    
      8 O2    c      3.3348 *    0.0416 *   -4.1686 *   1.42911    1.000000    
      9 O1    c     -1.3520 *   -2.0096 *    0.0759 *   1.91981    1.000000    
     10 Si    c     -1.4547 *   -1.9856 *   -1.5545 *   2.72260    1.000000    
     11 O1    c      0.8550 *    0.2981 *   -3.1600 *   1.91981    1.000000    
     12 O1    c      1.7583 *    1.2560 *    0.6902 *   1.91981    1.000000    
     13 Si    c      2.3764 *   -0.2395 *   -2.8812 *   2.72260    1.000000    
     14 O2    c      1.8065 *   -4.4842 *   -2.6865 *   1.42911    1.000000    
     15 O1    c     -0.1442 *   -2.7450 *   -2.1778 *   1.91981    1.000000    
     16 Si    c      0.1676 *    1.5830 *    0.4800 *   2.72260    1.000000    
     17 O2    c     -1.3072 *    1.7969 *   -3.5421 *   1.42911    1.000000    
     18 Si    c      1.4414 *   -3.0730 *   -1.9588 *   2.72260    1.000000    
     19 O2    c     -1.6942 *   -1.5589 *    2.7042 *   1.42911    1.000000    
     20 O2    c      4.4175 *    1.2638 *    0.5636 *   1.42911    1.000000    
     21 Si    c      3.0664 *    0.4974 *    0.0719 *   2.72260    1.000000    
     22 O1    c     -0.7045 *    0.3519 *    1.1023 *   1.91981    1.000000    
     23 O1    c      2.9589 *    0.5151 *   -1.5567 *   1.91981    1.000000    
     24 O1    c      1.7398     -3.1618     -0.3566     1.91981    1.000000    
     25 Si    c      2.1315 *   -2.3370 *    0.9960 *   2.72260    1.000000    
     26 O1    c      0.7523 *   -1.7880 *    1.6872 *   1.91981    1.000000    
     27 O1    c     -0.1423 *    1.6853 *   -1.1209 *   1.91981    1.000000    
     28 O1    c      2.3241 *   -1.8459 *   -2.5882 *   1.91981    1.000000    
     29 H     c     -2.5716 *   -1.9379 *    2.6047 *   0.65807    1.000000    
     30 H     c      2.5564 *   -4.5511 *   -3.2836 *   0.65807    1.000000    
     31 H     c      3.0326 *    0.5917 *   -4.8963 *   0.65807    1.000000    
     32 H     c     -1.6782 *    2.6407 *   -3.2709 *   0.65807    1.000000    
     33 H     c      5.1455 *    0.7752 *    0.9569 *   0.65807    1.000000    
     34 H     c     -2.8106 *   -3.4492 *   -2.6503 *   0.65807    1.000000    
     35 H     c      2.5580 *   -3.5945 *    2.8459 *   0.65807    1.000000    
     36 H     c      0.4010 *    3.4691 *    1.7333 *   0.65807    1.000000    
     37 O1    s     -1.4443 *   -0.4321 *   -2.0548 *  -3.28111    1.000000    
     38 O2    s     -0.2369 *    2.9873 *    1.2000 *  -2.76784    1.000000    
     39 O1    s      3.0602 *   -1.0591 *    0.5799 *  -3.28111    1.000000    
     40 O2    s      2.9583 *   -3.2891 *    2.0276 *  -2.76784    1.000000    
     41 O2    s     -2.8305 *   -2.7236 *   -2.0206 *  -2.76784    1.000000    
     42 O2    s      3.3348 *    0.0416 *   -4.1686 *  -2.76784    1.000000    
     43 O1    s     -1.3520 *   -2.0096 *    0.0759 *  -3.28111    1.000000    
     44 O1    s      0.8550 *    0.2981 *   -3.1600 *  -3.28111    1.000000    
     45 O1    s      1.7583 *    1.2560 *    0.6902 *  -3.28111    1.000000    
     46 O2    s      1.8065 *   -4.4842 *   -2.6865 *  -2.76784    1.000000    
     47 O1    s     -0.1442 *   -2.7450 *   -2.1778 *  -3.28111    1.000000    
     48 O2    s     -1.3072 *    1.7969 *   -3.5421 *  -2.76784    1.000000    
     49 O2    s     -1.6942 *   -1.5589 *    2.7042 *  -2.76784    1.000000    
     50 O2    s      4.4175 *    1.2638 *    0.5636 *  -2.76784    1.000000    
     51 O1    s     -0.7045 *    0.3519 *    1.1023 *  -3.28111    1.000000    
     52 O1    s      2.9589 *    0.5151 *   -1.5567 *  -3.28111    1.000000    
     53 O1    s      1.7398 *   -3.1618 *   -0.3566 *  -3.28111    1.000000    
     54 O1    s      0.7523 *   -1.7880 *    1.6872 *  -3.28111    1.000000    
     55 O1    s     -0.1423 *    1.6853 *   -1.1209 *  -3.28111    1.000000    
     56 O1    s      2.3241 *   -1.8459 *   -2.5882 *  -3.28111    1.000000    
--------------------------------------------------------------------------------



  Molecule list generated from bond lengths :

  Total number of molecules =     1

--------------------------------------------------------------------------------
Molecule No./:  Atoms
Periodicity  :  
--------------------------------------------------------------------------------
     1  0    : O1   c     1 O2   c     2 O1   c     3 O2   c     4 Si   c     5
             : O2   c     6 Si   c     7 O2   c     8 O1   c     9 Si   c    10
             : O1   c    11 O1   c    12 Si   c    13 O2   c    14 O1   c    15
             : Si   c    16 O2   c    17 Si   c    18 O2   c    19 O2   c    20
             : Si   c    21 O1   c    22 O1   c    23 O1   c    24 Si   c    25
             : O1   c    26 O1   c    27 O1   c    28 H    c    29 H    c    30
             : H    c    31 H    c    32 H    c    33 H    c    34 H    c    35
             : H    c    36 O1   s    37 O2   s    38 O1   s    39 O2   s    40
             : O2   s    41 O2   s    42 O1   s    43 O1   s    44 O1   s    45
             : O2   s    46 O1   s    47 O2   s    48 O2   s    49 O2   s    50
             : O1   s    51 O1   s    52 O1   s    53 O1   s    54 O1   s    55
             : O1   s    56
--------------------------------------------------------------------------------


********************************************************************************
*  General input information                                                   *
********************************************************************************

  Species output for all configurations : 

--------------------------------------------------------------------------------
  Species    Type    Atomic    Atomic    Charge       Radii (Angs)     Library
                     Number     Mass       (e)     Cova   Ionic  VDW   Symbol
--------------------------------------------------------------------------------
    O1       Core        8      16.00   1.919810   0.730  0.000  1.360          
    O1       Shell       8       0.00  -3.281110   0.730  0.000  1.360          
    O2       Core        8      16.00   1.429114   0.730  0.000  1.360          
    O2       Shell       8       0.00  -2.767837   0.730  0.000  1.360          
    Si       Core       14      28.09   2.722600   1.200  0.000  2.100          
    H        Core        1       1.01   0.658073   0.370  0.000  1.080          
--------------------------------------------------------------------------------


  Accuracy factor for short range sums = 12.000

  Electrostatics method = Direct Coulomb

  Analytic derivatives to be used

  Time limit = Infinity

  Maximum range for interatomic potentials =    100000.000000 Angstroms

  General interatomic potentials :

--------------------------------------------------------------------------------
Atom  Types   Potential      Parameter       Value         Units   Cutoffs(Ang)
  1     2                                                            Min /  Max 
--------------------------------------------------------------------------------
O1   c O1   s Spring (c-s)  Spring k 2       256.71027    eV*Ang^-2 0.000  0.800
                            Spring k 4       0.0000000    eV*Ang^-4 
--------------------------------------------------------------------------------
O2   c O2   s Spring (c-s)  Spring k 2       160.84247    eV*Ang^-2 0.000  0.800
                            Spring k 4       0.0000000    eV*Ang^-4 
--------------------------------------------------------------------------------
O1   s O1   s Buckingham    Buckingham A     15039.909    eV        0.000 15.000
                            Buckingham rho  0.22770800    Ang       
                            Buckingham C     0.0000000    eV*Ang^6  
--------------------------------------------------------------------------------
O1   s O2   s Buckingham    Buckingham A     6768.7644    eV        0.000 15.000
                            Buckingham rho  0.24593200    Ang       
                            Buckingham C     0.0000000    eV*Ang^6  
--------------------------------------------------------------------------------
O2   s O2   s Buckingham    Buckingham A     1688.1482    eV        0.000 15.000
                            Buckingham rho  0.29254500    Ang       
                            Buckingham C     0.0000000    eV*Ang^6  
--------------------------------------------------------------------------------
Si   c O1   s Buckingham    Buckingham A     8166.2632    eV        0.000 15.000
                            Buckingham rho  0.19388400    Ang       
                            Buckingham C     0.0000000    eV*Ang^6  
--------------------------------------------------------------------------------
H    c O2   s Morse         Morse  De       0.11097337    eV        2Bond  3.000
                            Morse  a0        1.0230000    Ang^-1    
                            Morse  r0        2.3342900    Ang       
--------------------------------------------------------------------------------
H    c O1   s Morse         Morse  De       0.64390300E-02eV        2Bond  4.000
                            Morse  a0        1.8794000    Ang^-1    
                            Morse  r0        3.1795300    Ang       
--------------------------------------------------------------------------------

  Intramolecular potentials :

--------------------------------------------------------------------------------
Atom  Types   Potential      Parameter       Value         Units   Cutoffs(Ang)
  1     2                                                            Min /  Max 
--------------------------------------------------------------------------------
Si   c O2   s Morse         Morse  De       0.45897200E-01eV        0.000 1 Bond
                            Morse  a0        2.6598000    Ang^-1    
                            Morse  r0        2.3392100    Ang       
--------------------------------------------------------------------------------
H    c O2   s Morse         Morse  De       0.93590600E-02eV        0.000 1 Bond
                            Morse  a0        3.2461000    Ang^-1    
                            Morse  r0        1.7661700    Ang       
--------------------------------------------------------------------------------

  General Three-body potentials :

--------------------------------------------------------------------------------
  Atoms       Potential      Parameter       Value         Units   Cutoffs(Ang)
  1 / 2 / 3                                                          Min /  Max 
--------------------------------------------------------------------------------
H     core    Hydrogen bond Three-body A     3653.2600    eV*Ang^m  0.000  2.000
O2    shel                  Three-body B     0.0000000    eV*Ang^n  0.000  1.000
O2    shel                                                          0.000  2.710
--------------------------------------------------------------------------------

********************************************************************************
*  Output for configuration   1                                                *
********************************************************************************


  Components of energy : 

--------------------------------------------------------------------------------
  Interatomic potentials     =          71.97175986 eV    
  Three-body potentials      =           0.00000000 eV    
  Monopole - monopole (real) =        -664.44543659 eV    
--------------------------------------------------------------------------------
  Total lattice energy       =        -592.47367673 eV    
--------------------------------------------------------------------------------
  Total lattice energy       =          -57164.6530 kJ/mol
--------------------------------------------------------------------------------


  Number of variables =      165

  Maximum number of calculations  =          1000
  Maximum Hessian update interval =            10
  Maximum step size               =   1.000000000
  Maximum parameter tolerance     =   0.000010000
  Maximum function  tolerance     =   0.000010000
  Maximum gradient  tolerance     =   0.001000000
  Maximum gradient  component     =   0.010000000

  Symmetry not applied to optimisation

  Newton-Raphson optimiser to be used

  BFGS hessian update to be used

  Lower half triangular hessian to be used

  Start of cluster optimisation :

  Cycle:      0 Energy:      -592.473677  Gnorm:      0.578169  CPU:    0.010
  ** Hessian calculated **
  Cycle:      1 Energy:      -602.384374  Gnorm:      0.086802  CPU:    0.013
  Cycle:      2 Energy:      -602.758174  Gnorm:      0.026714  CPU:    0.015
  Cycle:      3 Energy:      -602.804230  Gnorm:      0.015991  CPU:    0.016
  Cycle:      4 Energy:      -602.823016  Gnorm:      0.012612  CPU:    0.017
  Cycle:      5 Energy:      -602.836768  Gnorm:      0.012896  CPU:    0.020
  Cycle:      6 Energy:      -602.854878  Gnorm:      0.011280  CPU:    0.022
  Cycle:      7 Energy:      -602.867521  Gnorm:      0.008829  CPU:    0.023
  Cycle:      8 Energy:      -602.885398  Gnorm:      0.011181  CPU:    0.024
  Cycle:      9 Energy:      -602.898116  Gnorm:      0.008296  CPU:    0.026
  Cycle:     10 Energy:      -602.908544  Gnorm:      0.006537  CPU:    0.028
  ** Hessian calculated **
  Cycle:     11 Energy:      -602.911450  Gnorm:      0.003266  CPU:    0.031
  Cycle:     12 Energy:      -602.913324  Gnorm:      0.003720  CPU:    0.035
  Cycle:     13 Energy:      -602.914505  Gnorm:      0.002354  CPU:    0.037
  Cycle:     14 Energy:      -602.915397  Gnorm:      0.002733  CPU:    0.039
  Cycle:     15 Energy:      -602.916211  Gnorm:      0.002214  CPU:    0.040
  Cycle:     16 Energy:      -602.916851  Gnorm:      0.001949  CPU:    0.041
  Cycle:     17 Energy:      -602.917428  Gnorm:      0.001621  CPU:    0.042
  Cycle:     18 Energy:      -602.917944  Gnorm:      0.002010  CPU:    0.044
  Cycle:     19 Energy:      -602.918332  Gnorm:      0.001112  CPU:    0.045
  Cycle:     20 Energy:      -602.918508  Gnorm:      0.001191  CPU:    0.046
  ** Hessian calculated **
  Cycle:     21 Energy:      -602.919734  Gnorm:      0.000944  CPU:    0.050
  Cycle:     22 Energy:      -602.920922  Gnorm:      0.000620  CPU:    0.052
  Cycle:     23 Energy:      -602.921644  Gnorm:      0.000247  CPU:    0.054
  Cycle:     24 Energy:      -602.921761  Gnorm:      0.000037  CPU:    0.055


  **** Optimisation achieved ****


  Final energy =    -602.92176140 eV      
  Final Gnorm  =       0.00003101

  Components of energy : 

--------------------------------------------------------------------------------
  Interatomic potentials     =          91.33020171 eV    
  Three-body potentials      =           0.00000000 eV    
  Monopole - monopole (real) =        -694.25196311 eV    
--------------------------------------------------------------------------------
  Total lattice energy       =        -602.92176140 eV    
--------------------------------------------------------------------------------
  Total lattice energy       =          -58172.7335 kJ/mol
--------------------------------------------------------------------------------

  Final cartesian coordinates of atoms :

--------------------------------------------------------------------------------
   No.  Atomic        x           y          z          Radius
        Label       (Angs)      (Angs)     (Angs)       (Angs) 
--------------------------------------------------------------------------------
     1  O1    c    -1.445430   -0.429973   -2.054507    0.000000
     2  O2    c    -0.248784    2.986604    1.199455    0.000000
     3  O1    c     3.058156   -1.057761    0.581494    0.000000
     4  O2    c     2.950909   -3.287024    2.031541    0.000000
     5  Si    c    -0.522872    0.848711   -2.475752    0.000000
     6  O2    c    -2.829002   -2.723163   -2.028865    0.000000
     7  Si    c    -0.770777   -1.251800    1.399201    0.000000
     8  O2    c     3.340189    0.050486   -4.158750    0.000000
     9  O1    c    -1.357078   -2.012347    0.073045    0.000000
    10  Si    c    -1.455486   -1.984510   -1.557536    0.000000
    11  O1    c     0.854622    0.298097   -3.160611    0.000000
    12  O1    c     1.748740    1.253748    0.700764    0.000000
    13  Si    c     2.376857   -0.233944   -2.875909    0.000000
    14  O2    c     1.807392   -4.477964   -2.690856    0.000000
    15  O1    c    -0.142236   -2.740236   -2.179037    0.000000
    16  Si    c     0.159434    1.582334    0.481316    0.000000
    17  O2    c    -1.307130    1.798556   -3.542169    0.000000
    18  Si    c     1.442824   -3.068922   -1.958889    0.000000
    19  O2    c    -1.697571   -1.562442    2.702672    0.000000
    20  O2    c     4.407021    1.270078    0.574255    0.000000
    21  Si    c     3.058790    0.500886    0.079560    0.000000
    22  O1    c    -0.716799    0.351370    1.098257    0.000000
    23  O1    c     2.951181    0.523003   -1.548991    0.000000
    24  O1    c     1.739830   -3.161794   -0.356577    0.000000
    25  Si    c     2.128196   -2.335386    0.996103    0.000000
    26  O1    c     0.748057   -1.783180    1.682845    0.000000
    27  O1    c    -0.141010    1.685662   -1.121280    0.000000
    28  O1    c     2.327349   -1.840476   -2.583267    0.000000
    29  H     c    -2.572871   -1.946475    2.604861    0.000000
    30  H     c     2.564224   -4.547287   -3.278744    0.000000
    31  H     c     3.033513    0.585318   -4.895826    0.000000
    32  H     c    -1.670293    2.646451   -3.272855    0.000000
    33  H     c     5.141750    0.782194    0.955521    0.000000
    34  H     c    -2.806753   -3.449400   -2.657710    0.000000
    35  H     c     2.559594   -3.561211    2.865253    0.000000
    36  H     c     0.385977    3.467359    1.737340    0.000000
    37  O1    s    -1.402678   -0.442515   -2.049877    0.000000
    38  O2    s    -0.166371    2.954807    1.210484    0.000000
    39  O1    s     3.016157   -1.045561    0.577060    0.000000
    40  O2    s     2.868812   -3.260340    2.053375    0.000000
    41  O2    s    -2.751305   -2.751184   -2.062067    0.000000
    42  O2    s     3.258156    0.085106   -4.157854    0.000000
    43  O1    s    -1.334696   -1.976999    0.058969    0.000000
    44  O1    s     0.860769    0.298599   -3.116775    0.000000
    45  O1    s     1.736367    1.233998    0.663130    0.000000
    46  O2    s     1.858610   -4.406885   -2.706259    0.000000
    47  O1    s    -0.129486   -2.720628   -2.141456    0.000000
    48  O2    s    -1.297992    1.826440   -3.458170    0.000000
    49  O2    s    -1.729055   -1.581864    2.621762    0.000000
    50  O2    s     4.402057    1.181719    0.583250    0.000000
    51  O1    s    -0.678780    0.333741    1.082439    0.000000
    52  O1    s     2.928345    0.487121   -1.534858    0.000000
    53  O1    s     1.743008   -3.118569   -0.367987    0.000000
    54  O1    s     0.741714   -1.783609    1.639036    0.000000
    55  O1    s    -0.144191    1.643141   -1.109864    0.000000
    56  O1    s     2.290051   -1.823052   -2.567849    0.000000
--------------------------------------------------------------------------------


  Final Cartesian derivatives :

--------------------------------------------------------------------------------
   No.  Atomic          x             y             z           Radius
        Label       (eV/Angs)     (eV/Angs)     (eV/Angs)      (eV/Angs)
--------------------------------------------------------------------------------
      1 O1    c       0.000100      0.000073      0.000010      0.000000
      2 O2    c      -0.000007      0.000049      0.000021      0.000000
      3 O1    c      -0.000002      0.000071      0.000022      0.000000
      4 O2    c       0.000298      0.000202     -0.000518      0.000000
      5 Si    c       0.000019     -0.000149      0.000065      0.000000
      6 O2    c       0.000126      0.000026      0.000020      0.000000
      7 Si    c      -0.000247     -0.000169      0.000194      0.000000
      8 O2    c       0.000092     -0.000318      0.000452      0.000000
      9 O1    c       0.000016      0.000064      0.000129      0.000000
     10 Si    c      -0.000107     -0.000046     -0.000059      0.000000
     11 O1    c       0.000046      0.000001      0.000001      0.000000
     12 O1    c       0.000018      0.000039      0.000020      0.000000
     13 Si    c      -0.000027     -0.000078     -0.000042      0.000000
     14 O2    c       0.000088      0.000171     -0.000042      0.000000
     15 O1    c       0.000041     -0.000003      0.000071      0.000000
     16 Si    c       0.000040     -0.000058     -0.000079      0.000000
     17 O2    c       0.000110     -0.000149     -0.000076      0.000000
     18 Si    c       0.000028     -0.000089     -0.000109      0.000000
     19 O2    c      -0.002809     -0.001321     -0.000506      0.000000
     20 O2    c       0.000030      0.000007      0.000036      0.000000
     21 Si    c      -0.000069     -0.000021     -0.000037      0.000000
     22 O1    c      -0.000057     -0.000035      0.000049      0.000000
     23 O1    c       0.000010      0.000024      0.000047      0.000000
     24 O1    c       0.000000      0.000000      0.000000      0.000000
     25 Si    c      -0.000071      0.000029     -0.000117      0.000000
     26 O1    c      -0.000099      0.000074      0.000026      0.000000
     27 O1    c       0.000007      0.000033     -0.000009      0.000000
     28 O1    c      -0.000028      0.000026      0.000036      0.000000
     29 H     c       0.003319      0.001616      0.000242      0.000000
     30 H     c      -0.000146      0.000020      0.000116      0.000000
     31 H     c      -0.000157      0.000377     -0.000485      0.000000
     32 H     c      -0.000141      0.000263      0.000060      0.000000
     33 H     c       0.000047      0.000002      0.000018      0.000000
     34 H     c      -0.000007      0.000037      0.000032      0.000000
     35 H     c      -0.000302     -0.000289      0.000724      0.000000
     36 H     c       0.000049      0.000061      0.000052      0.000000
     37 O1    s      -0.000049     -0.000082     -0.000030      0.000000
     38 O2    s      -0.000027      0.000039      0.000001      0.000000
     39 O1    s       0.000042     -0.000065     -0.000051      0.000000
     40 O2    s       0.000048      0.000002     -0.000078      0.000000
     41 O2    s       0.000118      0.000019      0.000017      0.000000
     42 O2    s      -0.000037     -0.000064      0.000099      0.000000
     43 O1    s       0.000016     -0.000075     -0.000115      0.000000
     44 O1    s      -0.000008     -0.000045     -0.000018      0.000000
     45 O1    s       0.000007      0.000005     -0.000029      0.000000
     46 O2    s       0.000011      0.000039      0.000007      0.000000
     47 O1    s      -0.000018     -0.000017     -0.000017      0.000000
     48 O2    s      -0.000021     -0.000035     -0.000020      0.000000
     49 O2    s      -0.000246     -0.000218      0.000002      0.000000
     50 O2    s       0.000015     -0.000000      0.000012      0.000000
     51 O1    s       0.000003     -0.000020     -0.000030      0.000000
     52 O1    s      -0.000028     -0.000057     -0.000067      0.000000
     53 O1    s       0.000009     -0.000080     -0.000030      0.000000
     54 O1    s      -0.000007     -0.000046     -0.000011      0.000000
     55 O1    s      -0.000006      0.000001     -0.000016      0.000000
     56 O1    s      -0.000025      0.000018     -0.000042      0.000000
--------------------------------------------------------------------------------
  Maximum abs         0.003319      0.001616      0.000724      0.000000
--------------------------------------------------------------------------------


  Time to end of optimisation =       0.0572 seconds


  Peak dynamic memory used =       2.81 MB 


  Timing analysis for GULP :

--------------------------------------------------------------------------------
  Task / Subroutine                                          Time (Seconds)
--------------------------------------------------------------------------------
  Calculation of real space energy and derivatives                0.0301
  Calculation of three-body energy and derivatives                0.0008
  Calculation of molecules and connectivity                       0.0002
  Calculation of matrix inversion                                 0.0030
--------------------------------------------------------------------------------
  Total CPU time                                                  0.0573
--------------------------------------------------------------------------------


  Job Finished at 11:00.48 11th August     2024                               

