 argument  1 = /lustre/ukt/milias/work/projects/open-collection/theoretical_chemistry/projects/adsorbate_on_surface/AtOHonQuartz/quartz/Q-G.geopt_dkh_b3lyp.nw
  NWChem w/ OpenMP: maximum threads =  126



============================== echo of input deck ==============================
echo

start molecule

title "Q-G"
charge 0

geometry units angstroms print xyz autosym
  load format xyz Quartz-G_001.molecular_slab_smaller.xyz
end

relativistic
   DOUGLAS-KROLL DKH
end

#
basis spherical
 Si library  dzp-dkh
 O  library  dzp-dkh
 H  library  dzp-dkh
end

dft
  xc b3lyp
  mult 1
  maxiter 100
end

task dft optimize
================================================================================


                                         
                                         


             Northwest Computational Chemistry Package (NWChem) 7.2.0
             --------------------------------------------------------


                    Environmental Molecular Sciences Laboratory
                       Pacific Northwest National Laboratory
                                Richland, WA 99352

                              Copyright (c) 1994-2022
                       Pacific Northwest National Laboratory
                            Battelle Memorial Institute

             NWChem is an open-source computational chemistry package
                        distributed under the terms of the
                      Educational Community License (ECL) 2.0
             A copy of the license is included with this distribution
                              in the LICENSE.TXT file

                                  ACKNOWLEDGMENT
                                  --------------

            This software and its documentation were developed at the
            EMSL at Pacific Northwest National Laboratory, a multiprogram
            national laboratory, operated for the U.S. Department of Energy
            by Battelle under Contract Number DE-AC05-76RL01830. Support
            for this work was provided by the Department of Energy Office
            of Biological and Environmental Research, Office of Basic
            Energy Sciences, and the Office of Advanced Scientific Computing.


           Job information
           ---------------

    hostname        = lxbk1137
    program         = /lustre/ukt/milias/work/software/nwchem/nwchem-master_gnu_openmpi_openblas/bin/LINUX64/nwchem
    date            = Wed Jul 19 23:01:07 2023

    compiled        = Fri_Jul_14_00:11:35_2023
    source          = /lustre/ukt/milias/work/software/nwchem/nwchem-master_gnu_openmpi_openblas
    nwchem branch   = 7.2.0
    nwchem revision = v7.2.0-beta1-573-g32effa6da0
    ga revision     = 5.8.0
    use scalapack   = T
    input           = /lustre/ukt/milias/work/projects/open-collection/theoretical_chemistry/projects/adsorbate_on_surface/AtOHonQuartz/quartz/Q-G.geopt_dkh_b3lyp.nw
    prefix          = molecule.
    data base       = ./molecule.db
    status          = startup
    nproc           =      140
    time left       =     -1s



           Memory information
           ------------------

    heap     =   26214396 doubles =    200.0 Mbytes
    stack    =   26214401 doubles =    200.0 Mbytes
    global   =   52428800 doubles =    400.0 Mbytes (distinct from heap & stack)
    total    =  104857597 doubles =    800.0 Mbytes
    verify   = yes
    hardfail = no 


           Directory information
           ---------------------

  0 permanent = .
  0 scratch   = .




                                NWChem Input Module
                                -------------------


                                        Q-G
                                        ---

 Scaling coordinates for geometry "geometry" by  1.889725989
 (inverse scale =  0.529177249)

 C1  symmetry detected

          ------
          auto-z
          ------
  no constraints, skipping    0.0000000000000000     
  no constraints, skipping    0.0000000000000000     


                             Geometry "geometry" -> ""
                             -------------------------

 Output coordinates in angstroms (scale by  1.889725989 to convert to a.u.)

  No.       Tag          Charge          X              Y              Z
 ---- ---------------- ---------- -------------- -------------- --------------
    1 Si                  14.0000     1.64943033   -11.50641912    -0.17361954
    2 H                    1.0000    -0.61339442     7.80986937    -2.12424906
    3 H                    1.0000     4.55569388    -8.32562674    -2.59568105
    4 Si                  14.0000    -1.65557308    11.80504153    -1.12529181
    5 Si                  14.0000     1.96548147     8.51418492    -1.10164066
    6 Si                  14.0000     5.58729088     5.22432569    -1.07561308
    7 H                    1.0000     0.94168038    -5.03179827    -2.61100855
    8 Si                  14.0000    -2.68512887     7.02986563    -1.37861958
    9 Si                  14.0000     0.93472884     3.73800494    -1.35492380
   10 Si                  14.0000     4.55907607     0.44809325    -1.32947579
   11 H                    1.0000    -2.67970150    -1.74858735    -2.63801075
   12 Si                  14.0000    -3.72147667     2.25433673    -1.63394210
   13 Si                  14.0000    -0.09766301    -1.03633659    -1.60836961
   14 Si                  14.0000     3.52749388    -4.32905052    -1.58343618
   15 H                    1.0000     0.50524527     9.88662769    -2.10741431
   16 Si                  14.0000    -4.75160395    -2.52528814    -1.88831439
   17 Si                  14.0000    -1.12897353    -5.81391132    -1.86343803
   18 Si                  14.0000     2.48762071    -9.10580085    -1.83858241
   19 O                    8.0000    -2.20407811     2.22492684    -2.25433067
   20 O                    8.0000     0.82905524     8.63927271     3.01740087
   21 O                    8.0000     4.45158853     5.34871299     3.04186238
   22 O                    8.0000    -2.29831761    -5.38071734    -2.96293939
   23 O                    8.0000     1.41945573    -1.06587741    -2.22922257
   24 O                    8.0000    -0.20352450     3.86370521     2.76379483
   25 O                    8.0000     3.41953505     0.57246004     2.78867517
   26 O                    8.0000     1.31481759    -8.67325657    -2.93472545
   27 O                    8.0000     5.04669650    -4.36079407    -2.19912444
   28 O                    8.0000    -1.23650028    -0.91279449     2.50825549
   29 O                    8.0000     2.38628992    -4.20467663     2.53280298
   30 H                    1.0000    -1.65442425     3.03799865    -2.38881327
   31 H                    1.0000    -6.20696969    -1.15259482    -2.90149040
   32 O                    8.0000    -2.26959499    -5.68847545     2.25469843
   33 O                    8.0000     1.35235289    -8.97863947     2.27945133
   34 O                    8.0000    -3.78513283    10.19868710     1.14573058
   35 Si                  14.0000     0.00820277    -9.63602283     1.62261817
   36 Si                  14.0000    -2.57984593    -1.57026939     1.84994246
   37 Si                  14.0000     1.04221125    -4.86123503     1.87512977
   38 O                    8.0000    -0.16208138     6.90887131     1.16930739
   39 O                    8.0000     3.46016372     3.61818683     1.19396994
   40 H                    1.0000     5.59958896    -3.54927945    -2.32934986
   41 H                    1.0000    -0.08169087    12.20318662    -2.80042621
   42 Si                  14.0000    -2.49519251     9.40352016     0.53790369
   43 O                    8.0000    -4.99819259    -1.61876998    -0.53673068
   44 O                    8.0000    -1.37494403    -4.90816998    -0.51141170
   45 O                    8.0000    -3.23274254    -2.55957381    -2.50462226
   46 Si                  14.0000     1.12736558     6.11250785     0.56202443
   47 O                    8.0000     1.21096486   -12.97613971    -0.73741283
   48 H                    1.0000    -3.77410760    -7.50432864     3.40896315
   49 H                    1.0000    -0.15082057   -10.79403764     3.43538073
   50 Si                  14.0000     4.75013961     2.82222298     0.58731630
   51 O                    8.0000    -2.22713870    -2.64290189     0.65953647
   52 O                    8.0000     0.38953838    -5.84385001    -2.48111794
   53 O                    8.0000     1.74503882     6.93106772    -0.71755242
   54 O                    8.0000     3.30684122    -5.91188652    -1.19869748
   55 O                    8.0000    -4.81678018     5.42364730     0.89058061
   56 O                    8.0000     4.00391879    -9.13726686    -2.46108400
   57 O                    8.0000     5.36775730     3.64093709    -0.69240666
   58 H                    1.0000    -3.11261547    13.18001330    -2.13219635
   59 O                    8.0000    -1.19351890     2.13359147     0.91483290
   60 H                    1.0000     6.63027782     1.22862911    -2.07857602
   61 H                    1.0000    -1.55662976     0.33769400    -2.61317202
   62 O                    8.0000    -4.97531466    -4.10786733    -1.50431659
   63 O                    8.0000     2.42865960    -1.15623418     0.93846263
   64 H                    1.0000    -2.74104681    -2.72917716     3.66196343
   65 O                    8.0000    -2.90787841     5.44673197    -0.99587289
   66 O                    8.0000    -1.34873407    -7.39685255    -1.47824594
   67 H                    1.0000     0.88238335    -6.02064783     3.68687418
   68 O                    8.0000     2.26854052   -10.68868188    -1.45308984
   69 H                    1.0000    -6.21484574    -6.97976933    -0.04772113
   70 Si                  14.0000    -3.61312511    -6.34568885     1.59669873
   71 H                    1.0000    -5.77878372     0.68802946     1.59123708
   72 H                    1.0000    -2.59225339   -10.26950490    -0.02532878
   73 H                    1.0000     1.02883759   -13.56110596     0.00167048
   74 O                    8.0000    -2.93299511     7.93357785    -0.02561416
   75 O                    8.0000     0.68968195     4.64256636    -0.00188820
   76 O                    8.0000     2.76277020   -11.68895911     1.01844460
   77 O                    8.0000    -6.88318663    -4.12769713     0.38250101
   78 O                    8.0000     3.79554772    -6.91418254     1.27213439
   79 O                    8.0000     1.39422469    -5.93309251     0.68358307
   80 O                    8.0000    -5.91915492    -2.09145055    -2.98970756
   81 O                    8.0000     0.79475406     8.94840127    -2.19935995
   82 H                    1.0000    -4.13924675     8.40442205    -2.39089845
   83 O                    8.0000     4.31254632     1.35245859     0.02338911
   84 O                    8.0000    -1.30981995     7.17414807     3.54108582
   85 O                    8.0000     2.31374905     3.88303378     3.56662865
   86 O                    8.0000     4.41666622     5.65941066    -2.17289709
   87 O                    8.0000    -3.26042891    -7.41794964     0.40594234
   88 O                    8.0000    -2.34239709     2.39781206     3.28612747
   89 O                    8.0000     1.28109919    -0.89375068     3.31117326
   90 H                    1.0000     3.00358487     4.52049740    -2.10739951
   91 O                    8.0000    -1.37960664     9.22107199     1.72800130
   92 O                    8.0000    -3.37485196    -2.37922332     3.03154821
   93 O                    8.0000     0.24811806    -5.67057970     3.05698542
   94 O                    8.0000    -3.85051396     7.46601180    -2.48123186
   95 O                    8.0000     2.24124052     5.92947705     1.75377949
   96 O                    8.0000    -4.40800151    -7.15441720     2.77861365
   97 O                    8.0000    -0.78539524   -10.44418317     2.80568490
   98 O                    8.0000    -0.23660090     4.16906704    -2.45331791
   99 Si                  14.0000    -5.59395636    -4.92512525    -0.22412397
  100 O                    8.0000     0.35995185   -10.70941236     0.43249193
  101 O                    8.0000     5.86382483     2.64010110     1.77930882
  102 H                    1.0000     1.02614781    -7.73473548    -2.84457866
  103 O                    8.0000    -3.96570298     3.15849608    -0.28059316
  104 O                    8.0000    -4.89242292     2.68925773    -2.73116117
  105 O                    8.0000    -0.85835556    -8.39819957     0.99230638
  106 Si                  14.0000    -4.55978767    -0.14921886     0.02746257
  107 O                    8.0000    -0.34100130    -0.13244850    -0.25472519
  108 O                    8.0000     0.71700944     2.15488484    -0.96990537
  109 O                    8.0000    -2.41233145     4.44498180     1.47401058
  110 Si                  14.0000    -0.93699059    -3.43899733     0.05326339
  111 H                    1.0000     4.12690062     6.59752540    -2.08044594
  112 O                    8.0000    -6.03275413    -6.39521198    -0.78713667
  113 O                    8.0000    -2.41000912    -9.68454049    -0.76438471
  114 Si                  14.0000     2.68406317    -6.73053101     0.07844195
  115 O                    8.0000    -0.31578390    -2.61966279    -1.22418624
  116 O                    8.0000    -2.82294938    12.24180857    -2.22527049
  117 O                    8.0000     3.39035860     0.88151121    -2.42959874
  118 H                    1.0000     2.07133847    -2.95709920    -2.59543744
  119 O                    8.0000     3.28053281    -3.42266069    -0.23202575
  120 H                    1.0000    -5.18198199     3.62725118    -2.63918003
  121 H                    1.0000     3.53517914     8.91418530    -2.78025584
  122 Si                  14.0000    -3.52692832     4.62799652     0.28323308
  123 H                    1.0000    -0.52619940     5.10738860    -2.36363031
  124 H                    1.0000     7.15683390     5.62559589    -2.75406979
  125 O                    8.0000    -1.80703708    12.83416842     0.38031654
  126 Si                  14.0000     0.09667821     1.33719550     0.30902406
  127 O                    8.0000     1.20989256     1.15436127     1.50110561
  128 O                    8.0000     0.00478380    12.03774962    -1.85875071
  129 O                    8.0000     1.81633477     9.54395894     0.40375655
  130 Si                  14.0000     3.71842955    -1.95339850     0.33271530
  131 H                    1.0000     3.10147021     1.81996975    -2.33987395
  132 O                    8.0000    -5.84962574     0.64658351     0.63475203
  133 O                    8.0000    -1.16503759     6.99784616    -1.99238879
  134 O                    8.0000     3.62397669     8.74814916    -1.83890203
  135 O                    8.0000     4.83042712    -2.13663119     1.52593748
  136 O                    8.0000    -1.87772495    10.22190911    -0.74194600
  137 O                    8.0000     5.43786760     6.25293332     0.43055393
  138 O                    8.0000     7.24568695     5.45936459    -1.81275566
  139 Si                  14.0000    -0.51457292     7.98226762     2.35918863
  140 Si                  14.0000    -1.54674493     3.20654429     2.10493409
  141 H                    1.0000    -0.97803481    12.81739023     0.86412821
  142 H                    1.0000     2.64604234     9.52729121     0.88636150
  143 Si                  14.0000     3.10784315     4.69144237     2.38408272
  144 Si                  14.0000     2.07619730    -0.08452026     2.13000027
  145 H                    1.0000     6.26755354     6.23606141     0.91318897
  146 O                    8.0000     2.24503050    -8.19952523    -0.48623850
  147 O                    8.0000    -1.26905778    -0.60109198    -2.70488881
  148 Si                  14.0000    -1.97095606    -8.21492077    -0.20048468
  149 O                    8.0000     4.33989220    -1.13512300    -0.94552500
  150 O                    8.0000    -4.47946053    -5.10719219     0.96682096
  151 O                    8.0000     2.36004774    -3.89566112    -2.68487677
  152 O                    8.0000     2.45195653     3.70846971    -1.97556016
  153 H                    1.0000    -2.58717933    -4.44229875    -2.87244241
  154 O                    8.0000    -3.44608208    -0.33212478     1.21915391
  155 H                    1.0000     1.97131175    -0.25383700    -2.36020291
  156 O                    8.0000     6.07759947     0.41743443    -1.94711837
  157 O                    8.0000    -3.94187704     0.67089574    -1.25121774
  158 O                    8.0000     0.17577292    -3.62262144     1.24579950
  159 H                    1.0000     3.62840536   -11.83172298     0.62870847
  160 H                    1.0000     4.66166553    -7.05739544     0.88363728
  161 H                    1.0000     6.72941850     2.49744661     1.38944050
  162 H                    1.0000     5.69641505    -2.27969877     1.13709744
  163 H                    1.0000     1.50836873     8.72059388     2.34396191
  164 H                    1.0000     5.13067037     5.43014502     2.36820320
  165 H                    1.0000     0.47616557     3.94494656     2.09072630
  166 H                    1.0000     4.09912172     0.65370299     2.11550243
  167 H                    1.0000    -0.55709778    -0.83141630     1.83491322
  168 H                    1.0000     3.06527786    -4.12333864     1.85903780
  169 H                    1.0000    -1.59036559    -5.60708786     1.58118267
  170 H                    1.0000     2.03091258    -8.89703799     1.60528669
  171 H                    1.0000    -3.71402648    10.23995513     2.10220371
  172 H                    1.0000    -4.74591098     5.46506044     1.84706506
  173 H                    1.0000    -6.81253743    -4.08587629     1.33898400
  174 H                    1.0000    -0.67614529     6.82435726     4.17172265
  175 H                    1.0000     2.94804817     3.53314873     4.19658506
  176 H                    1.0000    -1.70895834     2.04791765     3.91694381
  177 H                    1.0000     1.91481184    -1.24376444     3.94164818

      Atomic Mass 
      ----------- 

      Si                27.976930
      H                  1.007825
      O                 15.994910


 Effective nuclear repulsion energy (a.u.)   57467.2822678536

            Nuclear Dipole moment (a.u.) 
            ----------------------------
        X                 Y               Z
 ---------------- ---------------- ----------------
     0.0000000000    -0.0000000000     0.0000000000



                                Z-matrix (autoz)
                                -------- 

 Units are Angstrom for bonds and degrees for angles

      Type          Name      I     J     K     L     M      Value
      ----------- --------  ----- ----- ----- ----- ----- ----------
    1 Stretch                  1    47                       1.63407
    2 Stretch                  1    68                       1.63983
    3 Stretch                  1    76                       1.64130
    4 Stretch                  1   100                       1.63259
    5 Stretch                  2   133                       0.99049
    6 Stretch                  3    56                       0.99062
    7 Stretch                  4   116                       1.66237
    8 Stretch                  4   125                       1.83000
    9 Stretch                  4   128                       1.83000
   10 Stretch                  4   136                       1.64396
   11 Stretch                  5    53                       1.64389
   12 Stretch                  5    81                       1.66257
   13 Stretch                  5   129                       1.83000
   14 Stretch                  5   134                       1.83000
   15 Stretch                  6    57                       1.64383
   16 Stretch                  6    86                       1.66244
   17 Stretch                  6   137                       1.83000
   18 Stretch                  6   138                       1.83000
   19 Stretch                  7    52                       0.99054
   20 Stretch                  8    65                       1.64391
   21 Stretch                  8    74                       1.64583
   22 Stretch                  8    94                       1.66256
   23 Stretch                  8   133                       1.63964
   24 Stretch                  9    75                       1.64590
   25 Stretch                  9    98                       1.66262
   26 Stretch                  9   108                       1.64375
   27 Stretch                  9   152                       1.63952
   28 Stretch                 10    83                       1.64587
   29 Stretch                 10   117                       1.66253
   30 Stretch                 10   149                       1.64379
   31 Stretch                 10   156                       1.63961
   32 Stretch                 11    45                       0.99063
   33 Stretch                 12    19                       1.63959
   34 Stretch                 12   103                       1.64581
   35 Stretch                 12   104                       1.66258
   36 Stretch                 12   157                       1.64388
   37 Stretch                 13    23                       1.63951
   38 Stretch                 13   107                       1.64578
   39 Stretch                 13   115                       1.64381
   40 Stretch                 13   147                       1.66252
   41 Stretch                 14    27                       1.63953
   42 Stretch                 14    54                       1.64380
   43 Stretch                 14   119                       1.64586
   44 Stretch                 14   151                       1.66251
   45 Stretch                 15    81                       0.98617
   46 Stretch                 16    43                       1.64601
   47 Stretch                 16    45                       1.63950
   48 Stretch                 16    62                       1.64379
   49 Stretch                 16    80                       1.66267
   50 Stretch                 17    22                       1.66251
   51 Stretch                 17    44                       1.64586
   52 Stretch                 17    52                       1.63960
   53 Stretch                 17    66                       1.64389
   54 Stretch                 18    26                       1.66256
   55 Stretch                 18    56                       1.63941
   56 Stretch                 18    68                       1.64381
   57 Stretch                 18   146                       1.64591
   58 Stretch                 19    30                       0.99060
   59 Stretch                 20   139                       1.63409
   60 Stretch                 20   163                       0.96000
   61 Stretch                 21   143                       1.63411
   62 Stretch                 21   164                       0.96000
   63 Stretch                 22   153                       0.98603
   64 Stretch                 23   155                       0.99051
   65 Stretch                 24   140                       1.63407
   66 Stretch                 24   165                       0.96000
   67 Stretch                 25   144                       1.63402
   68 Stretch                 25   166                       0.96000
   69 Stretch                 26   102                       0.98604
   70 Stretch                 27    40                       0.99056
   71 Stretch                 28    36                       1.63408
   72 Stretch                 28   167                       0.96000
   73 Stretch                 29    37                       1.63406
   74 Stretch                 29   168                       0.96000
   75 Stretch                 31    80                       0.98594
   76 Stretch                 32    70                       1.63400
   77 Stretch                 32   169                       0.96000
   78 Stretch                 33    35                       1.63411
   79 Stretch                 33   170                       0.96000
   80 Stretch                 34    42                       1.63269
   81 Stretch                 34   171                       0.96000
   82 Stretch                 35    97                       1.63785
   83 Stretch                 35   100                       1.64082
   84 Stretch                 35   105                       1.63720
   85 Stretch                 36    51                       1.64073
   86 Stretch                 36    92                       1.63787
   87 Stretch                 36   154                       1.63746
   88 Stretch                 37    79                       1.64091
   89 Stretch                 37    93                       1.63781
   90 Stretch                 37   158                       1.63736
   91 Stretch                 38    46                       1.63269
   92 Stretch                 38   139                       1.64081
   93 Stretch                 39    50                       1.63267
   94 Stretch                 39   143                       1.64085
   95 Stretch                 41   128                       0.96000
   96 Stretch                 42    74                       1.63400
   97 Stretch                 42    91                       1.64139
   98 Stretch                 42   136                       1.63983
   99 Stretch                 43   106                       1.63404
  100 Stretch                 44   110                       1.63375
  101 Stretch                 46    53                       1.63978
  102 Stretch                 46    75                       1.63410
  103 Stretch                 46    95                       1.64149
  104 Stretch                 47    73                       0.96000
  105 Stretch                 48    96                       0.96000
  106 Stretch                 49    97                       0.96000
  107 Stretch                 50    57                       1.63995
  108 Stretch                 50    83                       1.63392
  109 Stretch                 50   101                       1.64144
  110 Stretch                 51   110                       1.63273
  111 Stretch                 54   114                       1.63985
  112 Stretch                 55   122                       1.63268
  113 Stretch                 55   172                       0.96000
  114 Stretch                 58   116                       0.98630
  115 Stretch                 59   126                       1.63275
  116 Stretch                 59   140                       1.64083
  117 Stretch                 60   156                       0.99034
  118 Stretch                 61   147                       0.98612
  119 Stretch                 62    99                       1.63998
  120 Stretch                 63   130                       1.63276
  121 Stretch                 63   144                       1.64090
  122 Stretch                 64    92                       0.96000
  123 Stretch                 65   122                       1.64002
  124 Stretch                 66   148                       1.63984
  125 Stretch                 67    93                       0.96000
  126 Stretch                 69   112                       0.96000
  127 Stretch                 70    87                       1.64074
  128 Stretch                 70    96                       1.63792
  129 Stretch                 70   150                       1.63742
  130 Stretch                 71   132                       0.96000
  131 Stretch                 72   113                       0.96000
  132 Stretch                 76   159                       0.96000
  133 Stretch                 77    99                       1.63279
  134 Stretch                 77   173                       0.96000
  135 Stretch                 78   114                       1.64135
  136 Stretch                 78   160                       0.96000
  137 Stretch                 79   114                       1.63272
  138 Stretch                 82    94                       0.98597
  139 Stretch                 84   139                       1.63779
  140 Stretch                 84   174                       0.96000
  141 Stretch                 85   143                       1.63784
  142 Stretch                 85   175                       0.96000
  143 Stretch                 86   111                       0.98619
  144 Stretch                 87   148                       1.63268
  145 Stretch                 88   140                       1.63778
  146 Stretch                 88   176                       0.96000
  147 Stretch                 89   144                       1.63774
  148 Stretch                 89   177                       0.96000
  149 Stretch                 90   152                       0.99049
  150 Stretch                 91   139                       1.63747
  151 Stretch                 95   143                       1.63738
  152 Stretch                 98   123                       0.98608
  153 Stretch                 99   112                       1.63422
  154 Stretch                 99   150                       1.64122
  155 Stretch                101   161                       0.96000
  156 Stretch                103   122                       1.63397
  157 Stretch                104   120                       0.98597
  158 Stretch                105   148                       1.64141
  159 Stretch                106   132                       1.63272
  160 Stretch                106   154                       1.64132
  161 Stretch                106   157                       1.63995
  162 Stretch                107   126                       1.63378
  163 Stretch                108   126                       1.63984
  164 Stretch                109   122                       1.64127
  165 Stretch                109   140                       1.63739
  166 Stretch                110   115                       1.63984
  167 Stretch                110   158                       1.64137
  168 Stretch                113   148                       1.63418
  169 Stretch                114   146                       1.63388
  170 Stretch                117   131                       0.98601
  171 Stretch                118   151                       0.98603
  172 Stretch                119   130                       1.63384
  173 Stretch                121   134                       0.96000
  174 Stretch                124   138                       0.96000
  175 Stretch                125   141                       0.96000
  176 Stretch                126   127                       1.64126
  177 Stretch                127   144                       1.63732
  178 Stretch                129   142                       0.96000
  179 Stretch                130   135                       1.64131
  180 Stretch                130   149                       1.64003
  181 Stretch                135   162                       0.96000
  182 Stretch                137   145                       0.96000
  183 Bend                     1    47    73               109.47122
  184 Bend                     1    68    18               135.51904
  185 Bend                     1    76   159               109.47122
  186 Bend                     1   100    35               139.28496
  187 Bend                     2   133     8               123.37758
  188 Bend                     3    56    18               123.43822
  189 Bend                     4   116    58               113.18619
  190 Bend                     4   125   141               109.47122
  191 Bend                     4   128    41               109.47122
  192 Bend                     4   136    42               135.51881
  193 Bend                     5    53    46               135.52597
  194 Bend                     5    81    15               113.18095
  195 Bend                     5   129   142               109.47122
  196 Bend                     5   134   121               109.47122
  197 Bend                     6    57    50               135.48649
  198 Bend                     6    86   111               113.20237
  199 Bend                     6   137   145               109.47122
  200 Bend                     6   138   124               109.47122
  201 Bend                     7    52    17               123.41373
  202 Bend                     8    65   122               135.52079
  203 Bend                     8    74    42               137.48681
  204 Bend                     8    94    82               113.21531
  205 Bend                     9    75    46               137.57684
  206 Bend                     9    98   123               113.17410
  207 Bend                     9   108   126               135.48210
  208 Bend                     9   152    90               123.43574
  209 Bend                    10    83    50               137.54833
  210 Bend                    10   117   131               113.19571
  211 Bend                    10   149   130               135.49042
  212 Bend                    10   156    60               123.47282
  213 Bend                    11    45    16               123.41444
  214 Bend                    12    19    30               123.37824
  215 Bend                    12   103   122               137.55878
  216 Bend                    12   104   120               113.21210
  217 Bend                    12   157   106               135.54062
  218 Bend                    13    23   155               123.42580
  219 Bend                    13   107   126               137.58175
  220 Bend                    13   115   110               135.52796
  221 Bend                    13   147    61               113.16388
  222 Bend                    14    27    40               123.41548
  223 Bend                    14    54   114               135.55859
  224 Bend                    14   119   130               137.63252
  225 Bend                    14   151   118               113.18186
  226 Bend                    16    43   106               137.61370
  227 Bend                    16    62    99               135.51806
  228 Bend                    16    80    31               113.21543
  229 Bend                    17    22   153               113.16241
  230 Bend                    17    44   110               137.62465
  231 Bend                    17    66   148               135.53517
  232 Bend                    18    26   102               113.19553
  233 Bend                    18   146   114               137.68173
  234 Bend                    19    12   103               117.27938
  235 Bend                    19    12   104               114.00326
  236 Bend                    19    12   157               101.23874
  237 Bend                    20   139    38               112.23993
  238 Bend                    20   139    84               107.87617
  239 Bend                    20   139    91               106.58663
  240 Bend                    21   143    39               112.23938
  241 Bend                    21   143    85               107.85351
  242 Bend                    21   143    95               106.62153
  243 Bend                    22    17    44               107.14387
  244 Bend                    22    17    52               114.01814
  245 Bend                    22    17    66               108.17044
  246 Bend                    23    13   107               117.26972
  247 Bend                    23    13   115               101.18259
  248 Bend                    23    13   147               114.01338
  249 Bend                    24   140    59               112.23853
  250 Bend                    24   140    88               107.88642
  251 Bend                    24   140   109               106.60270
  252 Bend                    25   144    63               112.25449
  253 Bend                    25   144    89               107.88210
  254 Bend                    25   144   127               106.59374
  255 Bend                    26    18    56               114.02243
  256 Bend                    26    18    68               108.12707
  257 Bend                    26    18   146               107.12696
  258 Bend                    27    14    54               101.16483
  259 Bend                    27    14   119               117.26106
  260 Bend                    27    14   151               114.01259
  261 Bend                    28    36    51               112.24741
  262 Bend                    28    36    92               107.88542
  263 Bend                    28    36   154               106.60971
  264 Bend                    29    37    79               112.22613
  265 Bend                    29    37    93               107.87439
  266 Bend                    29    37   158               106.61928
  267 Bend                    32    70    87               112.23186
  268 Bend                    32    70    96               107.88082
  269 Bend                    32    70   150               106.60168
  270 Bend                    33    35    97               107.86148
  271 Bend                    33    35   100               112.23325
  272 Bend                    33    35   105               106.61672
  273 Bend                    34    42    74               110.78322
  274 Bend                    34    42    91               108.73470
  275 Bend                    34    42   136               110.18146
  276 Bend                    35    33   170               109.47122
  277 Bend                    35    97    49               109.47122
  278 Bend                    35   105   148               136.29972
  279 Bend                    36    28   167               109.47122
  280 Bend                    36    51   110               139.29087
  281 Bend                    36    92    64               109.47122
  282 Bend                    36   154   106               136.29586
  283 Bend                    37    29   168               109.47122
  284 Bend                    37    79   114               139.25676
  285 Bend                    37    93    67               109.47122
  286 Bend                    37   158   110               136.27214
  287 Bend                    38    46    53               110.13624
  288 Bend                    38    46    75               110.82931
  289 Bend                    38    46    95               108.67864
  290 Bend                    38   139    84               107.74869
  291 Bend                    38   139    91               109.20036
  292 Bend                    39    50    57               110.12834
  293 Bend                    39    50    83               110.80451
  294 Bend                    39    50   101               108.68291
  295 Bend                    39   143    85               107.75455
  296 Bend                    39   143    95               109.20803
  297 Bend                    42    34   171               109.47122
  298 Bend                    42    91   139               136.27142
  299 Bend                    43    16    45               117.32100
  300 Bend                    43    16    62               108.54319
  301 Bend                    43    16    80               107.15954
  302 Bend                    43   106   132               110.78222
  303 Bend                    43   106   154               109.42171
  304 Bend                    43   106   157               106.35700
  305 Bend                    44    17    52               117.25353
  306 Bend                    44    17    66               108.50870
  307 Bend                    44   110    51               110.79279
  308 Bend                    44   110   115               106.35635
  309 Bend                    44   110   158               109.40543
  310 Bend                    45    16    62               101.17239
  311 Bend                    45    16    80               114.01581
  312 Bend                    46    38   139               139.33101
  313 Bend                    46    95   143               136.29692
  314 Bend                    47     1    68               106.29717
  315 Bend                    47     1    76               109.42490
  316 Bend                    47     1   100               110.80836
  317 Bend                    48    96    70               109.47122
  318 Bend                    50    39   143               139.29105
  319 Bend                    50   101   161               109.47122
  320 Bend                    51    36    92               107.75039
  321 Bend                    51    36   154               109.18113
  322 Bend                    51   110   115               110.18069
  323 Bend                    51   110   158               108.69078
  324 Bend                    52    17    66               101.21556
  325 Bend                    53     5    81               108.14090
  326 Bend                    53     5   129               109.80277
  327 Bend                    53     5   134               109.80277
  328 Bend                    53    46    75               106.29878
  329 Bend                    53    46    95               111.50565
  330 Bend                    54    14   119               108.53973
  331 Bend                    54    14   151               108.16895
  332 Bend                    54   114    78               111.41274
  333 Bend                    54   114    79               110.17272
  334 Bend                    54   114   146               106.36312
  335 Bend                    55   122    65               110.18488
  336 Bend                    55   122   103               110.76224
  337 Bend                    55   122   109               108.72092
  338 Bend                    56    18    68               101.17651
  339 Bend                    56    18   146               117.31458
  340 Bend                    57     6    86               108.17504
  341 Bend                    57     6   137               109.79429
  342 Bend                    57     6   138               109.79429
  343 Bend                    57    50    83               106.29666
  344 Bend                    57    50   101               111.50275
  345 Bend                    59   126   107               110.79969
  346 Bend                    59   126   108               110.18663
  347 Bend                    59   126   127               108.71208
  348 Bend                    59   140    88               107.74514
  349 Bend                    59   140   109               109.20250
  350 Bend                    62    16    80               108.08275
  351 Bend                    62    99    77               110.15092
  352 Bend                    62    99   112               106.29829
  353 Bend                    62    99   150               111.44284
  354 Bend                    63   130   119               110.82855
  355 Bend                    63   130   135               108.66158
  356 Bend                    63   130   149               110.17503
  357 Bend                    63   144    89               107.77474
  358 Bend                    63   144   127               109.20347
  359 Bend                    65     8    74               108.48059
  360 Bend                    65     8    94               108.18391
  361 Bend                    65     8   133               101.18451
  362 Bend                    65   122   103               106.33226
  363 Bend                    65   122   109               111.41910
  364 Bend                    66   148    87               110.21712
  365 Bend                    66   148   105               111.39163
  366 Bend                    66   148   113               106.36197
  367 Bend                    68     1    76               111.47212
  368 Bend                    68     1   100               110.14685
  369 Bend                    68    18   146               108.53513
  370 Bend                    69   112    99               109.47122
  371 Bend                    70    32   169               109.47122
  372 Bend                    70    87   148               139.31831
  373 Bend                    70   150    99               136.24711
  374 Bend                    71   132   106               109.47122
  375 Bend                    72   113   148               109.47122
  376 Bend                    74     8    94               107.19315
  377 Bend                    74     8   133               117.26302
  378 Bend                    74    42    91               109.39988
  379 Bend                    74    42   136               106.30121
  380 Bend                    75     9    98               107.20018
  381 Bend                    75     9   108               108.48401
  382 Bend                    75     9   152               117.31407
  383 Bend                    75    46    95               109.38976
  384 Bend                    76     1   100               108.68839
  385 Bend                    77    99   112               110.81306
  386 Bend                    77    99   150               108.70910
  387 Bend                    78   114    79               108.66689
  388 Bend                    78   114   146               109.43334
  389 Bend                    79    37    93               107.77120
  390 Bend                    79    37   158               109.18096
  391 Bend                    79   114   146               110.78975
  392 Bend                    81     5   129               109.80277
  393 Bend                    81     5   134               109.80277
  394 Bend                    83    10   117               107.17970
  395 Bend                    83    10   149               108.49734
  396 Bend                    83    10   156               117.29916
  397 Bend                    83    50   101               109.42292
  398 Bend                    84   139    91               113.26271
  399 Bend                    85   143    95               113.23662
  400 Bend                    86     6   137               109.79429
  401 Bend                    86     6   138               109.79429
  402 Bend                    87    70    96               107.77819
  403 Bend                    87    70   150               109.19962
  404 Bend                    87   148   105               108.65902
  405 Bend                    87   148   113               110.79088
  406 Bend                    88   140   109               113.23894
  407 Bend                    89   144   127               113.20504
  408 Bend                    91    42   136               111.43478
  409 Bend                    92    36   154               113.24070
  410 Bend                    93    37   158               113.24156
  411 Bend                    94     8   133               113.99874
  412 Bend                    96    70   150               113.22086
  413 Bend                    97    35   100               107.75840
  414 Bend                    97    35   105               113.24670
  415 Bend                    98     9   108               108.12753
  416 Bend                    98     9   152               113.98798
  417 Bend                    99    77   173               109.47122
  418 Bend                   100    35   105               109.19719
  419 Bend                   103    12   104               107.12468
  420 Bend                   103    12   157               108.53175
  421 Bend                   103   122   109               109.41638
  422 Bend                   104    12   157               108.13143
  423 Bend                   105   148   113               109.41773
  424 Bend                   107    13   115               108.49127
  425 Bend                   107    13   147               107.12864
  426 Bend                   107   126   108               106.30618
  427 Bend                   107   126   127               109.39751
  428 Bend                   108     9   152               101.17992
  429 Bend                   108   126   127               111.43420
  430 Bend                   112    99   150               109.42280
  431 Bend                   114    78   160               109.47122
  432 Bend                   115    13   147               108.22931
  433 Bend                   115   110   158               111.41140
  434 Bend                   116     4   125               109.78686
  435 Bend                   116     4   128               109.78686
  436 Bend                   116     4   136               108.20493
  437 Bend                   117    10   149               108.17480
  438 Bend                   117    10   156               113.99540
  439 Bend                   119    14   151               107.16131
  440 Bend                   119   130   135               109.41931
  441 Bend                   119   130   149               106.31040
  442 Bend                   122    55   172               109.47122
  443 Bend                   122   109   140               136.29457
  444 Bend                   125     4   128               109.47122
  445 Bend                   125     4   136               109.78686
  446 Bend                   126    59   140               139.30356
  447 Bend                   126   127   144               136.23152
  448 Bend                   128     4   136               109.78686
  449 Bend                   129     5   134               109.47122
  450 Bend                   130    63   144               139.28371
  451 Bend                   130   135   162               109.47122
  452 Bend                   132   106   154               108.68129
  453 Bend                   132   106   157               110.11615
  454 Bend                   135   130   149               111.44397
  455 Bend                   137     6   138               109.47122
  456 Bend                   139    20   163               109.47122
  457 Bend                   139    84   174               109.47122
  458 Bend                   140    24   165               109.47122
  459 Bend                   140    88   176               109.47122
  460 Bend                   143    21   164               109.47122
  461 Bend                   143    85   175               109.47122
  462 Bend                   144    25   166               109.47122
  463 Bend                   144    89   177               109.47122
  464 Bend                   149    10   156               101.15547
  465 Bend                   154   106   157               111.47996
  466 Torsion                  1    68    18    26        -103.53560
  467 Torsion                  1    68    18    56         136.37722
  468 Torsion                  1    68    18   146          12.35044
  469 Torsion                  1   100    35    33          11.88161
  470 Torsion                  1   100    35    97        -106.72840
  471 Torsion                  1   100    35   105         129.88048
  472 Torsion                  2   133     8    65        -164.46014
  473 Torsion                  2   133     8    74         -46.72454
  474 Torsion                  2   133     8    94          79.67573
  475 Torsion                  3    56    18    26          79.86306
  476 Torsion                  3    56    18    68        -164.33418
  477 Torsion                  3    56    18   146         -46.51151
  478 Torsion                  4   136    42    34          37.52510
  479 Torsion                  4   136    42    74         157.61565
  480 Torsion                  4   136    42    91         -83.26709
  481 Torsion                  5    53    46    38          37.39573
  482 Torsion                  5    53    46    75         157.51521
  483 Torsion                  5    53    46    95         -83.34200
  484 Torsion                  6    57    50    39          37.41164
  485 Torsion                  6    57    50    83         157.49577
  486 Torsion                  6    57    50   101         -83.32424
  487 Torsion                  7    52    17    22          79.99866
  488 Torsion                  7    52    17    44         -46.33951
  489 Torsion                  7    52    17    66        -164.12627
  490 Torsion                  8    65   122    55          37.48221
  491 Torsion                  8    65   122   103         157.56795
  492 Torsion                  8    65   122   109         -83.28453
  493 Torsion                  8    74    42    34         133.00293
  494 Torsion                  8    74    42    91        -107.13771
  495 Torsion                  8    74    42   136          13.30336
  496 Torsion                  9    75    46    38         132.86670
  497 Torsion                  9    75    46    53          13.19755
  498 Torsion                  9    75    46    95        -107.32111
  499 Torsion                  9   108   126    59          37.18769
  500 Torsion                  9   108   126   107         157.30381
  501 Torsion                  9   108   126   127         -83.57907
  502 Torsion                 10    83    50    39         132.90906
  503 Torsion                 10    83    50    57          13.26442
  504 Torsion                 10    83    50   101        -107.26770
  505 Torsion                 10   149   130    63          37.18891
  506 Torsion                 10   149   130   119         157.33577
  507 Torsion                 10   149   130   135         -83.51276
  508 Torsion                 11    45    16    43         -46.61312
  509 Torsion                 11    45    16    62        -164.44605
  510 Torsion                 11    45    16    80          79.80870
  511 Torsion                 12   103   122    55         132.86289
  512 Torsion                 12   103   122    65          13.15206
  513 Torsion                 12   103   122   109        -107.29736
  514 Torsion                 12   157   106    43         157.48908
  515 Torsion                 12   157   106   132          37.40259
  516 Torsion                 12   157   106   154         -83.30796
  517 Torsion                 13   107   126    59         132.71470
  518 Torsion                 13   107   126   108          12.99677
  519 Torsion                 13   107   126   127        -107.44521
  520 Torsion                 13   115   110    44         157.27297
  521 Torsion                 13   115   110    51          37.13856
  522 Torsion                 13   115   110   158         -83.58226
  523 Torsion                 14    54   114    78         -83.51715
  524 Torsion                 14    54   114    79          37.16904
  525 Torsion                 14    54   114   146         157.29943
  526 Torsion                 14   119   130    63         132.97069
  527 Torsion                 14   119   130   135        -107.21979
  528 Torsion                 14   119   130   149          13.24820
  529 Torsion                 15    81     5    53         146.98280
  530 Torsion                 15    81     5   129          27.18856
  531 Torsion                 15    81     5   134         -93.22295
  532 Torsion                 16    43   106   132         133.03547
  533 Torsion                 16    43   106   154        -107.15797
  534 Torsion                 16    43   106   157          13.38141
  535 Torsion                 16    62    99    77          37.51841
  536 Torsion                 16    62    99   112         157.62619
  537 Torsion                 16    62    99   150         -83.22618
  538 Torsion                 17    44   110    51         132.93576
  539 Torsion                 17    44   110   115          13.19848
  540 Torsion                 17    44   110   158        -107.24976
  541 Torsion                 17    66   148    87          37.12994
  542 Torsion                 17    66   148   105         -83.56232
  543 Torsion                 17    66   148   113         157.28556
  544 Torsion                 18    68     1    47         157.36458
  545 Torsion                 18    68     1    76         -83.46972
  546 Torsion                 18    68     1   100          37.26534
  547 Torsion                 18   146   114    54          13.04456
  548 Torsion                 18   146   114    78        -107.42450
  549 Torsion                 18   146   114    79         132.77464
  550 Torsion                 19    12   103   122          42.80283
  551 Torsion                 19    12   104   120        -101.25237
  552 Torsion                 19    12   157   106         136.17919
  553 Torsion                 20   139    38    46          11.76655
  554 Torsion                 20   139    84   174         -31.73019
  555 Torsion                 20   139    91    42         154.90195
  556 Torsion                 21   143    39    50          11.79808
  557 Torsion                 21   143    85   175         -31.75569
  558 Torsion                 21   143    95    46         154.71034
  559 Torsion                 22    17    44   110         -86.88939
  560 Torsion                 22    17    66   148        -103.54469
  561 Torsion                 23    13   107   126          42.89198
  562 Torsion                 23    13   115   110         136.45448
  563 Torsion                 23    13   147    61        -101.13226
  564 Torsion                 24   140    59   126          11.83021
  565 Torsion                 24   140    88   176         -31.73061
  566 Torsion                 24   140   109   122         154.84741
  567 Torsion                 25   144    63   130          11.96382
  568 Torsion                 25   144    89   177         -31.72668
  569 Torsion                 25   144   127   126         154.70332
  570 Torsion                 26    18   146   114         -86.94852
  571 Torsion                 27    14    54   114         136.27967
  572 Torsion                 27    14   119   130          42.79631
  573 Torsion                 27    14   151   118        -101.23569
  574 Torsion                 28    36    51   110          11.84587
  575 Torsion                 28    36    92    64         -31.74668
  576 Torsion                 28    36   154   106         154.74823
  577 Torsion                 29    37    79   114          11.99924
  578 Torsion                 29    37    93    67         -31.71389
  579 Torsion                 29    37   158   110         154.61939
  580 Torsion                 30    19    12   103         -46.68988
  581 Torsion                 30    19    12   104          79.62995
  582 Torsion                 30    19    12   157        -164.53374
  583 Torsion                 31    80    16    43          30.32922
  584 Torsion                 31    80    16    45        -101.23509
  585 Torsion                 31    80    16    62         147.13383
  586 Torsion                 32    70    87   148          11.91060
  587 Torsion                 32    70    96    48         -31.73939
  588 Torsion                 32    70   150    99         154.78239
  589 Torsion                 33    35    97    49         -31.75841
  590 Torsion                 33    35   105   148         154.58921
  591 Torsion                 34    42    91   139         128.80451
  592 Torsion                 35   100     1    47         147.08162
  593 Torsion                 35   100     1    68         -95.58354
  594 Torsion                 35   100     1    76          26.80820
  595 Torsion                 35   105   148    66        -109.30168
  596 Torsion                 35   105   148    87         129.09621
  597 Torsion                 35   105   148   113           8.01314
  598 Torsion                 36    51   110    44         147.09905
  599 Torsion                 36    51   110   115         -95.48181
  600 Torsion                 36    51   110   158          26.85767
  601 Torsion                 36   154   106    43           7.87952
  602 Torsion                 36   154   106   132         128.96814
  603 Torsion                 36   154   106   157        -109.48466
  604 Torsion                 37    79   114    54         -95.58652
  605 Torsion                 37    79   114    78          26.73407
  606 Torsion                 37    79   114   146         146.99278
  607 Torsion                 37   158   110    44           7.97228
  608 Torsion                 37   158   110    51         129.06974
  609 Torsion                 37   158   110   115        -109.33981
  610 Torsion                 38    46    95   143         129.02027
  611 Torsion                 38   139    20   163          33.04909
  612 Torsion                 38   139    84   174          89.65542
  613 Torsion                 38   139    91    42          33.44163
  614 Torsion                 39    50   101   161        -158.15033
  615 Torsion                 39   143    21   164          33.04292
  616 Torsion                 39   143    85   175          89.61967
  617 Torsion                 39   143    95    46          33.22574
  618 Torsion                 40    27    14    54        -164.19072
  619 Torsion                 40    27    14   119         -46.39692
  620 Torsion                 40    27    14   151          79.96838
  621 Torsion                 41   128     4   116         -11.13779
  622 Torsion                 41   128     4   125        -131.72051
  623 Torsion                 41   128     4   136         107.69677
  624 Torsion                 42    74     8    65         156.71196
  625 Torsion                 42    74     8    94         -86.68275
  626 Torsion                 42    74     8   133          42.98966
  627 Torsion                 42    91   139    84         -86.62931
  628 Torsion                 42   136     4   116        -103.92993
  629 Torsion                 42   136     4   125          15.87432
  630 Torsion                 42   136     4   128         136.26583
  631 Torsion                 43    16    62    99          11.93674
  632 Torsion                 43   106   132    71         108.82041
  633 Torsion                 44    17    22   153          30.25695
  634 Torsion                 44    17    66   148          12.37041
  635 Torsion                 45    16    43   106          42.86901
  636 Torsion                 45    16    62    99         135.97245
  637 Torsion                 46    38   139    84        -106.85924
  638 Torsion                 46    38   139    91         129.73420
  639 Torsion                 46    53     5    81        -103.74402
  640 Torsion                 46    53     5   129          16.05023
  641 Torsion                 46    53     5   134         136.46174
  642 Torsion                 46    75     9    98         -86.90170
  643 Torsion                 46    75     9   108         156.55366
  644 Torsion                 46    75     9   152          42.80456
  645 Torsion                 46    95   143    85         -86.84100
  646 Torsion                 47     1    76   159          80.76248
  647 Torsion                 48    96    70    87          89.65613
  648 Torsion                 48    96    70   150        -149.45586
  649 Torsion                 49    97    35   100          89.61637
  650 Torsion                 49    97    35   105        -149.49608
  651 Torsion                 50    39   143    85        -106.80327
  652 Torsion                 50    39   143    95         129.81369
  653 Torsion                 50    57     6    86        -103.73025
  654 Torsion                 50    57     6   137          16.06933
  655 Torsion                 50    57     6   138         136.47018
  656 Torsion                 50    83    10   117         -86.81819
  657 Torsion                 50    83    10   149         156.58572
  658 Torsion                 50    83    10   156          42.86706
  659 Torsion                 51    36    28   167          33.00441
  660 Torsion                 51    36    92    64          89.65414
  661 Torsion                 51    36   154   106          33.27613
  662 Torsion                 52    17    22   153        -101.20388
  663 Torsion                 52    17    44   110          42.75665
  664 Torsion                 52    17    66   148         136.33555
  665 Torsion                 53     5   129   142          81.49401
  666 Torsion                 53     5   134   121         107.74354
  667 Torsion                 53    46    38   139         -95.54572
  668 Torsion                 53    46    95   143        -109.39279
  669 Torsion                 54    14   119   130         156.53442
  670 Torsion                 54    14   151   118         147.09161
  671 Torsion                 54   114    78   160         -36.55905
  672 Torsion                 55   122   109   140         128.89222
  673 Torsion                 56    18    26   102        -101.22381
  674 Torsion                 56    18   146   114          42.73841
  675 Torsion                 57     6    86   111         146.98961
  676 Torsion                 57     6   137   145          81.46960
  677 Torsion                 57     6   138   124         107.72860
  678 Torsion                 57    50    39   143         -95.57133
  679 Torsion                 57    50   101   161         -36.57225
  680 Torsion                 58   116     4   125          27.07493
  681 Torsion                 58   116     4   128         -93.31658
  682 Torsion                 58   116     4   136         146.87917
  683 Torsion                 59   126   127   144         129.07383
  684 Torsion                 59   140    24   165          33.01685
  685 Torsion                 59   140    88   176          89.65716
  686 Torsion                 59   140   109   122          33.37807
  687 Torsion                 60   156    10    83         -46.48961
  688 Torsion                 60   156    10   117          79.92148
  689 Torsion                 60   156    10   149        -164.24372
  690 Torsion                 61   147    13   107          30.33354
  691 Torsion                 61   147    13   115         147.13617
  692 Torsion                 62    16    43   106         156.65478
  693 Torsion                 62    99    77   173        -133.87542
  694 Torsion                 62    99   112    69         167.27625
  695 Torsion                 62    99   150    70        -109.37691
  696 Torsion                 63   130   135   162        -158.12809
  697 Torsion                 63   144    25   166          32.95091
  698 Torsion                 63   144    89   177          89.69467
  699 Torsion                 63   144   127   126          33.21960
  700 Torsion                 64    92    36   154        -149.48781
  701 Torsion                 65     8    94    82         147.03388
  702 Torsion                 65   122    55   172        -133.81599
  703 Torsion                 65   122   109   140        -109.48703
  704 Torsion                 66    17    22   153         147.05785
  705 Torsion                 66    17    44   110         156.53275
  706 Torsion                 66   148    87    70         -95.53243
  707 Torsion                 66   148   113    72         167.15228
  708 Torsion                 67    93    37    79          89.66710
  709 Torsion                 67    93    37   158        -149.46015
  710 Torsion                 68     1    47    73         167.25862
  711 Torsion                 68     1    76   159         -36.52534
  712 Torsion                 68    18    26   102         147.10961
  713 Torsion                 68    18   146   114         156.51987
  714 Torsion                 69   112    99    77         -73.04620
  715 Torsion                 69   112    99   150          46.81474
  716 Torsion                 70    87   148   105          26.78498
  717 Torsion                 70    87   148   113         147.02013
  718 Torsion                 70   150    99    77         129.03753
  719 Torsion                 70   150    99   112           7.89342
  720 Torsion                 71   132   106   154         -11.42853
  721 Torsion                 71   132   106   157        -133.80596
  722 Torsion                 72   113   148    87         -73.06420
  723 Torsion                 72   113   148   105          46.71764
  724 Torsion                 73    47     1    76          46.76168
  725 Torsion                 73    47     1   100         -73.07202
  726 Torsion                 74     8    65   122          11.97178
  727 Torsion                 74     8    94    82          30.23317
  728 Torsion                 74    42    34   171         108.78478
  729 Torsion                 74    42    91   139           7.69505
  730 Torsion                 75     9    98   123          30.35207
  731 Torsion                 75     9   108   126          12.39132
  732 Torsion                 75     9   152    90         -46.42807
  733 Torsion                 75    46    38   139         147.11123
  734 Torsion                 75    46    95   143           7.89517
  735 Torsion                 79    37    29   168          32.98106
  736 Torsion                 79    37   158   110          33.16725
  737 Torsion                 79   114    78   160        -158.12442
  738 Torsion                 80    16    43   106         -86.84423
  739 Torsion                 80    16    62    99        -103.96840
  740 Torsion                 81     5   129   142        -159.73050
  741 Torsion                 81     5   134   121         -11.03195
  742 Torsion                 82    94     8   133        -101.26770
  743 Torsion                 83    10   117   131          30.32535
  744 Torsion                 83    10   149   130          12.32030
  745 Torsion                 83    50    39   143         147.10823
  746 Torsion                 83    50   101   161          80.73209
  747 Torsion                 84   139    20   163         151.59972
  748 Torsion                 85   143    21   164         151.58591
  749 Torsion                 86     6   137   145        -159.72341
  750 Torsion                 86     6   138   124         -11.07839
  751 Torsion                 87    70    32   169          32.99453
  752 Torsion                 87    70   150    99          33.32328
  753 Torsion                 88   140    24   165         151.56885
  754 Torsion                 88   140    59   126        -106.80508
  755 Torsion                 88   140   109   122         -86.67439
  756 Torsion                 89   144    25   166         151.54600
  757 Torsion                 89   144    63   130        -106.69452
  758 Torsion                 89   144   127   126         -86.84900
  759 Torsion                 90   152     9    98          80.01970
  760 Torsion                 90   152     9   108        -164.18997
  761 Torsion                 91    42    34   171         -11.47188
  762 Torsion                 91   139    20   163         -86.45774
  763 Torsion                 91   139    84   174        -149.44968
  764 Torsion                 92    36    28   167         151.56748
  765 Torsion                 92    36    51   110        -106.79678
  766 Torsion                 92    36   154   106         -86.76923
  767 Torsion                 93    37    29   168         151.55011
  768 Torsion                 93    37    79   114        -106.63066
  769 Torsion                 93    37   158   110         -86.90492
  770 Torsion                 94     8    65   122        -103.99377
  771 Torsion                 95    46    38   139          26.87452
  772 Torsion                 95   143    21   164         -86.49528
  773 Torsion                 95   143    85   175        -149.48816
  774 Torsion                 96    70    32   169         151.57967
  775 Torsion                 96    70    87   148        -106.73505
  776 Torsion                 96    70   150    99         -86.75730
  777 Torsion                 97    35    33   170         151.61061
  778 Torsion                 97    35   105   148         -86.94970
  779 Torsion                 98     9   108   126        -103.55435
  780 Torsion                100     1    76   159        -158.11065
  781 Torsion                100    35    33   170          33.06139
  782 Torsion                100    35   105   148          33.12091
  783 Torsion                101    50    39   143          26.84310
  784 Torsion                102    26    18   146          30.30879
  785 Torsion                103    12   104   120          30.21497
  786 Torsion                103    12   157   106          12.16107
  787 Torsion                103   122    55   172         108.81061
  788 Torsion                103   122   109   140           7.80687
  789 Torsion                104    12   103   122         -86.82607
  790 Torsion                104    12   157   106        -103.72282
  791 Torsion                105    35    33   170         -86.45695
  792 Torsion                107    13    23   155         -46.40835
  793 Torsion                107    13   115   110          12.49647
  794 Torsion                107   126    59   140         147.06387
  795 Torsion                107   126   127   144           7.95963
  796 Torsion                108     9    98   123         147.13158
  797 Torsion                108   126    59   140         -95.57090
  798 Torsion                108   126   127   144        -109.29949
  799 Torsion                109   122    55   172         -11.44473
  800 Torsion                109   140    24   165         -86.50207
  801 Torsion                109   140    59   126         129.81834
  802 Torsion                109   140    88   176        -149.46267
  803 Torsion                110    51    36   154         129.83428
  804 Torsion                110   115    13   147        -103.42278
  805 Torsion                111    86     6   137          27.19004
  806 Torsion                111    86     6   138         -93.21081
  807 Torsion                112    99    77   173         108.78297
  808 Torsion                114    54    14   119          12.31871
  809 Torsion                114    54    14   151        -103.63255
  810 Torsion                114    79    37   158         129.98641
  811 Torsion                115    13    23   155        -164.15906
  812 Torsion                115    13   107   126         156.62338
  813 Torsion                116     4   125   141        -159.62421
  814 Torsion                117    10   149   130        -103.63338
  815 Torsion                118   151    14   119          30.24603
  816 Torsion                119   130    63   144         146.98832
  817 Torsion                119   130   135   162          80.74028
  818 Torsion                120   104    12   157         147.01286
  819 Torsion                121   134     5   129        -131.64421
  820 Torsion                122    65     8   133         135.91815
  821 Torsion                122   103    12   157         156.64015
  822 Torsion                123    98     9   152        -101.21564
  823 Torsion                124   138     6   137        -131.67490
  824 Torsion                126   107    13   147         -86.74673
  825 Torsion                126   108     9   152         136.39561
  826 Torsion                127   126    59   140          26.81444
  827 Torsion                127   144    25   166         -86.57262
  828 Torsion                127   144    63   130         129.95122
  829 Torsion                127   144    89   177        -149.42483
  830 Torsion                128     4   125   141         -39.04149
  831 Torsion                130   119    14   151         -86.86434
  832 Torsion                130   149    10   156         136.30048
  833 Torsion                131   117    10   149         147.13395
  834 Torsion                131   117    10   156        -101.21028
  835 Torsion                134     5   129   142         -39.11824
  836 Torsion                135   130    63   144          26.72650
  837 Torsion                136     4   125   141          81.54123
  838 Torsion                136    42    34   171        -133.86937
  839 Torsion                136    42    91   139        -109.55976
  840 Torsion                138     6   137   145         -39.12690
  841 Torsion                144    63   130   149         -95.63080
  842 Torsion                146   114    78   160          80.77957
  843 Torsion                147    13    23   155          79.91807
  844 Torsion                148    87    70   150         129.89152
  845 Torsion                149   130   135   162         -36.54347
  846 Torsion                150    70    32   169         -86.51638
  847 Torsion                150    99    77   173         -11.50395
  848 Torsion                154    36    28   167         -86.49793
  849 Torsion                158    37    29   168         -86.51496


            XYZ format geometry
            -------------------
   177
 geometry
 Si                    1.64943033   -11.50641912    -0.17361954
 H                    -0.61339442     7.80986937    -2.12424906
 H                     4.55569388    -8.32562674    -2.59568105
 Si                   -1.65557308    11.80504153    -1.12529181
 Si                    1.96548147     8.51418492    -1.10164066
 Si                    5.58729088     5.22432569    -1.07561308
 H                     0.94168038    -5.03179827    -2.61100855
 Si                   -2.68512887     7.02986563    -1.37861958
 Si                    0.93472884     3.73800494    -1.35492380
 Si                    4.55907607     0.44809325    -1.32947579
 H                    -2.67970150    -1.74858735    -2.63801075
 Si                   -3.72147667     2.25433673    -1.63394210
 Si                   -0.09766301    -1.03633659    -1.60836961
 Si                    3.52749388    -4.32905052    -1.58343618
 H                     0.50524527     9.88662769    -2.10741431
 Si                   -4.75160395    -2.52528814    -1.88831439
 Si                   -1.12897353    -5.81391132    -1.86343803
 Si                    2.48762071    -9.10580085    -1.83858241
 O                    -2.20407811     2.22492684    -2.25433067
 O                     0.82905524     8.63927271     3.01740087
 O                     4.45158853     5.34871299     3.04186238
 O                    -2.29831761    -5.38071734    -2.96293939
 O                     1.41945573    -1.06587741    -2.22922257
 O                    -0.20352450     3.86370521     2.76379483
 O                     3.41953505     0.57246004     2.78867517
 O                     1.31481759    -8.67325657    -2.93472545
 O                     5.04669650    -4.36079407    -2.19912444
 O                    -1.23650028    -0.91279449     2.50825549
 O                     2.38628992    -4.20467663     2.53280298
 H                    -1.65442425     3.03799865    -2.38881327
 H                    -6.20696969    -1.15259482    -2.90149040
 O                    -2.26959499    -5.68847545     2.25469843
 O                     1.35235289    -8.97863947     2.27945133
 O                    -3.78513283    10.19868710     1.14573058
 Si                    0.00820277    -9.63602283     1.62261817
 Si                   -2.57984593    -1.57026939     1.84994246
[...]
            gradient        -0.000140
 step   229 energy         -28.17522918
 step  -229 energy         -28.17522884
            gradient        -0.000017
 step   230 energy         -28.17523009
 step  -230 energy         -28.17522794
            gradient        -0.000107
 step   231 energy         -28.17522772
 step  -231 energy         -28.17523031
            gradient         0.000130
 step   232 energy         -28.17523063
 step  -232 energy         -28.17522742
            gradient        -0.000160
 step   233 energy         -28.17522940
 step  -233 energy         -28.17522862
            gradient        -0.000039
 step   234 energy         -28.17523027
 step  -234 energy         -28.17522775
            gradient        -0.000126
 step   235 energy         -28.17522719
 step  -235 energy         -28.17523085
            gradient         0.000183
 step   236 energy         -28.17522865
 step  -236 energy         -28.17522936
            gradient         0.000036
 step   237 energy         -28.17522892
 step  -237 energy         -28.17522910
            gradient         0.000009
 step   238 energy         -28.17522871
 step  -238 energy         -28.17522931
            gradient         0.000030
 step   239 energy         -28.17522917
 step  -239 energy         -28.17522885
            gradient        -0.000016
 step   240 energy         -28.17522897
 step  -240 energy         -28.17522906
            gradient         0.000005
 step   241 energy         -28.17523029
 step  -241 energy         -28.17522774
            gradient        -0.000127
 step   242 energy         -28.17522891
 step  -242 energy         -28.17522910
            gradient         0.000010
 step   243 energy         -28.17522854
 step  -243 energy         -28.17522947
            gradient         0.000047
 step   244 energy         -28.17522922
 step  -244 energy         -28.17522880
            gradient        -0.000021
 step   245 energy         -28.17523020
 step  -245 energy         -28.17522783
            gradient        -0.000119
 step   246 energy         -28.17522924
 step  -246 energy         -28.17522878
            gradient        -0.000023
 step   247 energy         -28.17522892
 step  -247 energy         -28.17522909
            gradient         0.000009
 step   248 energy         -28.17522859
 step  -248 energy         -28.17522943
            gradient         0.000042
 step   249 energy         -28.17522904
 step  -249 energy         -28.17522897
            gradient        -0.000004
 step   250 energy         -28.17522839
 step  -250 energy         -28.17522964
            gradient         0.000063
 step   251 energy         -28.17522872
 step  -251 energy         -28.17522929
            gradient         0.000029
 step   252 energy         -28.17522849
 step  -252 energy         -28.17522953
            gradient         0.000052
 step   253 energy         -28.17522902
 step  -253 energy         -28.17522900
            gradient        -0.000001
 step   254 energy         -28.17522879
 step  -254 energy         -28.17522923
            gradient         0.000022
 step   255 energy         -28.17522755
 step  -255 energy         -28.17523049
            gradient         0.000147
 step   256 energy         -28.17522880
 step  -256 energy         -28.17522921
            gradient         0.000021
 step   257 energy         -28.17522969
 step  -257 energy         -28.17522833
            gradient        -0.000068
 step   258 energy         -28.17522954
 step  -258 energy         -28.17522848
            gradient        -0.000053
 step   259 energy         -28.17522849
 step  -259 energy         -28.17522953
            gradient         0.000052
 step   260 energy         -28.17522860
 step  -260 energy         -28.17522942
            gradient         0.000041
 step   261 energy         -28.17523068
 step  -261 energy         -28.17522736
            gradient        -0.000166
 step   262 energy         -28.17522933
 step  -262 energy         -28.17522869
            gradient        -0.000032
 step   263 energy         -28.17522958
 step  -263 energy         -28.17522844
            gradient        -0.000057
 step   264 energy         -28.17522695
 step  -264 energy         -28.17523110
            gradient         0.000208
 step   265 energy         -28.17522898
 step  -265 energy         -28.17522903
            gradient         0.000003
 step   266 energy         -28.17522713
 step  -266 energy         -28.17523092
            gradient         0.000190
 step   267 energy         -28.17522869
 step  -267 energy         -28.17522933
            gradient         0.000032
 step   268 energy         -28.17522753
 step  -268 energy         -28.17523050
            gradient         0.000149
 step   269 energy         -28.17522820
 step  -269 energy         -28.17522982
            gradient         0.000081
 step   270 energy         -28.17522865
 step  -270 energy         -28.17522937
            gradient         0.000036
 step   271 energy         -28.17522946
 step  -271 energy         -28.17522856
            gradient        -0.000045
 step   272 energy         -28.17522893
 step  -272 energy         -28.17522909
            gradient         0.000008
 step   273 energy         -28.17522910
 step  -273 energy         -28.17522892
            gradient        -0.000009
 step   274 energy         -28.17522908
 step  -274 energy         -28.17522893
            gradient        -0.000007
 step   275 energy         -28.17523034
 step  -275 energy         -28.17522769
            gradient        -0.000133
 step   276 energy         -28.17523009
 step  -276 energy         -28.17522794
            gradient        -0.000107
 step   277 energy         -28.17522870
 step  -277 energy         -28.17522932
            gradient         0.000031
 step   278 energy         -28.17522688
 step  -278 energy         -28.17523117
            gradient         0.000214
 step   279 energy         -28.17522872
 step  -279 energy         -28.17522930
            gradient         0.000029
 step   280 energy         -28.17522808
 step  -280 energy         -28.17522994
            gradient         0.000093
 step   281 energy         -28.17522909
 step  -281 energy         -28.17522893
            gradient        -0.000008
 step   282 energy         -28.17522896
 step  -282 energy         -28.17522906
            gradient         0.000005
 step   283 energy         -28.17522891
 step  -283 energy         -28.17522911
            gradient         0.000010
 step   284 energy         -28.17522882
 step  -284 energy         -28.17522920
            gradient         0.000019
 step   285 energy         -28.17522938
 step  -285 energy         -28.17522863
            gradient        -0.000037
 step   286 energy         -28.17522893
 step  -286 energy         -28.17522908
            gradient         0.000007
 step   287 energy         -28.17522894
 step  -287 energy         -28.17522907
            gradient         0.000007
 step   288 energy         -28.17522857
 step  -288 energy         -28.17522944
            gradient         0.000044
 step   289 energy         -28.17523066
 step  -289 energy         -28.17522739
            gradient        -0.000164
 step   290 energy         -28.17522884
 step  -290 energy         -28.17522917
            gradient         0.000016
 step   291 energy         -28.17522905
 step  -291 energy         -28.17522898
            gradient        -0.000004
 step   292 energy         -28.17522986
 step  -292 energy         -28.17522816
            gradient        -0.000085
 step   293 energy         -28.17522892
 step  -293 energy         -28.17522910
            gradient         0.000009
 step   294 energy         -28.17522904
 step  -294 energy         -28.17522898
            gradient        -0.000003
 step   295 energy         -28.17522891
 step  -295 energy         -28.17522911
            gradient         0.000010
 step   296 energy         -28.17523038
 step  -296 energy         -28.17522766
            gradient        -0.000136
 step   297 energy         -28.17522875
 step  -297 energy         -28.17522927
            gradient         0.000026
 step   298 energy         -28.17522914
 step  -298 energy         -28.17522887
            gradient        -0.000013
 step   299 energy         -28.17522779
 step  -299 energy         -28.17523024
            gradient         0.000122
 step   300 energy         -28.17522718
 step  -300 energy         -28.17523087
            gradient         0.000184
 step   301 energy         -28.17522917
 step  -301 energy         -28.17522884
            gradient        -0.000017
 step   302 energy         -28.17522870
 step  -302 energy         -28.17522932
            gradient         0.000031
 step   303 energy         -28.17522801
 step  -303 energy         -28.17523001
            gradient         0.000100
 step   304 energy         -28.17522745
 step  -304 energy         -28.17523060
            gradient         0.000158
 step   305 energy         -28.17522805
 step  -305 energy         -28.17522998
            gradient         0.000097
 step   306 energy         -28.17523034
 step  -306 energy         -28.17522769
            gradient        -0.000132
 step   307 energy         -28.17522898
 step  -307 energy         -28.17522904
            gradient         0.000003
 step   308 energy         -28.17522908
 step  -308 energy         -28.17522893
            gradient        -0.000007
 step   309 energy         -28.17523009
 step  -309 energy         -28.17522794
            gradient        -0.000108
 step   310 energy         -28.17522712
 step  -310 energy         -28.17523093
            gradient         0.000191
 step   311 energy         -28.17522780
 step  -311 energy         -28.17523023
            gradient         0.000121
 step   312 energy         -28.17522934
 step  -312 energy         -28.17522868
            gradient        -0.000033
 step   313 energy         -28.17522934
 step  -313 energy         -28.17522867
            gradient        -0.000034
 step   314 energy         -28.17522915
 step  -314 energy         -28.17522887
            gradient        -0.000014
 step   315 energy         -28.17522926
 step  -315 energy         -28.17522876
            gradient        -0.000025
 step   316 energy         -28.17522815
 step  -316 energy         -28.17522986
            gradient         0.000085
 step   317 energy         -28.17522833
 step  -317 energy         -28.17522968
            gradient         0.000068
 step   318 energy         -28.17522908
 step  -318 energy         -28.17522894
            gradient        -0.000007
 step   319 energy         -28.17522845
 step  -319 energy         -28.17522957
            gradient         0.000056
 step   320 energy         -28.17522927
 step  -320 energy         -28.17522875
            gradient        -0.000026
 step   321 energy         -28.17523083
 step  -321 energy         -28.17522721
            gradient        -0.000181
 step   322 energy         -28.17522932
 step  -322 energy         -28.17522870
            gradient        -0.000031
 step   323 energy         -28.17522899
 step  -323 energy         -28.17522902
            gradient         0.000002
 step   324 energy         -28.17522923
 step  -324 energy         -28.17522879
            gradient        -0.000022
 step   325 energy         -28.17522920
 step  -325 energy         -28.17522882
            gradient        -0.000019
 step   326 energy         -28.17522881
 step  -326 energy         -28.17522921
            gradient         0.000020
 step   327 energy         -28.17522862
 step  -327 energy         -28.17522940
            gradient         0.000039
 step   328 energy         -28.17522977
 step  -328 energy         -28.17522825
            gradient        -0.000076
 step   329 energy         -28.17522831
 step  -329 energy         -28.17522971
            gradient         0.000070
 step   330 energy         -28.17522962
 step  -330 energy         -28.17522841
            gradient        -0.000060
 step   331 energy         -28.17522947
 step  -331 energy         -28.17522855
            gradient        -0.000046
 step   332 energy         -28.17522906
 step  -332 energy         -28.17522896
            gradient        -0.000005
 step   333 energy         -28.17522728
 step  -333 energy         -28.17523075
            gradient         0.000173
 step   334 energy         -28.17522761
 step  -334 energy         -28.17523042
            gradient         0.000141
 step   335 energy         -28.17523029
 step  -335 energy         -28.17522774
            gradient        -0.000128
 step   336 energy         -28.17522898
 step  -336 energy         -28.17522905
            gradient         0.000004
 step   337 energy         -28.17522885
 step  -337 energy         -28.17522917
            gradient         0.000016
 step   338 energy         -28.17522885
 step  -338 energy         -28.17522917
            gradient         0.000016
 step   339 energy         -28.17523034
 step  -339 energy         -28.17522769
            gradient        -0.000132
 step   340 energy         -28.17522879
 step  -340 energy         -28.17522923
            gradient         0.000022
 step   341 energy         -28.17522874
 step  -341 energy         -28.17522927
            gradient         0.000027
 step   342 energy         -28.17522865
 step  -342 energy         -28.17522936
            gradient         0.000036
 step   343 energy         -28.17522967
 step  -343 energy         -28.17522834
            gradient        -0.000066
 step   344 energy         -28.17522906
 step  -344 energy         -28.17522895
            gradient        -0.000005
 step   345 energy         -28.17522847
 step  -345 energy         -28.17522955
            gradient         0.000054
 step   346 energy         -28.17522913
 step  -346 energy         -28.17522889
            gradient        -0.000012
 step   347 energy         -28.17522845
 step  -347 energy         -28.17522958
            gradient         0.000057
 step   348 energy         -28.17522875
 step  -348 energy         -28.17522926
            gradient         0.000025
 step   349 energy         -28.17523011
 step  -349 energy         -28.17522792
            gradient        -0.000110
 step   350 energy         -28.17522905
 step  -350 energy         -28.17522896
            gradient        -0.000005
 step   351 energy         -28.17522877
 step  -351 energy         -28.17522926
            gradient         0.000025
 step   352 energy         -28.17522970
 step  -352 energy         -28.17522833
            gradient        -0.000069
 step   353 energy         -28.17522847
 step  -353 energy         -28.17522955
            gradient         0.000054
 step   354 energy         -28.17522881
 step  -354 energy         -28.17522921
            gradient         0.000020
 step   355 energy         -28.17522881
 step  -355 energy         -28.17522920
            gradient         0.000019
 step   356 energy         -28.17522932
 step  -356 energy         -28.17522870
            gradient        -0.000031
 step   357 energy         -28.17522932
 step  -357 energy         -28.17522869
            gradient        -0.000032
 step   358 energy         -28.17523051
 step  -358 energy         -28.17522754
            gradient        -0.000148
 step   359 energy         -28.17522950
 step  -359 energy         -28.17522853
            gradient        -0.000048
 step   360 energy         -28.17522879
 step  -360 energy         -28.17522923
            gradient         0.000022
 step   361 energy         -28.17522913
 step  -361 energy         -28.17522889
            gradient        -0.000012
 step   362 energy         -28.17522951
 step  -362 energy         -28.17522851
            gradient        -0.000050
 step   363 energy         -28.17522902
 step  -363 energy         -28.17522900
            gradient        -0.000001
 step   364 energy         -28.17522888
 step  -364 energy         -28.17522914
            gradient         0.000013
 step   365 energy         -28.17523019
 step  -365 energy         -28.17522784
            gradient        -0.000118
 step   366 energy         -28.17522875
 step  -366 energy         -28.17522926
            gradient         0.000025
 step   367 energy         -28.17522894
 step  -367 energy         -28.17522908
            gradient         0.000007
 step   368 energy         -28.17523058
 step  -368 energy         -28.17522746
            gradient        -0.000156
 step   369 energy         -28.17522877
 step  -369 energy         -28.17522925
            gradient         0.000024
 step   370 energy         -28.17522841
 step  -370 energy         -28.17522960
            gradient         0.000059
 step   371 energy         -28.17522884
 step  -371 energy         -28.17522917
            gradient         0.000017
 step   372 energy         -28.17522938
 step  -372 energy         -28.17522863
            gradient        -0.000038
 step   373 energy         -28.17522895
 step  -373 energy         -28.17522907
            gradient         0.000006
 step   374 energy         -28.17522914
 step  -374 energy         -28.17522888
            gradient        -0.000013
 step   375 energy         -28.17523107
 step  -375 energy         -28.17522698
            gradient        -0.000204
 step   376 energy         -28.17523085
 step  -376 energy         -28.17522720
            gradient        -0.000182
 step   377 energy         -28.17523061
 step  -377 energy         -28.17522744
            gradient        -0.000159
 step   378 energy         -28.17522928
 step  -378 energy         -28.17522874
            gradient        -0.000027
 step   379 energy         -28.17522827
 step  -379 energy         -28.17522975
            gradient         0.000074
 step   380 energy         -28.17522997
 step  -380 energy         -28.17522805
            gradient        -0.000096
 step   381 energy         -28.17523000
 step  -381 energy         -28.17522801
            gradient        -0.000099
 step   382 energy         -28.17522688
 step  -382 energy         -28.17523117
            gradient         0.000215
 step   383 energy         -28.17522761
 step  -383 energy         -28.17523043
            gradient         0.000141
 step   384 energy         -28.17522915
 step  -384 energy         -28.17522887
            gradient        -0.000014
 step   385 energy         -28.17522885
 step  -385 energy         -28.17522917
            gradient         0.000016
 step   386 energy         -28.17522710
 step  -386 energy         -28.17523095
            gradient         0.000192
 step   387 energy         -28.17522769
 step  -387 energy         -28.17523035
            gradient         0.000133
 step   388 energy         -28.17522879
 step  -388 energy         -28.17522922
            gradient         0.000021
 step   389 energy         -28.17522883
 step  -389 energy         -28.17522919
            gradient         0.000018
 step   390 energy         -28.17522916
 step  -390 energy         -28.17522886
            gradient        -0.000015
 step   391 energy         -28.17522893
 step  -391 energy         -28.17522909
            gradient         0.000008
 step   392 energy         -28.17522903
 step  -392 energy         -28.17522899
            gradient        -0.000002
 step   393 energy         -28.17522904
 step  -393 energy         -28.17522898
            gradient        -0.000003
 step   394 energy         -28.17522870
 step  -394 energy         -28.17522932
            gradient         0.000031
 step   395 energy         -28.17522782
 step  -395 energy         -28.17523021
            gradient         0.000120
 step   396 energy         -28.17522808
 step  -396 energy         -28.17522995
            gradient         0.000093
 step   397 energy         -28.17522953
 step  -397 energy         -28.17522849
            gradient        -0.000052
