 argument  1 = /lustre/ukt/milias/work/projects/open-collection/theoretical_chemistry/projects/adsorbate_on_surface/on_quartz/quartz/nwchem/Quartz-G_molecular_slab_153atoms/ecp/quartz/crenbl_ecp/Q.geopt_ecp_revpbe-d3bj.nw



============================== echo of input deck ==============================
echo

start molecule

memory total 180 gb

print low

title "Quartz ecp"
charge 0

geometry units angstroms print xyz autosym
  load format xyz Qgeom.xyz
end

basis
 * library crenbl_ecp
end

ecp
  Si library crenbl_ecp
end

dft
  xc revpbe cpbe96
  disp vdw 4
  maxiter 100
end

driver
  maxiter 999
  xyz Qgeomconv
end

task dft optimize

#task dft frequencies

================================================================================


                                         
                                         


             Northwest Computational Chemistry Package (NWChem) 7.2.0
             --------------------------------------------------------


                    Environmental Molecular Sciences Laboratory
                       Pacific Northwest National Laboratory
                                Richland, WA 99352

                              Copyright (c) 1994-2022
                       Pacific Northwest National Laboratory
                            Battelle Memorial Institute

             NWChem is an open-source computational chemistry package
                        distributed under the terms of the
                      Educational Community License (ECL) 2.0
             A copy of the license is included with this distribution
                              in the LICENSE.TXT file

                                  ACKNOWLEDGMENT
                                  --------------

            This software and its documentation were developed at the
            EMSL at Pacific Northwest National Laboratory, a multiprogram
            national laboratory, operated for the U.S. Department of Energy
            by Battelle under Contract Number DE-AC05-76RL01830. Support
            for this work was provided by the Department of Energy Office
            of Biological and Environmental Research, Office of Basic
            Energy Sciences, and the Office of Advanced Scientific Computing.


           Job information
           ---------------

    hostname        = lxbk1140
    program         = /lustre/ukt/milias/work/software/nwchem/nwchem-7.2.0_gnu_openmpi_openblas/bin/LINUX64/nwchem
    date            = Sun Aug 20 17:46:58 2023

    compiled        = Sun_Jul_02_11:55:06_2023
    source          = /lustre/ukt/milias/work/software/nwchem/nwchem-7.2.0_gnu_openmpi_openblas
    nwchem branch   = 7.2.0
    nwchem revision = v7.2.0-beta1-192-gd0d141fdfb
    ga revision     = 5.8.0
    use scalapack   = F
    input           = /lustre/ukt/milias/work/projects/open-collection/theoretical_chemistry/projects/adsorbate_on_surface/on_quartz/quartz/nwchem/Quartz-G_molecular_slab_153atoms/ecp/quartz/crenbl_ecp/Q.geopt_ecp_revpbe-d3bj.nw
    prefix          = molecule.
    data base       = ./molecule.db
    status          = startup
    nproc           =      140
    time left       =     -1s



           Memory information
           ------------------

    heap     = 6039797758 doubles =  46080.0 Mbytes
    stack    = 6039797755 doubles =  46080.0 Mbytes
    global   = ********** doubles =  92160.0 Mbytes (distinct from heap & stack)
    total    = ********** doubles = 184320.0 Mbytes
    verify   = yes
    hardfail = no 


           Directory information
           ---------------------

  0 permanent = .
  0 scratch   = .




                                NWChem Input Module
                                -------------------


                                    Quartz ecp
                                    ----------

 Scaling coordinates for geometry "geometry" by  1.889725989
 (inverse scale =  0.529177249)


          ------
          auto-z
          ------
  no constraints, skipping    0.0000000000000000     
  no constraints, skipping    0.0000000000000000     


                             Geometry "geometry" -> ""
                             -------------------------

 Output coordinates in angstroms (scale by  1.889725989 to convert to a.u.)

  No.       Tag          Charge          X              Y              Z
 ---- ---------------- ---------- -------------- -------------- --------------
    1 O                    8.0000     4.79255811    -1.54033271    -3.89029839
    2 H                    1.0000    -1.86158403     5.76909699    -0.93921227
    3 H                    1.0000     4.90442947    -9.65289813     2.78025231
    4 Si                  14.0000    -2.21348447     8.54297875     2.41947829
    5 Si                  14.0000     0.62328412     7.68703680    -1.03262067
    6 Si                  14.0000     3.11875215     4.26580394    -4.65067946
    7 H                    1.0000     1.74317353    -6.19425893    -1.04446579
    8 Si                  14.0000    -3.67580000     4.81235859     0.50541255
    9 Si                  14.0000     0.37484000     2.43618549    -1.49678843
   10 Si                  14.0000     4.25615656    -0.54286420    -2.68523973
   11 H                    1.0000    -1.79680261    -3.35940196    -3.75624447
   12 Si                  14.0000    -4.40315235     0.49653579    -2.62495762
   13 Si                  14.0000    -0.51531821    -2.40931750    -1.43603624
   14 Si                  14.0000     3.75989821    -4.77047677     0.28542164
   15 H                    1.0000    -1.79800985     7.82168668    -0.21954792
   16 Si                  14.0000    -3.78221987    -4.86905915    -4.04942279
   17 Si                  14.0000    -0.47299981    -7.17128662    -1.63349288
   18 Si                  14.0000     2.51945895    -8.58590055     2.64753173
   19 O                    8.0000    -2.74728014     0.64835258    -2.84752697
   20 O                    8.0000     1.88650068     4.61387051     4.35644309
   21 O                    8.0000     6.19744004     4.74258796     0.74398582
   22 O                    8.0000    -0.69694148    -6.37262121    -3.06308210
   23 O                    8.0000     1.06207401    -2.60562606    -1.96614433
   24 O                    8.0000    -2.51653214     1.70642122     3.76317081
   25 O                    8.0000     3.10420273     0.87620491     3.13999542
   26 O                    8.0000     2.02807692    -8.36016695     1.08749198
   27 O                    8.0000     4.66159728    -6.11600721    -0.04246064
   28 O                    8.0000    -4.57678448    -2.57252668     1.62522737
   29 O                    8.0000    -0.58938099    -2.68621324     3.34788205
   30 H                    1.0000    -2.05933462     1.31708865    -2.67000624
   31 H                    1.0000    -4.40680170    -5.57628628    -6.48209407
   32 O                    8.0000     2.53236322    -4.60228747    -0.83350790
   33 O                    8.0000     1.12326701     1.92093280    -2.89099432
   34 O                    8.0000    -3.06514481     4.94520868     4.75364811
   35 O                    8.0000    -4.90206702    -1.07955495    -2.68336349
   36 Si                  14.0000    -4.95299885    -3.74592535     0.52359820
   37 Si                  14.0000    -0.71293449    -4.36226071     3.20360351
   38 O                    8.0000     1.33499943     4.64087583     1.68477913
   39 O                    8.0000     5.27117194     3.13619541    -1.25209604
   40 H                    1.0000     5.05281538    -6.97007792    -0.20891974
   41 H                    1.0000    -3.82473391     7.60685816     0.67248116
   42 Si                  14.0000    -2.21781008     5.44879580     3.41908065
   43 O                    8.0000    -4.81572355    -3.69388029    -3.46029335
   44 O                    8.0000    -1.48120455    -6.37325758    -0.53320181
   45 O                    8.0000    -2.25558562    -4.18032223    -4.00783494
   46 Si                  14.0000     1.89450351     4.87349688     0.13528696
   47 O                    8.0000    -1.31766355    -4.74948266     1.70965041
   48 H                    1.0000    -1.07044192    -5.67839039    -3.62924580
   49 H                    1.0000     3.80706231    -4.50209215     5.27501786
   50 Si                  14.0000     5.33881288     2.59379973    -2.82111199
   51 O                    8.0000    -3.53436164    -4.59757501     0.23295666
   52 O                    8.0000     1.08898946    -6.92527133    -1.08630981
   53 O                    8.0000     1.42079068     6.36581769    -0.42821936
   54 O                    8.0000     3.09601949    -4.93140746     1.80711625
   55 O                    8.0000    -6.36317032     1.57107291     1.01925583
   56 O                    8.0000     4.04223349    -9.25140841     2.72775786
   57 O                    8.0000     4.26103384     3.48352748    -3.73636745
   58 H                    1.0000    -3.44217233    10.39986080     3.77224118
   59 O                    8.0000    -1.07895517     0.50587834     1.79465009
   60 H                    1.0000     5.07476066    -2.15966138    -4.55850180
   61 H                    1.0000    -1.96354197    -1.01266376    -2.95097078
   62 O                    8.0000    -3.83028730    -6.17084418    -3.02616622
   63 O                    8.0000     4.05947442    -1.04283870     1.41757769
   64 H                    1.0000    -6.81313921    -5.36582149     1.37818016
   65 O                    8.0000    -4.35040897     3.31427134     0.36348656
   66 O                    8.0000    -0.83234604    -8.78343767    -1.70462157
   67 H                    1.0000    -2.27231020    -5.31922859     5.05819847
   68 O                    8.0000     1.45757960    -9.53409757     3.50414606
   69 H                    1.0000     7.75972727     2.80149032    -3.77183656
   70 H                    1.0000     7.57213014    -1.36203434     0.92071245
   71 H                    1.0000    -8.13410620    -2.46484571    -3.15339101
   72 H                    1.0000     2.51036052     4.90132496     5.01835477
   73 H                    1.0000     6.91597592     5.30381291     1.02133903
   74 O                    8.0000    -2.99502002     4.99082748     2.01033108
   75 O                    8.0000     1.14800103     3.74343445    -0.83382093
   76 H                    1.0000    -2.53744312     2.45441172     4.35952136
   77 H                    1.0000     2.62054200     1.64229184     3.47432218
   78 O                    8.0000     3.24342135    -4.61413639     4.51135900
   79 O                    8.0000     0.84736898    -4.91902578     3.32262647
   80 O                    8.0000    -4.19672876    -5.30614595    -5.59279834
   81 O                    8.0000    -1.00428500     7.53095771    -0.72132614
   82 H                    1.0000    -5.75299903     6.29144097     0.12543271
   83 O                    8.0000     4.84114324     1.00620973    -2.85582529
   84 O                    8.0000     0.65935489     2.48423078     3.17040446
   85 O                    8.0000     4.68401671     2.53858617     1.36464479
   86 O                    8.0000     2.30957786     5.39542063    -3.76056384
   87 H                    1.0000    -4.14068457    -1.93912569     2.21645597
   88 O                    8.0000    -2.77287042    -0.99649404     3.13847665
   89 O                    8.0000     2.61854343    -1.83493701     3.56633250
   90 H                    1.0000     1.46399665     2.22600939    -3.75985667
   91 O                    8.0000    -0.69691213     4.79466727     3.43198441
   92 O                    8.0000    -6.13978021    -4.76472559     1.07306057
   93 O                    8.0000    -1.68796062    -4.95730735     4.39716661
   94 O                    8.0000    -4.86285823     5.99391529     0.31174728
   95 O                    8.0000     3.52231825     4.60068251     0.13178965
   96 H                    1.0000     0.06879076    -1.98444099     3.36882677
   97 O                    8.0000    -5.41107621    -3.07762492    -0.93492112
   98 O                    8.0000    -1.21360030     2.85837982    -1.81117682
   99 H                    1.0000     1.73140993    -1.99003912    -2.34655367
  100 H                    1.0000    -3.58443426     4.80670498     5.54280331
  101 O                    8.0000     6.86885878     2.74237178    -3.43781056
  102 H                    1.0000     1.68645760    -7.99504875     0.24605938
  103 O                    8.0000    -4.69771260     1.08517119    -1.09112371
  104 O                    8.0000    -5.21265952     1.40361146    -3.75265364
  105 H                    1.0000    -7.23549031     1.36981922     1.34865635
  106 Si                  14.0000    -5.60680053    -2.58654189    -2.51203845
  107 O                    8.0000    -0.43261371    -1.25729208    -0.22794796
  108 O                    8.0000     0.38910313     1.23185642    -0.36019466
  109 O                    8.0000    -3.73641074     0.98574086     1.47425523
  110 Si                  14.0000    -1.91444789    -4.93507515     0.16317738
  111 H                    1.0000     1.87644149     6.05969326    -3.21486493
  112 H                    1.0000     2.75290925    -2.66954397     4.03566557
  113 H                    1.0000     0.13310794     1.70822601     2.94061162
  114 Si                  14.0000     2.43873876    -5.39024434     3.26146559
  115 O                    8.0000    -1.17048592    -3.76581295    -0.77536312
  116 O                    8.0000    -3.02272734     9.71028554     3.26401616
  117 O                    8.0000     2.58115289    -0.43142717    -2.71886324
  118 H                    1.0000     1.95916515    -3.97300490    -1.33366986
  119 O                    8.0000     4.64555891    -3.36057647     0.27005807
  120 H                    1.0000    -5.68241318     1.87888379    -4.43261550
  121 H                    1.0000     0.87999955     8.03774214    -3.59530929
  122 Si                  14.0000    -4.82279208     1.70598508     0.43626637
  123 H                    1.0000    -1.87118286     3.53718172    -1.56633219
  124 H                    1.0000     1.56319111     2.64663375    -5.90764915
  125 O                    8.0000    -0.71807217     9.03597231     1.92910731
  126 Si                  14.0000     0.08407667    -0.00104135     0.70506857
  127 O                    8.0000     1.41932550    -0.42324502     1.58726459
  128 O                    8.0000    -3.06170736     8.09561854     1.02204355
  129 O                    8.0000     1.19193206     9.08567583    -0.30513432
  130 Si                  14.0000     5.07434054    -1.75282743     0.29572958
  131 H                    1.0000     1.90311435     0.27416903    -2.77593700
  132 O                    8.0000    -7.21173976    -2.47814893    -2.91407770
  133 O                    8.0000    -2.49061589     5.08644833    -0.64345779
  134 O                    8.0000     0.89906150     7.77140046    -2.67705074
  135 O                    8.0000     6.66035284    -1.52017176     0.69110482
  136 O                    8.0000    -2.14331531     7.10921716     3.28074149
  137 O                    8.0000     3.82015886     4.95506085    -5.98960348
  138 O                    8.0000     2.02942855     3.08861925    -5.19761707
  139 Si                  14.0000     0.81839687     4.14230505     3.18674961
  140 Si                  14.0000    -2.57089069     0.55457865     2.57518125
  141 H                    1.0000     0.07417844     9.18823734     1.40387267
  142 H                    1.0000     1.74147416     9.85132753    -0.14289140
  143 Si                  14.0000     4.96269805     3.74460839     0.27038088
  144 Si                  14.0000     2.83799130    -0.62330462     2.45493676
  145 H                    1.0000     4.28516423     5.35973900    -6.71710146
  146 O                    8.0000     2.56147194    -7.04031712     3.32478584
  147 O                    8.0000    -1.44325730    -1.79702713    -2.67582725
  148 H                    1.0000     4.36594079     1.86456847     1.98307588
  149 O                    8.0000     4.72756033    -1.12756398    -1.20490581
  150 H                    1.0000    -2.21304351    -1.76529326     3.37079586
  151 H                    1.0000     0.81378358   -10.06034394     3.96897198
  152 H                    1.0000    -0.96778933    -9.72670361    -1.72297303
  153 H                    1.0000    -3.69052192    -6.84942278    -2.36915243

      Atomic Mass 
      ----------- 

      O                 15.994910
      H                  1.007825
      Si                27.976930


 Effective nuclear repulsion energy (a.u.)   43220.9099006149

            Nuclear Dipole moment (a.u.) 
            ----------------------------
        X                 Y               Z
 ---------------- ---------------- ----------------
    -0.0000000000     0.0000000000     0.0000000000



                                Z-matrix (autoz)
                                -------- 

 Units are Angstrom for bonds and degrees for angles

      Type          Name      I     J     K     L     M      Value
      ----------- --------  ----- ----- ----- ----- ----- ----------
    1 Stretch                  1    10                       1.65373
    2 Stretch                  1    60                       0.95378
    3 Stretch                  2   133                       0.97425
    4 Stretch                  3    56                       0.95254
    5 Stretch                  4   116                       1.65249
    6 Stretch                  4   125                       1.64917
    7 Stretch                  4   128                       1.69483
    8 Stretch                  4   136                       1.67403
    9 Stretch                  5    53                       1.65739
   10 Stretch                  5    81                       1.66441
   11 Stretch                  5   129                       1.67594
   12 Stretch                  5   134                       1.66953
   13 Stretch                  6    57                       1.65914
   14 Stretch                  6    86                       1.65018
   15 Stretch                  6   137                       1.66125
   16 Stretch                  6   138                       1.69456
   17 Stretch                  7    52                       0.98188
   18 Stretch                  8    65                       1.64909
   19 Stretch                  8    74                       1.66135
   20 Stretch                  8    94                       1.68603
   21 Stretch                  8   133                       1.67323
   22 Stretch                  9    33                       1.66416
   23 Stretch                  9    75                       1.65717
   24 Stretch                  9    98                       1.67339
   25 Stretch                  9   108                       1.65604
   26 Stretch                 10    83                       1.66461
   27 Stretch                 10   117                       1.67904
   28 Stretch                 10   149                       1.65997
   29 Stretch                 11    45                       0.97349
   30 Stretch                 12    19                       1.67765
   31 Stretch                 12    35                       1.65420
   32 Stretch                 12   103                       1.66910
   33 Stretch                 12   104                       1.65825
   34 Stretch                 13    23                       1.67562
   35 Stretch                 13   107                       1.67137
   36 Stretch                 13   115                       1.64494
   37 Stretch                 13   147                       1.66525
   38 Stretch                 14    27                       1.65258
   39 Stretch                 14    32                       1.66947
   40 Stretch                 14    54                       1.66799
   41 Stretch                 14   119                       1.66507
   42 Stretch                 15    81                       0.98301
   43 Stretch                 16    43                       1.67220
   44 Stretch                 16    45                       1.67532
   45 Stretch                 16    62                       1.65650
   46 Stretch                 16    80                       1.65677
   47 Stretch                 17    22                       1.65280
   48 Stretch                 17    44                       1.69233
   49 Stretch                 17    52                       1.67324
   50 Stretch                 17    66                       1.65325
   51 Stretch                 18    26                       1.65110
   52 Stretch                 18    56                       1.66378
   53 Stretch                 18    68                       1.66146
   54 Stretch                 18   146                       1.68798
   55 Stretch                 19    30                       0.97570
   56 Stretch                 20    72                       0.95392
   57 Stretch                 20   139                       1.65270
   58 Stretch                 21    73                       0.95299
   59 Stretch                 21   143                       1.65676
   60 Stretch                 22    48                       0.97057
   61 Stretch                 23    99                       0.98573
   62 Stretch                 24    76                       0.95685
   63 Stretch                 24   140                       1.65560
   64 Stretch                 25    77                       0.96571
   65 Stretch                 25   144                       1.66994
   66 Stretch                 26   102                       0.97879
   67 Stretch                 27    40                       0.95404
   68 Stretch                 28    36                       1.65287
   69 Stretch                 28    87                       0.97002
   70 Stretch                 29    37                       1.68678
   71 Stretch                 29    96                       0.96235
   72 Stretch                 31    80                       0.95287
   73 Stretch                 32   118                       0.98728
   74 Stretch                 33    90                       0.98188
   75 Stretch                 34    42                       1.65911
   76 Stretch                 34   100                       0.95478
   77 Stretch                 35   106                       1.67243
   78 Stretch                 36    51                       1.67997
   79 Stretch                 36    92                       1.65780
   80 Stretch                 36    97                       1.66845
   81 Stretch                 37    47                       1.65757
   82 Stretch                 37    79                       1.66093
   83 Stretch                 37    93                       1.65207
   84 Stretch                 38    46                       1.66376
   85 Stretch                 38   139                       1.66474
   86 Stretch                 39    50                       1.66150
   87 Stretch                 39   143                       1.66831
   88 Stretch                 41   128                       0.97123
   89 Stretch                 42    74                       1.67283
   90 Stretch                 42    91                       1.65565
   91 Stretch                 42   136                       1.66784
   92 Stretch                 43   106                       1.65867
   93 Stretch                 44   110                       1.65560
   94 Stretch                 46    53                       1.66402
   95 Stretch                 46    75                       1.66538
   96 Stretch                 46    95                       1.65052
   97 Stretch                 47   110                       1.66799
   98 Stretch                 49    78                       0.95573
   99 Stretch                 50    57                       1.67060
  100 Stretch                 50    83                       1.66413
  101 Stretch                 50   101                       1.65633
  102 Stretch                 51   110                       1.65617
  103 Stretch                 54   114                       1.66063
  104 Stretch                 55   105                       0.95391
  105 Stretch                 55   122                       1.65253
  106 Stretch                 58   116                       0.95380
  107 Stretch                 59   126                       1.67236
  108 Stretch                 59   140                       1.68448
  109 Stretch                 61   147                       0.98063
  110 Stretch                 62   153                       0.95481
  111 Stretch                 63   130                       1.67110
  112 Stretch                 63   144                       1.65655
  113 Stretch                 64    92                       0.95280
  114 Stretch                 65   122                       1.67780
  115 Stretch                 66   152                       0.95312
  116 Stretch                 67    93                       0.95363
  117 Stretch                 68   151                       0.95261
  118 Stretch                 69   101                       0.95327
  119 Stretch                 70   135                       0.95345
  120 Stretch                 71   132                       0.95300
  121 Stretch                 78   114                       1.67693
  122 Stretch                 79   114                       1.66080
  123 Stretch                 82    94                       0.95686
  124 Stretch                 84   113                       0.96536
  125 Stretch                 84   139                       1.66576
  126 Stretch                 85   143                       1.65214
  127 Stretch                 85   148                       0.96847
  128 Stretch                 86   111                       0.96263
  129 Stretch                 88   140                       1.66251
  130 Stretch                 88   150                       0.97899
  131 Stretch                 89   112                       0.96690
  132 Stretch                 89   144                       1.65874
  133 Stretch                 91   139                       1.66790
  134 Stretch                 95   143                       1.68130
  135 Stretch                 97   106                       1.66336
  136 Stretch                 98   123                       0.97629
  137 Stretch                103   122                       1.65347
  138 Stretch                104   120                       0.95336
  139 Stretch                106   132                       1.65808
  140 Stretch                107   126                       1.64792
  141 Stretch                108   126                       1.65767
  142 Stretch                109   122                       1.66625
  143 Stretch                109   140                       1.66023
  144 Stretch                110   115                       1.67377
  145 Stretch                114   146                       1.65584
  146 Stretch                117   131                       0.98023
  147 Stretch                119   130                       1.66414
  148 Stretch                121   134                       0.95629
  149 Stretch                124   138                       0.95754
  150 Stretch                125   141                       0.96266
  151 Stretch                126   127                       1.65512
  152 Stretch                127   144                       1.67496
  153 Stretch                129   142                       0.95632
  154 Stretch                130   135                       1.65103
  155 Stretch                130   149                       1.66226
  156 Stretch                137   145                       0.95354
  157 Bend                     1    10    83               111.87819
  158 Bend                     1    10   117               110.42718
  159 Bend                     1    10   149               110.19813
  160 Bend                     2   133     8               141.31115
  161 Bend                     3    18    26               112.02462
  162 Bend                     3    18    68               108.88875
  163 Bend                     3    18   146               109.29316
  164 Bend                     4   125   141               162.89464
  165 Bend                     4   128    41               145.36448
  166 Bend                     4   136    42               153.31217
  167 Bend                     5    53    46               167.26232
  168 Bend                     5    81    15               149.01596
  169 Bend                     5   129   142               159.51635
  170 Bend                     5   134   121               163.05243
  171 Bend                     6    50    39               109.14992
  172 Bend                     6    50    83               105.56801
  173 Bend                     6    50   101               111.50225
  174 Bend                     6   138   124               150.80880
  175 Bend                     7    52    17               138.18982
  176 Bend                     8    65   122               169.18365
  177 Bend                     8    74    42               169.30602
  178 Bend                     8    94    82               153.53829
  179 Bend                     9    33    90               143.24625
  180 Bend                     9    75    46               167.74585
  181 Bend                     9    98   123               140.14470
  182 Bend                     9   108   126               168.62485
  183 Bend                    10    83    50               172.20032
  184 Bend                    10   117   131               137.64516
  185 Bend                    10   130    63               107.35564
  186 Bend                    10   130   119               105.94906
  187 Bend                    10   130   135               113.60626
  188 Bend                    11    45    16               141.49370
  189 Bend                    12    19    30               137.20705
  190 Bend                    12    35   106               169.11330
  191 Bend                    12   103   122               174.06798
  192 Bend                    13    23    99               133.48330
  193 Bend                    13   107   126               161.84207
  194 Bend                    13   115   110               168.05068
  195 Bend                    13   147    61               143.00067
  196 Bend                    14    27    40               170.83830
  197 Bend                    14    32   118               146.16580
  198 Bend                    14    54   114               169.47120
  199 Bend                    14   119   130               162.73974
  200 Bend                    16    43   106               164.87508
  201 Bend                    16    62   153               168.32622
  202 Bend                    17    22    48               154.46672
  203 Bend                    17    44   110               147.03489
  204 Bend                    18    26   102               165.26855
  205 Bend                    18   146   114               153.54241
  206 Bend                    19    12    35               112.28576
  207 Bend                    19    12   103               105.31879
  208 Bend                    19    12   104               110.00561
  209 Bend                    20   139    38               110.64283
  210 Bend                    20   139    84               110.65030
  211 Bend                    20   139    91               111.80765
  212 Bend                    21   143    39               110.04436
  213 Bend                    21   143    85               112.09177
  214 Bend                    21   143    95               110.81402
  215 Bend                    22    17    44               104.70100
  216 Bend                    22    17    52               109.77284
  217 Bend                    22    17    66               113.86263
  218 Bend                    23    13   107               105.23876
  219 Bend                    23    13   115               113.91599
  220 Bend                    23    13   147               109.39693
  221 Bend                    24   140    59               108.87631
  222 Bend                    24   140    88               114.20207
  223 Bend                    24   140   109               108.55371
  224 Bend                    25   144    63               111.51580
  225 Bend                    25   144    89               113.71151
  226 Bend                    25   144   127               103.90300
  227 Bend                    26    18    56               111.87800
  228 Bend                    26    18    68               112.02180
  229 Bend                    26    18   146               105.14826
  230 Bend                    27    14    32               110.50210
  231 Bend                    27    14    54               108.63974
  232 Bend                    27    14   119               113.41389
  233 Bend                    28    36    51               106.43853
  234 Bend                    28    36    92               112.22943
  235 Bend                    28    36    97               111.14725
  236 Bend                    29    37    47               109.62956
  237 Bend                    29    37    79               104.95972
  238 Bend                    29    37    93               109.83572
  239 Bend                    31    16    43               111.77773
  240 Bend                    31    16    45               110.65262
  241 Bend                    31    16    62               110.85267
  242 Bend                    32    14    54               109.17865
  243 Bend                    32    14   119               107.43436
  244 Bend                    33     9    75               111.68962
  245 Bend                    33     9    98               110.34174
  246 Bend                    33     9   108               110.24042
  247 Bend                    34    42    74               110.91751
  248 Bend                    34    42    91               110.05728
  249 Bend                    34    42   136               113.06094
  250 Bend                    35    12   103               108.37483
  251 Bend                    35    12   104               110.48323
  252 Bend                    35   106    43               110.00045
  253 Bend                    35   106    97               108.27489
  254 Bend                    35   106   132               108.91315
  255 Bend                    36    28    87               166.43891
  256 Bend                    36    51   110               159.48005
  257 Bend                    36    97   106               168.35351
  258 Bend                    37    29    96               140.94564
  259 Bend                    37    47   110               172.81947
  260 Bend                    37    79   114               173.03185
  261 Bend                    38    46    53               110.18420
  262 Bend                    38    46    75               107.23758
  263 Bend                    38    46    95               108.09096
  264 Bend                    38   139    84               108.59527
  265 Bend                    38   139    91               107.30439
  266 Bend                    39    50    57               108.49607
  267 Bend                    39    50    83               108.59998
  268 Bend                    39    50   101               111.09577
  269 Bend                    39   143    85               111.67923
  270 Bend                    39   143    95               105.59711
  271 Bend                    42    34   100               170.62709
  272 Bend                    42    91   139               171.09843
  273 Bend                    43    16    45               105.39883
  274 Bend                    43    16    62               108.46480
  275 Bend                    43    16    80               111.03699
  276 Bend                    43   106    97               106.78810
  277 Bend                    43   106   132               111.51053
  278 Bend                    44    17    52               105.91376
  279 Bend                    44    17    66               110.99689
  280 Bend                    44   110    47               113.14171
  281 Bend                    44   110    51               116.78855
  282 Bend                    44   110   115               104.75404
  283 Bend                    45    16    62               109.52279
  284 Bend                    45    16    80               111.07378
  285 Bend                    46    38   139               170.57190
  286 Bend                    46    95   143               158.26516
  287 Bend                    47    37    79               109.20832
  288 Bend                    47    37    93               110.59090
  289 Bend                    47   110    51               106.75125
  290 Bend                    47   110   115               106.44681
  291 Bend                    49    78   114               158.87677
  292 Bend                    50    39   143               171.25293
  293 Bend                    50     6    86               111.99682
  294 Bend                    50     6   137               111.71221
  295 Bend                    50     6   138               104.90977
  296 Bend                    51    36    92               110.50653
  297 Bend                    51    36    97               106.47898
  298 Bend                    51   110   115               108.42231
  299 Bend                    52    17    66               111.12168
  300 Bend                    53     5    81               109.12161
  301 Bend                    53     5   129               110.10295
  302 Bend                    53     5   134               108.66219
  303 Bend                    53    46    75               106.49182
  304 Bend                    53    46    95               115.35847
  305 Bend                    54    14   119               107.56689
  306 Bend                    54   114    78               109.56992
  307 Bend                    54   114    79               109.45783
  308 Bend                    54   114   146               106.22999
  309 Bend                    55   122    65               110.85485
  310 Bend                    55   122   103               111.45348
  311 Bend                    55   122   109               110.65173
  312 Bend                    56    18    68               109.37912
  313 Bend                    56    18   146               108.91269
  314 Bend                    57     6    86               111.29095
  315 Bend                    57     6   137               110.43171
  316 Bend                    57     6   138               107.03193
  317 Bend                    57    50    83               107.68122
  318 Bend                    57    50   101               110.13297
  319 Bend                    58     4   125               111.65213
  320 Bend                    58     4   128               112.34746
  321 Bend                    58     4   136               111.28852
  322 Bend                    59   126   107               112.45141
  323 Bend                    59   126   108               108.73613
  324 Bend                    59   126   127               106.92346
  325 Bend                    59   140    88               103.74670
  326 Bend                    59   140   109               108.78514
  327 Bend                    60    10    83               113.15614
  328 Bend                    60    10   117               109.88285
  329 Bend                    60    10   149               109.46628
  330 Bend                    62    16    80               111.15287
  331 Bend                    63   130   119               105.32797
  332 Bend                    63   130   135               111.26957
  333 Bend                    63   130   149               108.63507
  334 Bend                    63   144    89               109.39875
  335 Bend                    63   144   127               109.29255
  336 Bend                    64    36    28               112.61471
  337 Bend                    64    36    51               110.10747
  338 Bend                    64    36    97               109.82187
  339 Bend                    65     8    74               110.07053
  340 Bend                    65     8    94               109.79905
  341 Bend                    65     8   133               112.30125
  342 Bend                    65   122   103               107.36964
  343 Bend                    65   122   109               104.93952
  344 Bend                    67    37    29               110.36191
  345 Bend                    67    37    47               109.72047
  346 Bend                    67    37    79               112.83967
  347 Bend                    68    18   146               109.36613
  348 Bend                    69    50    39               110.84752
  349 Bend                    69    50    57               110.88984
  350 Bend                    69    50    83               110.23164
  351 Bend                    70   130    63               110.95353
  352 Bend                    70   130   119               113.31578
  353 Bend                    70   130   149               111.11818
  354 Bend                    71   106    35               109.92639
  355 Bend                    71   106    43               110.63635
  356 Bend                    71   106    97               111.14067
  357 Bend                    72   139    38               110.20340
  358 Bend                    72   139    84               111.02261
  359 Bend                    72   139    91               111.87198
  360 Bend                    73   143    39               110.00501
  361 Bend                    73   143    85               111.82672
  362 Bend                    73   143    95               111.14497
  363 Bend                    74     8    94               108.49799
  364 Bend                    74     8   133               108.30754
  365 Bend                    74    42    91               108.97731
  366 Bend                    74    42   136               102.91185
  367 Bend                    75     9    98               108.60294
  368 Bend                    75     9   108               107.16252
  369 Bend                    75    46    95               109.18925
  370 Bend                    76    24   140               172.03765
  371 Bend                    77    25   144               140.76059
  372 Bend                    78   114    79               107.51962
  373 Bend                    78   114   146               113.39904
  374 Bend                    79    37    93               112.45246
  375 Bend                    79   114   146               110.63151
  376 Bend                    81     5   129               109.19983
  377 Bend                    81     5   134               110.51696
  378 Bend                    83    10   117               106.66435
  379 Bend                    83    10   149               108.62523
  380 Bend                    83    50   101               110.73605
  381 Bend                    84   139    91               107.69943
  382 Bend                    85   143    95               106.36606
  383 Bend                    86     6   137               110.96287
  384 Bend                    86     6   138               109.53734
  385 Bend                    88   140   109               112.43792
  386 Bend                    89   144   127               108.80099
  387 Bend                    91    42   136               110.66771
  388 Bend                    92    36    97               109.83721
  389 Bend                    94     8   133               107.76021
  390 Bend                    97   106   132               111.29063
  391 Bend                    98     9   108               108.69931
  392 Bend                   103    12   104               110.23533
  393 Bend                   103   122   109               111.33565
  394 Bend                   105    55   122               172.50310
  395 Bend                   107    13   115               107.32574
  396 Bend                   107    13   147               108.19658
  397 Bend                   107   126   108               105.11959
  398 Bend                   107   126   127               111.11634
  399 Bend                   108   126   127               112.56951
  400 Bend                   111     6    57               110.38543
  401 Bend                   111     6   137               111.03236
  402 Bend                   111     6   138               110.41204
  403 Bend                   112    89   144               159.61234
  404 Bend                   113    84   139               148.70677
  405 Bend                   115    13   147               112.35186
  406 Bend                   116     4   125               112.63456
  407 Bend                   116     4   128               111.26977
  408 Bend                   116     4   136               111.25970
  409 Bend                   117    10   149               108.93753
  410 Bend                   119   130   135               112.78959
  411 Bend                   119   130   149               107.20109
  412 Bend                   120    12    19               110.11405
  413 Bend                   120    12    35               109.40679
  414 Bend                   120    12   103               111.29064
  415 Bend                   122   109   140               169.43711
  416 Bend                   125     4   128               106.71151
  417 Bend                   125     4   136               111.77732
  418 Bend                   126    59   140               157.91187
  419 Bend                   126   127   144               171.84083
  420 Bend                   128     4   136               102.65706
  421 Bend                   129     5   134               109.22832
  422 Bend                   130    63   144               167.36949
  423 Bend                   130    10     1               110.76691
  424 Bend                   130    10    83               110.15748
  425 Bend                   130    10   117               106.74143
  426 Bend                   135   130   149               111.32062
  427 Bend                   137     6   138               107.42786
  428 Bend                   140    88   150               138.03808
  429 Bend                   143    85   148               170.53236
  430 Bend                   145     6    57               109.01884
  431 Bend                   145     6    86               111.03207
  432 Bend                   145     6   138               108.81713
  433 Bend                   151    18    26               111.14056
  434 Bend                   151    18    56               110.32257
  435 Bend                   151    18   146               109.26703
  436 Bend                   152    17    22               114.75070
  437 Bend                   152    17    44               111.82928
  438 Bend                   152    17    52               109.44170
  439 Torsion                  1    10    83    50        -171.13577
  440 Torsion                  1    10   117   131        -124.56416
  441 Torsion                  1    10   130    63        -159.63231
  442 Torsion                  1    10   130   119         -47.46224
  443 Torsion                  1    10   130   135          76.90799
  444 Torsion                 10     1   149   130         172.05457
  445 Torsion                  2   133     8    65         179.73342
  446 Torsion                  2   133     8    74         -58.50388
  447 Torsion                  2   133     8    94          58.68247
  448 Torsion                  4   136    42    34        -137.04048
  449 Torsion                  4   136    42    74         -17.32485
  450 Torsion                  4   136    42    91          98.97417
  451 Torsion                  5    53    46    38         -76.79304
  452 Torsion                  5    53    46    75          39.19002
  453 Torsion                  5    53    46    95         160.49939
  454 Torsion                  7    52    17    22          39.40112
  455 Torsion                  7    52    17    44         -73.11340
  456 Torsion                  7    52    17    66         166.25118
  457 Torsion                  8    65   122    55         115.48009
  458 Torsion                  8    65   122   103        -122.56498
  459 Torsion                  8    65   122   109          -4.00935
  460 Torsion                  8    74    42    34         141.65195
  461 Torsion                  8    74    42    91         -97.03612
  462 Torsion                  8    74    42   136          20.46402
  463 Torsion                  9    75    46    38         -24.68578
  464 Torsion                  9    75    46    53        -142.63080
  465 Torsion                  9    75    46    95          92.20171
  466 Torsion                  9   108   126    59         -59.72503
  467 Torsion                  9   108   126   107          60.89709
  468 Torsion                  9   108   126   127        -178.00975
  469 Torsion                 10    83    50    39          16.54309
  470 Torsion                 10    83    50    57        -100.75369
  471 Torsion                 10    83    50   101         138.78376
  472 Torsion                 11    45    16    43           0.72030
  473 Torsion                 11    45    16    62        -115.78050
  474 Torsion                 11    45    16    80         121.06209
  475 Torsion                 12    35   106    43        -174.13839
  476 Torsion                 12    35   106    97         -57.78576
  477 Torsion                 12    35   106   132          63.36933
  478 Torsion                 12   103   122    55        -177.82732
  479 Torsion                 12   103   122    65          60.59183
  480 Torsion                 12   103   122   109         -53.74947
  481 Torsion                 13   107   126    59         168.83254
  482 Torsion                 13   107   126   108          50.69024
  483 Torsion                 13   107   126   127         -71.35100
  484 Torsion                 13   115   110    44        -165.72485
  485 Torsion                 13   115   110    47         -45.62635
  486 Torsion                 13   115   110    51          68.89766
  487 Torsion                 14    54   114    78         131.91462
  488 Torsion                 14    54   114    79        -110.41189
  489 Torsion                 14    54   114   146           9.06362
  490 Torsion                 14   119   130    63          39.15162
  491 Torsion                 14   119   130   135         160.69513
  492 Torsion                 14   119   130   149         -76.42324
  493 Torsion                 15    81     5    53         108.87052
  494 Torsion                 15    81     5   129         -11.52321
  495 Torsion                 15    81     5   134        -131.69975
  496 Torsion                 16    43   106    35          91.53031
  497 Torsion                 16    43   106    97         -25.75147
  498 Torsion                 16    43   106   132        -147.52478
  499 Torsion                 17    44   110    47        -102.98011
  500 Torsion                 17    44   110    51         132.48500
  501 Torsion                 17    44   110   115          12.54806
  502 Torsion                 18   146   114    54         -37.63669
  503 Torsion                 18   146   114    78        -158.03993
  504 Torsion                 18   146   114    79          81.06915
  505 Torsion                 19    12    35   106         142.49994
  506 Torsion                 19    12   103   122           3.04533
  507 Torsion                 12    19   104   120        -174.13998
  508 Torsion                 20   139    38    46         110.67859
  509 Torsion                 20   139    84   113         157.41832
  510 Torsion                 20   139    91    42         146.24620
  511 Torsion                 21   143    39    50        -133.03291
  512 Torsion                 21   143    85   148         136.46229
  513 Torsion                 21   143    95    46        -151.70162
  514 Torsion                 22    17    44   110         -54.67532
  515 Torsion                 17    22    66   152        -172.39318
  516 Torsion                 23    13   107   126          23.14300
  517 Torsion                 23    13   115   110         128.32362
  518 Torsion                 23    13   147    61        -114.91839
  519 Torsion                 24   140    59   126         179.20565
  520 Torsion                 24   140    88   150         -94.93417
  521 Torsion                 24   140   109   122          33.37769
  522 Torsion                 25   144    63   130        -173.71531
  523 Torsion                 25   144    89   112        -123.67628
  524 Torsion                 25   144   127   126          29.72288
  525 Torsion                  3    56    26    18         177.54165
  526 Torsion                 18    26    68   151         177.50103
  527 Torsion                 26    18   146   114          -5.05805
  528 Torsion                 27    14    32   118        -148.42329
  529 Torsion                 27    14    54   114         -30.30945
  530 Torsion                 27    14   119   130         171.96416
  531 Torsion                 28    36    51   110         -20.50169
  532 Torsion                 36    28    92    64         178.76511
  533 Torsion                 28    36    97   106         120.58146
  534 Torsion                 29    37    47   110           5.28182
  535 Torsion                 29    37    79   114         -69.34459
  536 Torsion                 37    29    93    67        -176.59691
  537 Torsion                 30    19    12    35        -160.85076
  538 Torsion                 30    19    12   103         -43.10860
  539 Torsion                 30    19    12   104          75.66676
  540 Torsion                 32    14    27    40         -61.56480
  541 Torsion                 32    14    54   114          90.26603
  542 Torsion                 32    14   119   130          49.55008
  543 Torsion                 33     9    75    46        -133.14265
  544 Torsion                 33     9    98   123        -140.16965
  545 Torsion                 33     9   108   126        -106.22106
  546 Torsion                 34    42    91   139         149.09631
  547 Torsion                 35    12   103   122         123.39715
  548 Torsion                 12    35   104   120         177.30119
  549 Torsion                 35   106    97    36         -98.29845
  550 Torsion                 71   132    35   106        -177.97921
  551 Torsion                 36    51   110    44        -175.65090
  552 Torsion                 36    51   110    47          56.63424
  553 Torsion                 36    51   110   115         -57.68994
  554 Torsion                 36    97   106    43          20.11678
  555 Torsion                 36    97   106   132         142.02885
  556 Torsion                 37    47   110    44         147.22250
  557 Torsion                 37    47   110    51         -82.94835
  558 Torsion                 37    47   110   115          32.70695
  559 Torsion                 37    79   114    54          -3.20976
  560 Torsion                 37    79   114    78         115.74057
  561 Torsion                 37    79   114   146        -119.93753
  562 Torsion                 38    46    95   143          65.08155
  563 Torsion                 72    20    38   139        -179.19078
  564 Torsion                 38   139    84   113         -80.96072
  565 Torsion                 38   139    91    42          24.75446
  566 Torsion                 39    50     6    86           1.27398
  567 Torsion                 39    50     6   137         126.45572
  568 Torsion                 39    50     6   138        -117.46386
  569 Torsion                  6    57    39    50         172.78178
  570 Torsion                 50    39   101    69        -176.52310
  571 Torsion                 73    21    39   143         178.33742
  572 Torsion                 39   143    85   148         -99.52240
  573 Torsion                 39   143    95    46          89.16701
  574 Torsion                 40    27    14    54          58.18902
  575 Torsion                 40    27    14   119         177.73830
  576 Torsion                 41   128     4   116         -74.24865
  577 Torsion                 41   128     4   125         162.51674
  578 Torsion                 41   128     4   136          44.84325
  579 Torsion                 42    74     8    65         176.79152
  580 Torsion                 42    74     8    94         -63.04265
  581 Torsion                 42    74     8   133          53.66856
  582 Torsion                 42    91   139    84         -91.99042
  583 Torsion                 42   136     4   116         138.81782
  584 Torsion                 42   136     4   125         -94.30288
  585 Torsion                 42   136     4   128          19.71888
  586 Torsion                 43    16    62   153        -101.21578
  587 Torsion                 16    43    80    31        -179.52013
  588 Torsion                 71   132    43   106        -177.00251
  589 Torsion                 44    17    22    48           3.17223
  590 Torsion                 17    44    66   152         172.64779
  591 Torsion                 45    16    43   106         -63.97309
  592 Torsion                 45    16    62   153          13.32993
  593 Torsion                 16    45    80    31        -177.11266
  594 Torsion                 46    38   139    84         -10.94694
  595 Torsion                 46    38   139    91        -127.10160
  596 Torsion                 46    53     5    81          25.15306
  597 Torsion                 46    53     5   129         144.99080
  598 Torsion                 46    53     5   134         -95.41995
  599 Torsion                 46    75     9    98         104.94603
  600 Torsion                 46    75     9   108         -12.31163
  601 Torsion                 46    95   143    85         -29.63005
  602 Torsion                 47    37    29    96        -107.51639
  603 Torsion                 47    37    79   114          48.12728
  604 Torsion                 37    47    93    67        -179.58924
  605 Torsion                 48    22    17    52        -110.12783
  606 Torsion                 48    22    17    66         124.58029
  607 Torsion                 49    78   114    54        -110.96848
  608 Torsion                 49    78   114    79         130.15311
  609 Torsion                 49    78   114   146           7.52362
  610 Torsion                 50    39   143    85         101.80784
  611 Torsion                 50    39   143    95         -13.39246
  612 Torsion                 50    83    10   117          68.01419
  613 Torsion                 50    83    10   149         -49.26790
  614 Torsion                 51    36    28    87          13.94285
  615 Torsion                 36    51    92    64         178.97066
  616 Torsion                 51    36    97   106           5.06040
  617 Torsion                 52    17    44   110          61.33184
  618 Torsion                 17    52    66   152         179.69993
  619 Torsion                 53     5   129   142          86.14062
  620 Torsion                 53     5   134   121         176.61752
  621 Torsion                 53    46    38   139         161.02612
  622 Torsion                 53    46    95   143        -171.10334
  623 Torsion                 54    14    32   118          92.14797
  624 Torsion                 54    14   119   130         -67.87549
  625 Torsion                 55   122   109   140        -107.83210
  626 Torsion                 56    18    26   102        -129.38217
  627 Torsion                 18    56    68   151         177.88220
  628 Torsion                 56    18   146   114         114.99706
  629 Torsion                  6    57    86   111        -177.70106
  630 Torsion                  6    57   137   145         176.25697
  631 Torsion                 57     6   138   124        -125.45814
  632 Torsion                 57    50    39   143          28.20414
  633 Torsion                 50    57   101    69         179.21703
  634 Torsion                 59   126   127   144         -89.82322
  635 Torsion                 59   140    24    76          94.52441
  636 Torsion                 59   140    88   150          23.43283
  637 Torsion                 59   140   109   122         -84.95740
  638 Torsion                 61   147    13   107          -0.77213
  639 Torsion                 61   147    13   115         117.52940
  640 Torsion                 62    16    43   106          53.24677
  641 Torsion                 16    62    80    31         176.75340
  642 Torsion                 70   135    63   130         177.98510
  643 Torsion                 63   130    10    83          76.05356
  644 Torsion                 63   130    10   117         -39.37697
  645 Torsion                 10   149    63   130         173.88161
  646 Torsion                 63   144    25    77         148.72089
  647 Torsion                 63   144    89   112           1.72798
  648 Torsion                 63   144   127   126         -89.41770
  649 Torsion                 65     8    94    82          -4.29646
  650 Torsion                 65   122    55   105        -176.69663
  651 Torsion                 65   122   109   140          11.79307
  652 Torsion                 66    17    44   110        -177.95174
  653 Torsion                 68    18    26   102         107.37930
  654 Torsion                  3    56    68    18        -179.26202
  655 Torsion                 68    18   146   114        -125.51640
  656 Torsion                 74     8    65   122         -26.29287
  657 Torsion                 74     8    94    82        -124.63113
  658 Torsion                 74    42    34   100        -109.74190
  659 Torsion                 74    42    91   139          27.26138
  660 Torsion                 75     9    33    90         -51.10701
  661 Torsion                 75     9    98   123         -17.43984
  662 Torsion                 75     9   108   126         132.03418
  663 Torsion                 75    46    38   139          45.51181
  664 Torsion                 75    46    95   143         -51.26362
  665 Torsion                 76    24   140    88        -150.07057
  666 Torsion                 76    24   140   109         -23.75296
  667 Torsion                 77    25   144    89         -87.00966
  668 Torsion                 77    25   144   127          31.11153
  669 Torsion                 79    37    29    96           9.66811
  670 Torsion                 79    37    47   110        -109.20519
  671 Torsion                 37    79    93    67         176.05268
  672 Torsion                 80    16    43   106         175.66093
  673 Torsion                 80    16    62   153         136.44055
  674 Torsion                 81     5   129   142        -154.06908
  675 Torsion                 81     5   134   121          56.91068
  676 Torsion                 82    94     8   133         118.30621
  677 Torsion                 10    83     1    60        -179.55747
  678 Torsion                 83    10   117   131          -2.79111
  679 Torsion                 83    10   130   119        -171.77637
  680 Torsion                 83    10   130   135         -47.40614
  681 Torsion                 10    83   149   130        -173.75191
  682 Torsion                 83    50    39   143         -88.57109
  683 Torsion                 83    50     6    86         117.84130
  684 Torsion                 83    50     6   137        -116.97696
  685 Torsion                 83    50     6   138          -0.89654
  686 Torsion                  6    57    83    50        -178.93561
  687 Torsion                 50    83   101    69         177.27664
  688 Torsion                 72    20    84   139        -178.57258
  689 Torsion                 73    21    85   143        -178.87987
  690 Torsion                 86     6    50   101        -121.84070
  691 Torsion                  6    86    57    50        -172.55777
  692 Torsion                  6    86   137   145        -171.99460
  693 Torsion                 86     6   138   124         113.76699
  694 Torsion                 87    28    36    92         134.95053
  695 Torsion                 87    28    36    97        -101.60322
  696 Torsion                 88   140    59   126          57.22192
  697 Torsion                 88   140   109   122         160.71099
  698 Torsion                 89   144    63   130          59.62301
  699 Torsion                 89   144   127   126         151.18192
  700 Torsion                 90    33     9    98          69.79737
  701 Torsion                 90    33     9   108        -170.12772
  702 Torsion                 91    42    34   100         129.58344
  703 Torsion                 72    20    91   139         177.71905
  704 Torsion                 91   139    84   113          34.93884
  705 Torsion                 92    36    51   110        -142.60700
  706 Torsion                 92    36    97   106        -114.61477
  707 Torsion                 93    37    29    96         130.77479
  708 Torsion                 93    37    47   110         126.53657
  709 Torsion                 93    37    79   114         171.28505
  710 Torsion                 94     8    65   122        -145.66892
  711 Torsion                 95    46    38   139         -72.09508
  712 Torsion                 73    21    95   143        -179.40751
  713 Torsion                 95   143    85   148          15.20484
  714 Torsion                 97    36    51   110          98.15319
  715 Torsion                 36    97    92    64        -177.83597
  716 Torsion                 71   132    97   106         174.82438
  717 Torsion                 98     9   108   126          14.83974
  718 Torsion                 99    23    13   107         -58.48144
  719 Torsion                 99    23    13   115        -175.76907
  720 Torsion                 99    23    13   147          57.56201
  721 Torsion                100    34    42   136           5.26412
  722 Torsion                101    50    39   143         149.40714
  723 Torsion                101    50     6   137           3.34104
  724 Torsion                101    50     6   138         119.42146
  725 Torsion                  6    57   101    50        -173.81507
  726 Torsion                102    26    18   146         -11.31113
  727 Torsion                103    12    35   106          26.58788
  728 Torsion                 12   103   104   120         176.73430
  729 Torsion                103   122    55   105          63.76846
  730 Torsion                103   122   109   140         127.63771
  731 Torsion                104    12    35   106         -94.28525
  732 Torsion                104    12   103   122        -115.57631
  733 Torsion                105    55   122   109         -60.69455
  734 Torsion                107    13   115   110          12.24908
  735 Torsion                107   126    59   140          -2.55549
  736 Torsion                107   126   127   144         147.12278
  737 Torsion                108     9    98   123          98.83182
  738 Torsion                108   126    59   140         113.43212
  739 Torsion                108   126   127   144          29.52143
  740 Torsion                109   140    59   126         -62.66280
  741 Torsion                109   140    88   150         140.80004
  742 Torsion                110   115    13   147        -106.56497
  743 Torsion                112    89   144   127         121.06211
  744 Torsion                114    54    14   119        -153.44814
  745 Torsion                115    13   107   126         144.81964
  746 Torsion                116     4   125   141        -138.17719
  747 Torsion                 10   117     1    60         174.68113
  748 Torsion                117    10   130   119          72.79309
  749 Torsion                117    10   130   135        -162.83667
  750 Torsion                 10   117   149   130        -177.98831
  751 Torsion                118    32    14   119         -24.22231
  752 Torsion                119   130    63   144         -23.35914
  753 Torsion                 70   135   119   130         179.60927
  754 Torsion                 10   149   119   130        -173.90220
  755 Torsion                121   134     5   129         -63.24879
  756 Torsion                122    65     8   133          94.45895
  757 Torsion                124   138     6   137          -6.84880
  758 Torsion                  4   125   116    58         176.85924
  759 Torsion                126   107    13   147         -93.72155
  760 Torsion                127   126    59   140        -124.77637
  761 Torsion                127   144    63   130         -59.40724
  762 Torsion                  4   128   116    58         177.35147
  763 Torsion                128     4   125   141         -15.79591
  764 Torsion                131   117    10   149         114.28414
  765 Torsion                134     5   129   142         -33.10400
  766 Torsion                135   130    63   144        -145.88562
  767 Torsion                 10   149   135   130         179.86052
  768 Torsion                  4   136   116    58        -174.25775
  769 Torsion                136     4   125   141          95.69210
  770 Torsion                136    42    91   139         -85.21298
  771 Torsion                  6   137    57    50         173.57022
  772 Torsion                  6   137    86   111         175.04001
  773 Torsion                  6   138    57    50         178.85238
  774 Torsion                  6   138    86   111        -177.25289
  775 Torsion                  6   138   137   145         175.54337
  776 Torsion                144    63   130   149          91.22496
  777 Torsion                  3    56   146    18        -178.32563
  778 Torsion                 18   146    68   151        -175.19722
  779 Torsion                 10   149     1    60        -175.21901
  780 Torsion                 70   135   149   130        -177.65894


            XYZ format geometry
            -------------------
   153
 geometry
 O                     4.79255811    -1.54033271    -3.89029839
 H                    -1.86158403     5.76909699    -0.93921227
 H                     4.90442947    -9.65289813     2.78025231
 Si                   -2.21348447     8.54297875     2.41947829
 Si                    0.62328412     7.68703680    -1.03262067
 Si                    3.11875215     4.26580394    -4.65067946
 H                     1.74317353    -6.19425893    -1.04446579
 Si                   -3.67580000     4.81235859     0.50541255
 Si                    0.37484000     2.43618549    -1.49678843
 Si                    4.25615656    -0.54286420    -2.68523973
 H                    -1.79680261    -3.35940196    -3.75624447
 Si                   -4.40315235     0.49653579    -2.62495762
 Si                   -0.51531821    -2.40931750    -1.43603624
 Si                    3.75989821    -4.77047677     0.28542164
 H                    -1.79800985     7.82168668    -0.21954792
 Si                   -3.78221987    -4.86905915    -4.04942279
 Si                   -0.47299981    -7.17128662    -1.63349288
 Si                    2.51945895    -8.58590055     2.64753173
 O                    -2.74728014     0.64835258    -2.84752697
 O                     1.88650068     4.61387051     4.35644309
 O                     6.19744004     4.74258796     0.74398582
 O                    -0.69694148    -6.37262121    -3.06308210
 O                     1.06207401    -2.60562606    -1.96614433
 O                    -2.51653214     1.70642122     3.76317081
 O                     3.10420273     0.87620491     3.13999542
 O                     2.02807692    -8.36016695     1.08749198
 O                     4.66159728    -6.11600721    -0.04246064
 O                    -4.57678448    -2.57252668     1.62522737
 O                    -0.58938099    -2.68621324     3.34788205
 H                    -2.05933462     1.31708865    -2.67000624
 H                    -4.40680170    -5.57628628    -6.48209407
 O                     2.53236322    -4.60228747    -0.83350790
 O                     1.12326701     1.92093280    -2.89099432
 O                    -3.06514481     4.94520868     4.75364811
 O                    -4.90206702    -1.07955495    -2.68336349
 Si                   -4.95299885    -3.74592535     0.52359820
 Si                   -0.71293449    -4.36226071     3.20360351
 O                     1.33499943     4.64087583     1.68477913
 O                     5.27117194     3.13619541    -1.25209604
 H                     5.05281538    -6.97007792    -0.20891974
 H                    -3.82473391     7.60685816     0.67248116
 Si                   -2.21781008     5.44879580     3.41908065
 O                    -4.81572355    -3.69388029    -3.46029335
 O                    -1.48120455    -6.37325758    -0.53320181
 O                    -2.25558562    -4.18032223    -4.00783494
 Si                    1.89450351     4.87349688     0.13528696
 O                    -1.31766355    -4.74948266     1.70965041
 H                    -1.07044192    -5.67839039    -3.62924580
 H                     3.80706231    -4.50209215     5.27501786
 Si                    5.33881288     2.59379973    -2.82111199
 O                    -3.53436164    -4.59757501     0.23295666
 O                     1.08898946    -6.92527133    -1.08630981
 O                     1.42079068     6.36581769    -0.42821936
 O                     3.09601949    -4.93140746     1.80711625
 O                    -6.36317032     1.57107291     1.01925583
 O                     4.04223349    -9.25140841     2.72775786
 O                     4.26103384     3.48352748    -3.73636745
 H                    -3.44217233    10.39986080     3.77224118
 O                    -1.07895517     0.50587834     1.79465009
 H                     5.07476066    -2.15966138    -4.55850180
 H                    -1.96354197    -1.01266376    -2.95097078
 O                    -3.83028730    -6.17084418    -3.02616622
 O                     4.05947442    -1.04283870     1.41757769
 H                    -6.81313921    -5.36582149     1.37818016
 O                    -4.35040897     3.31427134     0.36348656
 O                    -0.83234604    -8.78343767    -1.70462157
 H                    -2.27231020    -5.31922859     5.05819847
 O                     1.45757960    -9.53409757     3.50414606
 H                     7.75972727     2.80149032    -3.77183656
 H                     7.57213014    -1.36203434     0.92071245
 H                    -8.13410620    -2.46484571    -3.15339101
 H                     2.51036052     4.90132496     5.01835477
 H                     6.91597592     5.30381291     1.02133903
 O                    -2.99502002     4.99082748     2.01033108
 O                     1.14800103     3.74343445    -0.83382093
 H                    -2.53744312     2.45441172     4.35952136
 H                     2.62054200     1.64229184     3.47432218
 O                     3.24342135    -4.61413639     4.51135900
 O                     0.84736898    -4.91902578     3.32262647
 O                    -4.19672876    -5.30614595    -5.59279834
 O                    -1.00428500     7.53095771    -0.72132614
 H                    -5.75299903     6.29144097     0.12543271
 O                     4.84114324     1.00620973    -2.85582529
 O                     0.65935489     2.48423078     3.17040446
 O                     4.68401671     2.53858617     1.36464479
 O                     2.30957786     5.39542063    -3.76056384
 H                    -4.14068457    -1.93912569     2.21645597
 O                    -2.77287042    -0.99649404     3.13847665
 O                     2.61854343    -1.83493701     3.56633250
 H                     1.46399665     2.22600939    -3.75985667
 O                    -0.69691213     4.79466727     3.43198441
 O                    -6.13978021    -4.76472559     1.07306057
 O                    -1.68796062    -4.95730735     4.39716661
 O                    -4.86285823     5.99391529     0.31174728
 O                     3.52231825     4.60068251     0.13178965
 H                     0.06879076    -1.98444099     3.36882677
 O                    -5.41107621    -3.07762492    -0.93492112
 O                    -1.21360030     2.85837982    -1.81117682
 H                     1.73140993    -1.99003912    -2.34655367
 H                    -3.58443426     4.80670498     5.54280331
 O                     6.86885878     2.74237178    -3.43781056
 H                     1.68645760    -7.99504875     0.24605938
 O                    -4.69771260     1.08517119    -1.09112371
 O                    -5.21265952     1.40361146    -3.75265364
 H                    -7.23549031     1.36981922     1.34865635
 Si                   -5.60680053    -2.58654189    -2.51203845
 O                    -0.43261371    -1.25729208    -0.22794796
 O                     0.38910313     1.23185642    -0.36019466
 O                    -3.73641074     0.98574086     1.47425523
 Si                   -1.91444789    -4.93507515     0.16317738
 H                     1.87644149     6.05969326    -3.21486493
 H                     2.75290925    -2.66954397     4.03566557
 H                     0.13310794     1.70822601     2.94061162
 Si                    2.43873876    -5.39024434     3.26146559
 O                    -1.17048592    -3.76581295    -0.77536312
 O                    -3.02272734     9.71028554     3.26401616
 O                     2.58115289    -0.43142717    -2.71886324
 H                     1.95916515    -3.97300490    -1.33366986
 O                     4.64555891    -3.36057647     0.27005807
 H                    -5.68241318     1.87888379    -4.43261550
 H                     0.87999955     8.03774214    -3.59530929
 Si                   -4.82279208     1.70598508     0.43626637
 H                    -1.87118286     3.53718172    -1.56633219
 H                     1.56319111     2.64663375    -5.90764915
 O                    -0.71807217     9.03597231     1.92910731
 Si                    0.08407667    -0.00104135     0.70506857
 O                     1.41932550    -0.42324502     1.58726459
 O                    -3.06170736     8.09561854     1.02204355
 O                     1.19193206     9.08567583    -0.30513432
 Si                    5.07434054    -1.75282743     0.29572958
 H                     1.90311435     0.27416903    -2.77593700
 O                    -7.21173976    -2.47814893    -2.91407770
 O                    -2.49061589     5.08644833    -0.64345779
 O                     0.89906150     7.77140046    -2.67705074
 O                     6.66035284    -1.52017176     0.69110482
 O                    -2.14331531     7.10921716     3.28074149
 O                     3.82015886     4.95506085    -5.98960348
 O                     2.02942855     3.08861925    -5.19761707
[...]
  579 Torsion                 42    74     8    65         177.23941    0.44789
  580 Torsion                 42    74     8    94         -62.60525    0.43740
  581 Torsion                 42    74     8   133          54.16024    0.49168
  582 Torsion                 42    91   139    84         -89.42303    2.56740
  583 Torsion                 42   136     4   116         139.16236    0.34454
  584 Torsion                 42   136     4   125         -93.90482    0.39806
  585 Torsion                 42   136     4   128          20.08303    0.36415
  586 Torsion                 43    16    62   153         -86.99374   14.22204
  587 Torsion                 16    43    80    31        -179.73483   -0.21471
  588 Torsion                 71   132    43   106        -177.06376   -0.06125
  589 Torsion                 44    17    22    48           2.95176   -0.22048
  590 Torsion                 17    44    66   152         174.50195    1.85416
  591 Torsion                 45    16    43   106         -73.69800   -9.72491
  592 Torsion                 45    16    62   153          27.25492   13.92499
  593 Torsion                 16    45    80    31        -176.59270    0.51996
  594 Torsion                 46    38   139    84         -10.11112    0.83582
  595 Torsion                 46    38   139    91        -126.31815    0.78345
  596 Torsion                 46    53     5    81          25.06406   -0.08900
  597 Torsion                 46    53     5   129         144.86970   -0.12109
  598 Torsion                 46    53     5   134         -95.51098   -0.09103
  599 Torsion                 46    75     9    98         104.16220   -0.78383
  600 Torsion                 46    75     9   108         -13.11426   -0.80263
  601 Torsion                 46    95   143    85         -29.97722   -0.34717
  602 Torsion                 47    37    29    96        -107.72768   -0.21128
  603 Torsion                 47    37    79   114          50.71185    2.58458
  604 Torsion                 37    47    93    67        -179.59561   -0.00637
  605 Torsion                 48    22    17    52        -110.21688   -0.08905
  606 Torsion                 48    22    17    66         124.45069   -0.12960
  607 Torsion                 49    78   114    54        -111.33802   -0.36955
  608 Torsion                 49    78   114    79         129.83726   -0.31585
  609 Torsion                 49    78   114   146           7.30805   -0.21558
  610 Torsion                 50    39   143    85         102.29363    0.48579
  611 Torsion                 50    39   143    95         -12.90130    0.49117
  612 Torsion                 50    83    10   117          67.50639   -0.50779
  613 Torsion                 50    83    10   149         -49.78477   -0.51687
  614 Torsion                 51    36    28    87          14.47262    0.52977
  615 Torsion                 36    51    92    64         179.14960    0.17894
  616 Torsion                 51    36    97   106           5.26591    0.20551
  617 Torsion                 52    17    44   110          57.78046   -3.55138
  618 Torsion                 17    52    66   152         179.44720   -0.25274
  619 Torsion                 53     5   129   142          85.97498   -0.16564
  620 Torsion                 53     5   134   121         176.02383   -0.59369
  621 Torsion                 53    46    38   139         160.04542   -0.98070
  622 Torsion                 53    46    95   143        -170.69288    0.41046
  623 Torsion                 54    14    32   118          93.44886    1.30089
  624 Torsion                 54    14   119   130         -67.86696    0.00853
  625 Torsion                 55   122   109   140        -108.37082   -0.53872
  626 Torsion                 56    18    26   102        -128.88630    0.49587
  627 Torsion                 18    56    68   151         177.66714   -0.21506
  628 Torsion                 56    18   146   114         115.21345    0.21638
  629 Torsion                  6    57    86   111        -177.80281   -0.10175
  630 Torsion                  6    57   137   145         176.33142    0.07445
  631 Torsion                 57     6   138   124        -125.74410   -0.28597
  632 Torsion                 57    50    39   143          27.55051   -0.65362
  633 Torsion                 50    57   101    69         179.36648    0.14945
  634 Torsion                 59   126   127   144         -90.45918   -0.63596
  635 Torsion                 59   140    24    76          91.54762   -2.97679
  636 Torsion                 59   140    88   150          23.29524   -0.13759
  637 Torsion                 59   140   109   122         -84.48986    0.46754
  638 Torsion                 61   147    13   107          -0.81193   -0.03981
  639 Torsion                 61   147    13   115         117.45971   -0.06970
  640 Torsion                 62    16    43   106          43.22570  -10.02107
  641 Torsion                 16    62    80    31         176.42803   -0.32537
  642 Torsion                 70   135    63   130         177.74726   -0.23784
  643 Torsion                 63   130    10    83          76.59419    0.54063
  644 Torsion                 63   130    10   117         -38.95632    0.42065
  645 Torsion                 10   149    63   130         173.79488   -0.08673
  646 Torsion                 63   144    25    77         149.37955    0.65865
  647 Torsion                 63   144    89   112           0.18217   -1.54581
  648 Torsion                 63   144   127   126         -89.16270    0.25500
  649 Torsion                 65     8    94    82          -4.24430    0.05216
  650 Torsion                 65   122    55   105        -176.26124    0.43539
  651 Torsion                 65   122   109   140          11.25985   -0.53323
  652 Torsion                 66    17    44   110         178.37407   -3.67420
  653 Torsion                 68    18    26   102         107.84136    0.46206
  654 Torsion                  3    56    68    18        -179.02128    0.24075
  655 Torsion                 68    18   146   114        -125.26021    0.25620
  656 Torsion                 74     8    65   122         -25.92539    0.36748
  657 Torsion                 74     8    94    82        -124.53995    0.09118
  658 Torsion                 74    42    34   100        -109.43983    0.30207
  659 Torsion                 74    42    91   139          24.62135   -2.64003
  660 Torsion                 75     9    33    90         -51.41482   -0.30781
  661 Torsion                 75     9    98   123         -17.43248    0.00736
  662 Torsion                 75     9   108   126         133.45346    1.41928
  663 Torsion                 75    46    38   139          44.52825   -0.98356
  664 Torsion                 75    46    95   143         -50.85586    0.40776
  665 Torsion                 76    24   140    88        -153.12158   -3.05102
  666 Torsion                 76    24   140   109         -26.75435   -3.00139
  667 Torsion                 77    25   144    89         -86.42134    0.58831
  668 Torsion                 77    25   144   127          31.70211    0.59058
  669 Torsion                 79    37    29    96           9.53578   -0.13232
  670 Torsion                 79    37    47   110        -112.52773   -3.32255
  671 Torsion                 37    79    93    67         176.19291    0.14023
  672 Torsion                 80    16    43   106         165.70163   -9.95931
  673 Torsion                 80    16    62   153         150.60883   14.16828
  674 Torsion                 81     5   129   142        -154.28165   -0.21257
  675 Torsion                 81     5   134   121          56.34742   -0.56326
  676 Torsion                 82    94     8   133         118.39235    0.08614
  677 Torsion                 10    83     1    60        -179.70094   -0.14347
  678 Torsion                 83    10   117   131          -3.70965   -0.91854
  679 Torsion                 83    10   130   119        -171.28996    0.48642
  680 Torsion                 83    10   130   135         -46.94491    0.46123
  681 Torsion                 10    83   149   130        -174.36599   -0.61408
  682 Torsion                 83    50    39   143         -89.19845   -0.62736
  683 Torsion                 83    50     6    86         118.04385    0.20255
  684 Torsion                 83    50     6   137        -116.72462    0.25234
  685 Torsion                 83    50     6   138          -0.63535    0.26118
  686 Torsion                  6    57    83    50        -178.68935    0.24627
  687 Torsion                 50    83   101    69         177.36975    0.09311
  688 Torsion                 72    20    84   139        -178.49511    0.07747
  689 Torsion                 73    21    85   143        -178.91022   -0.03035
  690 Torsion                 86     6    50   101        -121.53484    0.30586
  691 Torsion                  6    86    57    50        -172.33036    0.22740
  692 Torsion                  6    86   137   145        -171.98143    0.01316
  693 Torsion                 86     6   138   124         113.54501   -0.22198
  694 Torsion                 87    28    36    92         135.39845    0.44793
  695 Torsion                 87    28    36    97        -101.05748    0.54574
  696 Torsion                 88   140    59   126          57.57069    0.34877
  697 Torsion                 88   140   109   122         161.20836    0.49738
  698 Torsion                 89   144    63   130          60.90313    1.28012
  699 Torsion                 89   144   127   126         151.40384    0.22192
  700 Torsion                 90    33     9    98          69.48472   -0.31265
  701 Torsion                 90    33     9   108        -170.43170   -0.30398
  702 Torsion                 91    42    34   100         129.91917    0.33572
  703 Torsion                 72    20    91   139         177.38722   -0.33183
  704 Torsion                 91   139    84   113          33.93341   -1.00543
  705 Torsion                 92    36    51   110        -143.13005   -0.52305
  706 Torsion                 92    36    97   106        -114.33278    0.28199
  707 Torsion                 93    37    29    96         130.64152   -0.13327
  708 Torsion                 93    37    47   110         123.20231   -3.33426
  709 Torsion                 93    37    79   114         173.86315    2.57810
  710 Torsion                 94     8    65   122        -145.31666    0.35226
  711 Torsion                 95    46    38   139         -73.05897   -0.96389
  712 Torsion                 73    21    95   143        -179.25388    0.15363
  713 Torsion                 95   143    85   148          11.33999   -3.86485
  714 Torsion                 97    36    51   110          97.64993   -0.50326
  715 Torsion                 36    97    92    64        -178.35696   -0.52099
  716 Torsion                 71   132    97   106         174.88977    0.06539
  717 Torsion                 98     9   108   126          16.21682    1.37708
  718 Torsion                 99    23    13   107         -59.19081   -0.70937
  719 Torsion                 99    23    13   115        -176.29828   -0.52922
  720 Torsion                 99    23    13   147          56.97232   -0.58969
  721 Torsion                100    34    42   136           5.63116    0.36705
  722 Torsion                101    50    39   143         148.75153   -0.65561
  723 Torsion                101    50     6   137           3.69670    0.35566
  724 Torsion                101    50     6   138         119.78596    0.36450
  725 Torsion                  6    57   101    50        -173.82010   -0.00503
  726 Torsion                102    26    18   146         -10.81366    0.49747
  727 Torsion                103    12    35   106          26.17591   -0.41196
  728 Torsion                 12   103   104   120         176.91076    0.17647
  729 Torsion                103   122    55   105          64.23776    0.46930
  730 Torsion                103   122   109   140         127.10173   -0.53598
  731 Torsion                104    12    35   106         -94.68685   -0.40160
  732 Torsion                104    12   103   122        -116.41449   -0.83817
  733 Torsion                105    55   122   109         -60.23977    0.45478
  734 Torsion                107    13   115   110          13.45673    1.20764
  735 Torsion                107   126    59   140          -3.06905   -0.51357
  736 Torsion                107   126   127   144         146.54640   -0.57637
  737 Torsion                108     9    98   123          98.86721    0.03539
  738 Torsion                108   126    59   140         112.99336   -0.43876
  739 Torsion                108   126   127   144          28.88915   -0.63228
  740 Torsion                109   140    59   126         -62.33075    0.33205
  741 Torsion                109   140    88   150         140.68979   -0.11025
  742 Torsion                110   115    13   147        -105.44090    1.12407
  743 Torsion                112    89   144   127         119.59081   -1.47129
  744 Torsion                114    54    14   119        -155.99349   -2.54535
  745 Torsion                115    13   107   126         145.71643    0.89679
  746 Torsion                116     4   125   141        -137.64748    0.52971
  747 Torsion                 10   117     1    60         174.72863    0.04750
  748 Torsion                117    10   130   119          73.15953    0.36644
  749 Torsion                117    10   130   135        -162.49542    0.34125
  750 Torsion                 10   117   149   130        -177.56889    0.41942
  751 Torsion                118    32    14   119         -22.92491    1.29740
  752 Torsion                119   130    63   144         -24.58822   -1.22908
  753 Torsion                 70   135   119   130         179.38420   -0.22507
  754 Torsion                 10   149   119   130        -174.39791   -0.49571
  755 Torsion                121   134     5   129         -63.84389   -0.59510
  756 Torsion                122    65     8   133          94.75475    0.29580
  757 Torsion                124   138     6   137          -7.07993   -0.23113
  758 Torsion                  4   125   116    58         176.72099   -0.13825
  759 Torsion                126   107    13   147         -92.76791    0.95364
  760 Torsion                127   126    59   140        -125.24319   -0.46682
  761 Torsion                127   144    63   130         -58.14544    1.26180
  762 Torsion                  4   128   116    58         177.41983    0.06836
  763 Torsion                128     4   125   141         -15.27714    0.51877
  764 Torsion                131   117    10   149         113.35523   -0.92891
  765 Torsion                134     5   129   142         -33.26890   -0.16490
  766 Torsion                135   130    63   144        -147.12403   -1.23841
  767 Torsion                 10   149   135   130        -179.55231    0.58717
  768 Torsion                  4   136   116    58        -174.17920    0.07855
  769 Torsion                136     4   125   141          96.17953    0.48743
  770 Torsion                136    42    91   139         -87.84338   -2.63041
  771 Torsion                  6   137    57    50         173.52472   -0.04550
  772 Torsion                  6   137    86   111         174.68865   -0.35136
  773 Torsion                  6   138    57    50         178.63808   -0.21430
  774 Torsion                  6   138    86   111        -176.79540    0.45750
  775 Torsion                  6   138   137   145         175.46921   -0.07416
  776 Torsion                144    63   130   149          89.96920   -1.25576
  777 Torsion                  3    56   146    18        -178.54417   -0.21855
  778 Torsion                 18   146    68   151        -175.03017    0.16705
  779 Torsion                 10   149     1    60        -175.12854    0.09047
  780 Torsion                 70   135   149   130        -177.21880    0.44014



                                NWChem Input Module
                                -------------------




                                     CITATION
                                     --------
                Please cite the following reference when publishing
                           results obtained with NWChem:

          E. Apra, E. J. Bylaska, W. A. de Jong, N. Govind, K. Kowalski,
       T. P. Straatsma, M. Valiev, H. J. J. van Dam, Y. Alexeev, J. Anchell,
       V. Anisimov, F. W. Aquino, R. Atta-Fynn, J. Autschbach, N. P. Bauman,
     J. C. Becca, D. E. Bernholdt, K. Bhaskaran-Nair, S. Bogatko, P. Borowski,
         J. Boschen, J. Brabec, A. Bruner, E. Cauet, Y. Chen, G. N. Chuev,
      C. J. Cramer, J. Daily, M. J. O. Deegan, T. H. Dunning Jr., M. Dupuis,
   K. G. Dyall, G. I. Fann, S. A. Fischer, A. Fonari, H. Fruchtl, L. Gagliardi,
      J. Garza, N. Gawande, S. Ghosh, K. Glaesemann, A. W. Gotz, J. Hammond,
       V. Helms, E. D. Hermes, K. Hirao, S. Hirata, M. Jacquelin, L. Jensen,
   B. G. Johnson, H. Jonsson, R. A. Kendall, M. Klemm, R. Kobayashi, V. Konkov,
      S. Krishnamoorthy, M. Krishnan, Z. Lin, R. D. Lins, R. J. Littlefield,
      A. J. Logsdail, K. Lopata, W. Ma, A. V. Marenich, J. Martin del Campo,
   D. Mejia-Rodriguez, J. E. Moore, J. M. Mullin, T. Nakajima, D. R. Nascimento,
    J. A. Nichols, P. J. Nichols, J. Nieplocha, A. Otero-de-la-Roza, B. Palmer,
    A. Panyala, T. Pirojsirikul, B. Peng, R. Peverati, J. Pittner, L. Pollack,
   R. M. Richard, P. Sadayappan, G. C. Schatz, W. A. Shelton, D. W. Silverstein,
   D. M. A. Smith, T. A. Soares, D. Song, M. Swart, H. L. Taylor, G. S. Thomas,
            V. Tipparaju, D. G. Truhlar, K. Tsemekhman, T. Van Voorhis,
      A. Vazquez-Mayagoitia, P. Verma, O. Villa, A. Vishnu, K. D. Vogiatzis,
        D. Wang, J. H. Weare, M. J. Williamson, T. L. Windus, K. Wolinski,
        A. T. Wong, Q. Wu, C. Yang, Q. Yu, M. Zacharias, Z. Zhang, Y. Zhao,
                                and R. J. Harrison
                        "NWChem: Past, present, and future
                         J. Chem. Phys. 152, 184102 (2020)
                               doi:10.1063/5.0004997

                                      AUTHORS
                                      -------
  E. Apra, E. J. Bylaska, N. Govind, K. Kowalski, M. Valiev, D. Mejia-Rodriguez,
       A. Kunitsa, N. P. Bauman, A. Panyala, W. A. de Jong, T. P. Straatsma,
   H. J. J. van Dam, D. Wang, T. L. Windus, J. Hammond, J. Autschbach, A. Woods,
    K. Bhaskaran-Nair, J. Brabec, K. Lopata, S. A. Fischer, S. Krishnamoorthy,
     M. Jacquelin, W. Ma, M. Klemm, O. Villa, Y. Chen, V. Anisimov, F. Aquino,
     S. Hirata, M. T. Hackler, E. Hermes, L. Jensen, J. E. Moore, J. C. Becca,
      V. Konjkov, T. Risthaus, M. Malagoli, A. Marenich, A. Otero-de-la-Roza,
        J. Mullin, P. Nichols, R. Peverati, J. Pittner, Y. Zhao, P.-D. Fan,
        A. Fonari, M. J. Williamson, R. J. Harrison, J. R. Rehr, M. Dupuis,
     D. Silverstein, D. M. A. Smith, J. Nieplocha, V. Tipparaju, M. Krishnan,
     B. E. Van Kuiken, A. Vazquez-Mayagoitia, M. Swart, Q. Wu, T. Van Voorhis,
     A. A. Auer, M. Nooijen, L. D. Crosby, E. Brown, G. Cisneros, G. I. Fann,
   H. Fruchtl, J. Garza, K. Hirao, R. A. Kendall, J. A. Nichols, K. Tsemekhman,
    K. Wolinski, J. Anchell, D. E. Bernholdt, P. Borowski, T. Clark, D. Clerc,
   H. Dachsel, M. J. O. Deegan, K. Dyall, D. Elwood, E. Glendening, M. Gutowski,
   A. C. Hess, J. Jaffe, B. G. Johnson, J. Ju, R. Kobayashi, R. Kutteh, Z. Lin,
   R. Littlefield, X. Long, B. Meng, T. Nakajima, S. Niu, L. Pollack, M. Rosing,
   K. Glaesemann, G. Sandrone, M. Stave, H. Taylor, G. Thomas, J. H. van Lenthe,
                               A. T. Wong, Z. Zhang.

 Total times  cpu:    23837.4s     wall:    25173.0s
