 *******************************************************************************
 ** Site#: 30659        For non-commercial use only    Version 20.225L 64BITS **
 *******************************************************************************
 ** Cite this program as: MOPAC2016, Version: 20.225L, James J. P. Stewart,   **
 ** Stewart Computational Chemistry, web: HTTP://OpenMOPAC.net. Days left: 274**
 *******************************************************************************
 **                                                                           **
 **                                MOPAC2016                                  **
 **                                                                           **
 *******************************************************************************

                              PM7 CALCULATION RESULTS

 *******************************************************************************
 *  CALCULATION DONE:                                Thu Nov 12 09:03:00 2020  *
 *  PM7        - The PM7 Hamiltonian to be used
 *  SINGLET    - SPIN STATE DEFINED AS A SINGLET
 *
 *
 *
 *                 CHARGE ON SYSTEM = 0
 *
 *
 *
 *  T=         - A TIME OF 172800.0 SECONDS REQUESTED
 *  DUMP=N     - RESTART FILE WRITTEN EVERY 7200.0 SECONDS REQUESTED
 *  GNORM      - EXIT WHEN GRADIENT NORM DROPS BELOW 0.000
 *  AUX        - OUTPUT AUXILIARY INFORMATION
 *  LARGE      - EXPANDED OUTPUT TO BE PRINTED
 *******************************************************************************
 AUX LARGE CHARGE=0 SINGLET  PM7 GNORM=0.0
 2-metylbutan (konf.3)

   ATOM   CHEMICAL          X               Y               Z
  NUMBER   SYMBOL      (ANGSTROMS)     (ANGSTROMS)     (ANGSTROMS)
 
     1       C         -8.73565000  *   0.58307000  *   0.06065000  *
     2       C         -7.37020000  *   1.28319000  *   0.07413000  *
     3       H         -9.50601000  *   1.23166000  *   0.53007000  *
     4       H         -8.68826000  *  -0.36484000  *   0.63819000  *
     5       H         -9.04950000  *   0.35165000  *  -0.98021000  *
     6       H         -7.10526000  *   1.49295000  *   1.13423000  *
     7       C         -7.47286000  *   2.61906000  *  -0.67883000  *
     8       C         -6.30105000  *   0.34542000  *  -0.53217000  *
     9       H         -6.30680000  *  -0.61134000  *   0.03514000  *
    10       C         -4.88063000  *   0.90756000  *  -0.45598000  *
    11       H         -6.54771000  *   0.12031000  *  -1.59306000  *
    12       H         -4.60743000  *   1.12133000  *   0.59914000  *
    13       H         -4.77783000  *   1.83182000  *  -1.05930000  *
    14       H         -4.16748000  *   0.15935000  *  -0.86180000  *
    15       H         -8.25887000  *   3.25554000  *  -0.21899000  *
    16       H         -7.73151000  *   2.44885000  *  -1.74605000  *
    17       H         -6.52195000  *   3.18584000  *  -0.62297000  *
 


          CARTESIAN COORDINATES 

    NO.       ATOM           X           Y           Z

     1         C         -8.7356      0.5831      0.0607
     2         C         -7.3702      1.2832      0.0741
     3         H         -9.5060      1.2317      0.5301
     4         H         -8.6883     -0.3648      0.6382
     5         H         -9.0495      0.3517     -0.9802
     6         H         -7.1053      1.4929      1.1342
     7         C         -7.4729      2.6191     -0.6788
     8         C         -6.3011      0.3454     -0.5322
     9         H         -6.3068     -0.6113      0.0351
    10         C         -4.8806      0.9076     -0.4560
    11         H         -6.5477      0.1203     -1.5931
    12         H         -4.6074      1.1213      0.5991
    13         H         -4.7778      1.8318     -1.0593
    14         H         -4.1675      0.1594     -0.8618
    15         H         -8.2589      3.2555     -0.2190
    16         H         -7.7315      2.4489     -1.7461
    17         H         -6.5220      3.1858     -0.6230

 General Reference for PM7:
 "Optimization of Parameters for Semiempirical Methods VI: More Modifications to the 
 NDDO Approximations and Re-optimization of Parameters", J. J. P. Stewart, J. Mol. Mod., 1:32, 19 (2013)
 https://link.springer.com/article/10.1007/s00894-012-1667-x

           Empirical Formula: C5 H12  =    17 atoms



      MOLECULAR POINT GROUP   :   C1  


 SINGLET STATE CALCULATION


      RHF CALCULATION, NO. OF DOUBLY OCCUPIED LEVELS = 16


          Geometry optimization using EF

  GNORM HAS BEEN SET TOO LOW, RESET TO 0.01

  SPECIFY LET AS KEYWORD TO ALLOW GNORM LESS THAN 0.01

          DIAGONAL MATRIX USED AS START HESSIAN

 CYCLE:     1 TIME:   0.010 TIME LEFT:  2.00D  GRAD.:    33.116 HEAT: -32.09308
 CYCLE:     2 TIME:   0.014 TIME LEFT:  2.00D  GRAD.:    20.694 HEAT: -32.86325
 CYCLE:     3 TIME:   0.010 TIME LEFT:  2.00D  GRAD.:    13.623 HEAT: -33.04558
 CYCLE:     4 TIME:   0.010 TIME LEFT:  2.00D  GRAD.:    10.805 HEAT: -33.13091
 CYCLE:     5 TIME:   0.010 TIME LEFT:  2.00D  GRAD.:     7.231 HEAT: -33.18537
 CYCLE:     6 TIME:   0.004 TIME LEFT:  2.00D  GRAD.:     9.172 HEAT: -33.22136
 CYCLE:     7 TIME:   0.014 TIME LEFT:  2.00D  GRAD.:     6.748 HEAT: -33.25692
 CYCLE:     8 TIME:   0.010 TIME LEFT:  2.00D  GRAD.:     5.367 HEAT: -33.27423
 CYCLE:     9 TIME:   0.004 TIME LEFT:  2.00D  GRAD.:     3.595 HEAT: -33.29127
 CYCLE:    10 TIME:   0.006 TIME LEFT:  2.00D  GRAD.:     3.749 HEAT: -33.30349
 CYCLE:    11 TIME:   0.006 TIME LEFT:  2.00D  GRAD.:     5.971 HEAT: -33.30585
 CYCLE:    12 TIME:   0.004 TIME LEFT:  2.00D  GRAD.:     3.493 HEAT: -33.32370
 CYCLE:    13 TIME:   0.006 TIME LEFT:  2.00D  GRAD.:     5.454 HEAT: -33.32915
 CYCLE:    14 TIME:   0.006 TIME LEFT:  2.00D  GRAD.:     4.276 HEAT: -33.34210
 CYCLE:    15 TIME:   0.004 TIME LEFT:  2.00D  GRAD.:     5.041 HEAT: -33.35085
 CYCLE:    16 TIME:   0.006 TIME LEFT:  2.00D  GRAD.:     2.469 HEAT: -33.36341
 CYCLE:    17 TIME:   0.006 TIME LEFT:  2.00D  GRAD.:     2.754 HEAT: -33.37048
 CYCLE:    18 TIME:   0.004 TIME LEFT:  2.00D  GRAD.:     1.851 HEAT: -33.37672
 CYCLE:    19 TIME:   0.006 TIME LEFT:  2.00D  GRAD.:     1.463 HEAT: -33.38260
 CYCLE:    20 TIME:   0.006 TIME LEFT:  2.00D  GRAD.:     1.804 HEAT: -33.38785
 CYCLE:    21 TIME:   0.004 TIME LEFT:  2.00D  GRAD.:     1.579 HEAT: -33.39286
 CYCLE:    22 TIME:   0.006 TIME LEFT:  2.00D  GRAD.:     1.611 HEAT: -33.39678
 CYCLE:    23 TIME:   0.004 TIME LEFT:  2.00D  GRAD.:     1.636 HEAT: -33.39936
 CYCLE:    24 TIME:   0.006 TIME LEFT:  2.00D  GRAD.:     1.044 HEAT: -33.40178
 CYCLE:    25 TIME:   0.006 TIME LEFT:  2.00D  GRAD.:     0.848 HEAT: -33.40371
 CYCLE:    26 TIME:   0.004 TIME LEFT:  2.00D  GRAD.:     0.893 HEAT: -33.40513
 CYCLE:    27 TIME:   0.006 TIME LEFT:  2.00D  GRAD.:     0.930 HEAT: -33.40688
 CYCLE:    28 TIME:   0.006 TIME LEFT:  2.00D  GRAD.:     1.122 HEAT: -33.41000
 CYCLE:    29 TIME:   0.004 TIME LEFT:  2.00D  GRAD.:     1.145 HEAT: -33.41326
 CYCLE:    30 TIME:   0.006 TIME LEFT:  2.00D  GRAD.:     1.155 HEAT: -33.41683
 CYCLE:    31 TIME:   0.006 TIME LEFT:  2.00D  GRAD.:     1.220 HEAT: -33.42005
 CYCLE:    32 TIME:   0.006 TIME LEFT:  2.00D  GRAD.:     1.311 HEAT: -33.42336
 CYCLE:    33 TIME:   0.004 TIME LEFT:  2.00D  GRAD.:     1.287 HEAT: -33.42654
 CYCLE:    34 TIME:   0.006 TIME LEFT:  2.00D  GRAD.:     0.998 HEAT: -33.42989
 CYCLE:    35 TIME:   0.004 TIME LEFT:  2.00D  GRAD.:     0.797 HEAT: -33.43248
 CYCLE:    36 TIME:   0.006 TIME LEFT:  2.00D  GRAD.:     0.740 HEAT: -33.43419
 CYCLE:    37 TIME:   0.006 TIME LEFT:  2.00D  GRAD.:     0.655 HEAT: -33.43525
 CYCLE:    38 TIME:   0.004 TIME LEFT:  2.00D  GRAD.:     0.561 HEAT: -33.43628
 CYCLE:    39 TIME:   0.006 TIME LEFT:  2.00D  GRAD.:     0.525 HEAT: -33.43711
 CYCLE:    40 TIME:   0.006 TIME LEFT:  2.00D  GRAD.:     0.610 HEAT: -33.43807
 CYCLE:    41 TIME:   0.006 TIME LEFT:  2.00D  GRAD.:     0.639 HEAT: -33.43883
 CYCLE:    42 TIME:   0.004 TIME LEFT:  2.00D  GRAD.:     0.636 HEAT: -33.43984
 CYCLE:    43 TIME:   0.006 TIME LEFT:  2.00D  GRAD.:     0.656 HEAT: -33.44102
 CYCLE:    44 TIME:   0.006 TIME LEFT:  2.00D  GRAD.:     0.813 HEAT: -33.44268
 CYCLE:    45 TIME:   0.004 TIME LEFT:  2.00D  GRAD.:     0.829 HEAT: -33.44401
 CYCLE:    46 TIME:   0.080 TIME LEFT:  2.00D  GRAD.:     0.845 HEAT: -33.44621
 CYCLE:    47 TIME:   0.002 TIME LEFT:  2.00D  GRAD.:     0.651 HEAT: -33.44702
 CYCLE:    48 TIME:   0.004 TIME LEFT:  2.00D  GRAD.:     0.850 HEAT: -33.44860
 CYCLE:    49 TIME:   0.004 TIME LEFT:  2.00D  GRAD.:     0.652 HEAT: -33.44928
 CYCLE:    50 TIME:   0.004 TIME LEFT:  2.00D  GRAD.:     0.700 HEAT: -33.45174
 CYCLE:    51 TIME:   0.006 TIME LEFT:  2.00D  GRAD.:     0.702 HEAT: -33.45317
 CYCLE:    52 TIME:   0.029 TIME LEFT:  2.00D  GRAD.:     1.055 HEAT: -33.45710
 CYCLE:    53 TIME:   0.004 TIME LEFT:  2.00D  GRAD.:     0.647 HEAT: -33.45816
 CYCLE:    54 TIME:   0.002 TIME LEFT:  2.00D  GRAD.:     0.433 HEAT: -33.45946
 CYCLE:    55 TIME:   0.012 TIME LEFT:  2.00D  GRAD.:     0.323 HEAT: -33.46036
 CYCLE:    56 TIME:   0.002 TIME LEFT:  2.00D  GRAD.:     0.262 HEAT: -33.46076
 CYCLE:    57 TIME:   0.012 TIME LEFT:  2.00D  GRAD.:     0.183 HEAT: -33.46083
 CYCLE:    58 TIME:   0.004 TIME LEFT:  2.00D  GRAD.:     0.489 HEAT: -33.46076
 CYCLE:    59 TIME:   0.020 TIME LEFT:  2.00D  GRAD.:     0.103 HEAT: -33.46102
 CYCLE:    60 TIME:   0.008 TIME LEFT:  2.00D  GRAD.:     0.090 HEAT: -33.46105
 CYCLE:    61 TIME:   0.004 TIME LEFT:  2.00D  GRAD.:     0.181 HEAT: -33.46111
 CYCLE:    62 TIME:   0.006 TIME LEFT:  2.00D  GRAD.:     0.174 HEAT: -33.46123
 CYCLE:    63 TIME:   0.004 TIME LEFT:  2.00D  GRAD.:     0.371 HEAT: -33.46161
 CYCLE:    64 TIME:   0.004 TIME LEFT:  2.00D  GRAD.:     0.182 HEAT: -33.46185
 CYCLE:    65 TIME:   0.004 TIME LEFT:  2.00D  GRAD.:     0.128 HEAT: -33.46187
 CYCLE:    66 TIME:   0.004 TIME LEFT:  2.00D  GRAD.:     0.174 HEAT: -33.46209
 CYCLE:    67 TIME:   0.004 TIME LEFT:  2.00D  GRAD.:     0.095 HEAT: -33.46213
 CYCLE:    68 TIME:   0.004 TIME LEFT:  2.00D  GRAD.:     0.170 HEAT: -33.46225
 CYCLE:    69 TIME:   0.006 TIME LEFT:  2.00D  GRAD.:     0.121 HEAT: -33.46230
 CYCLE:    70 TIME:   0.008 TIME LEFT:  2.00D  GRAD.:     0.059 HEAT: -33.46231
 CYCLE:    71 TIME:   0.004 TIME LEFT:  2.00D  GRAD.:     0.116 HEAT: -33.46234
 CYCLE:    72 TIME:   0.004 TIME LEFT:  2.00D  GRAD.:     0.054 HEAT: -33.46235
 CYCLE:    73 TIME:   0.004 TIME LEFT:  2.00D  GRAD.:     0.100 HEAT: -33.46236
 CYCLE:    74 TIME:   0.004 TIME LEFT:  2.00D  GRAD.:     0.036 HEAT: -33.46236
 CYCLE:    75 TIME:   0.004 TIME LEFT:  2.00D  GRAD.:     0.037 HEAT: -33.46236
 CYCLE:    76 TIME:   0.002 TIME LEFT:  2.00D  GRAD.:     0.025 HEAT: -33.46236
 CYCLE:    77 TIME:   0.006 TIME LEFT:  2.00D  GRAD.:     0.024 HEAT: -33.46236
 CYCLE:    78 TIME:   0.004 TIME LEFT:  2.00D  GRAD.:     0.021 HEAT: -33.46236
 CYCLE:    79 TIME:   0.004 TIME LEFT:  2.00D  GRAD.:     0.030 HEAT: -33.46236
 CYCLE:    80 TIME:   0.002 TIME LEFT:  2.00D  GRAD.:     0.025 HEAT: -33.46237
 CYCLE:    81 TIME:   0.004 TIME LEFT:  2.00D  GRAD.:     0.023 HEAT: -33.46237
 CYCLE:    82 TIME:   0.004 TIME LEFT:  2.00D  GRAD.:     0.024 HEAT: -33.46238
 CYCLE:    83 TIME:   0.004 TIME LEFT:  2.00D  GRAD.:     0.024 HEAT: -33.46238
 CYCLE:    84 TIME:   0.004 TIME LEFT:  2.00D  GRAD.:     0.021 HEAT: -33.46238
 CYCLE:    85 TIME:   0.004 TIME LEFT:  2.00D  GRAD.:     0.019 HEAT: -33.46239
 CYCLE:    86 TIME:   0.002 TIME LEFT:  2.00D  GRAD.:     0.019 HEAT: -33.46239
 CYCLE:    87 TIME:   0.004 TIME LEFT:  2.00D  GRAD.:     0.019 HEAT: -33.46239
 CYCLE:    88 TIME:   0.004 TIME LEFT:  2.00D  GRAD.:     0.017 HEAT: -33.46239
 CYCLE:    89 TIME:   0.006 TIME LEFT:  2.00D  GRAD.:     0.014 HEAT: -33.46239
 CYCLE:    90 TIME:   0.002 TIME LEFT:  2.00D  GRAD.:     0.021 HEAT: -33.46239
 CYCLE:    91 TIME:   0.004 TIME LEFT:  2.00D  GRAD.:     0.017 HEAT: -33.46239
 CYCLE:    92 TIME:   0.004 TIME LEFT:  2.00D  GRAD.:     0.032 HEAT: -33.46238
 CYCLE:    93 TIME:   0.004 TIME LEFT:  2.00D  GRAD.:     0.014 HEAT: -33.46238
 CYCLE:    94 TIME:   0.004 TIME LEFT:  2.00D  GRAD.:     0.013 HEAT: -33.46238
 CYCLE:    95 TIME:   0.004 TIME LEFT:  2.00D  GRAD.:     0.015 HEAT: -33.46238


 HEAT OF FORMATION IS ESSENTIALLY STATIONARY

 -------------------------------------------------------------------------------
 AUX LARGE CHARGE=0 SINGLET  PM7 GNORM=0.0
 2-metylbutan (konf.3)



     GEOMETRY OPTIMISED USING EIGENVECTOR FOLLOWING (EF).     
     SCF FIELD WAS ACHIEVED                                   


                              PM7 CALCULATION
                                                       MOPAC2016 (Version: 20.225L)
                                                       Thu Nov 12 09:03:01 2020
                                                       No. of days remaining = 274




          FINAL HEAT OF FORMATION =        -33.46238 KCAL/MOL =    -140.00660 KJ/MOL


          TOTAL ENERGY            =       -776.87224 EV
          ELECTRONIC ENERGY       =      -3464.25929 EV  POINT GROUP:     C1  
          CORE-CORE REPULSION     =       2687.38706 EV
          COSMO AREA              =        131.99 SQUARE ANGSTROMS
          COSMO VOLUME            =        124.12 CUBIC ANGSTROMS

          GRADIENT NORM           =          0.01450 = 0.00352 PER ATOM
          IONIZATION POTENTIAL    =         11.132165 EV
          HOMO LUMO ENERGIES (EV) =        -11.132  4.117
          NO. OF FILLED LEVELS    =         16
          MOLECULAR WEIGHT        =         72.1498

          MOLECULAR DIMENSIONS (Angstroms)

            Atom       Atom       Distance
            H    14    H     3     5.60020
            H     4    H    17     3.97483
            H    12    H    11     2.89648


          SCF CALCULATIONS        =        102
 
          WALL-CLOCK TIME         =          0.633 SECONDS
          COMPUTATION TIME        =          9.658 SECONDS




   ATOM   CHEMICAL          X               Y               Z
  NUMBER   SYMBOL      (ANGSTROMS)     (ANGSTROMS)     (ANGSTROMS)
 
     1       C         -8.70991070  *   0.57891742  *   0.12023776  *
     2       C         -7.35491679  *   1.29706111  *   0.05419898  *
     3       H         -9.47464110  *   1.21744685  *   0.57499384  *
     4       H         -8.64838041  *  -0.33663826  *   0.71742982  *
     5       H         -9.06425770  *   0.30155361  *  -0.87803923  *
     6       H         -7.02380829  *   1.53321157  *   1.09386144  *
     7       C         -7.50076273  *   2.60794876  *  -0.72791908  *
     8       C         -6.30895461  *   0.37410433  *  -0.60155526  *
     9       H         -6.40541194  *  -0.64797750  *  -0.18787456  *
    10       C         -4.88303251  *   0.87952790  *  -0.38170909  *
    11       H         -6.51614967  *   0.28035725  *  -1.68346700  *
    12       H         -4.64783561  *   0.96445881  *   0.68492287  *
    13       H         -4.73235702  *   1.86672347  *  -0.83234718  *
    14       H         -4.14964088  *   0.19936020  *  -0.82862003  *
    15       H         -8.24280837  *   3.26595280  *  -0.26377781  *
    16       H         -7.81976109  *   2.42564164  *  -1.75942862  *
    17       H         -6.55326742  *   3.15558576  *  -0.76756799  *

                             CARTESIAN COORDINATES

   1    C       -8.709910704     0.578917423     0.120237757
   2    C       -7.354916795     1.297061109     0.054198980
   3    H       -9.474641097     1.217446845     0.574993836
   4    H       -8.648380409    -0.336638261     0.717429817
   5    H       -9.064257704     0.301553609    -0.878039227
   6    H       -7.023808286     1.533211570     1.093861440
   7    C       -7.500762728     2.607948760    -0.727919085
   8    C       -6.308954612     0.374104333    -0.601555259
   9    H       -6.405411936    -0.647977498    -0.187874555
  10    C       -4.883032510     0.879527901    -0.381709087
  11    H       -6.516149673     0.280357245    -1.683467003
  12    H       -4.647835613     0.964458806     0.684922866
  13    H       -4.732357016     1.866723465    -0.832347180
  14    H       -4.149640881     0.199360199    -0.828620026
  15    H       -8.242808375     3.265952803    -0.263777805
  16    H       -7.819761088     2.425641639    -1.759428623
  17    H       -6.553267422     3.155585756    -0.767567989


           Empirical Formula: C5 H12  =    17 atoms



      MOLECULAR POINT GROUP   :   C1  


                  EIGENVALUES  
 -29.30199 -25.82706 -23.83527 -21.30611 -19.10248 -15.92103 -15.26075 -14.83132
 -14.03092 -13.26658 -13.08523 -12.63504 -12.13269 -11.45001 -11.25945 -11.13216
   4.11681   4.28806   4.70216   4.88134   5.68549   5.86531   5.91529   5.97832
   6.00976   6.05646   6.21816   6.44441   6.76731   7.07872   7.10797   7.24002


              NET ATOMIC CHARGES AND DIPOLE CONTRIBUTIONS

  ATOM NO.   TYPE          CHARGE      No. of ELECS.   s-Pop       p-Pop       
    1          C          -0.458649        4.4586     1.05676     3.40189
    2          C          -0.059264        4.0593     1.05720     3.00206
    3          H           0.143046        0.8570     0.85695
    4          H           0.140979        0.8590     0.85902
    5          H           0.144347        0.8557     0.85565
    6          H           0.128942        0.8711     0.87106
    7          C          -0.452833        4.4528     1.05587     3.39696
    8          C          -0.267769        4.2678     1.05960     3.20817
    9          H           0.133771        0.8662     0.86623
   10          C          -0.438082        4.4381     1.05191     3.38617
   11          H           0.135888        0.8641     0.86411
   12          H           0.141409        0.8586     0.85859
   13          H           0.142654        0.8573     0.85735
   14          H           0.139332        0.8607     0.86067
   15          H           0.140604        0.8594     0.85940
   16          H           0.143462        0.8565     0.85654
   17          H           0.142162        0.8578     0.85784
 DIPOLE           X         Y         Z       TOTAL
 POINT-CHG.     0.009    -0.016     0.036     0.040
 HYBRID        -0.029     0.030    -0.090     0.099
 SUM           -0.020     0.015    -0.054     0.060


          ATOMIC ORBITAL ELECTRON POPULATIONS

     Atom    s        px        py        pz   
    1  C   1.05676   1.08203   1.14555   1.17431
    2  C   1.05720   0.96580   0.96466   1.07161
    3  H   0.85695
    4  H   0.85902
    5  H   0.85565
    6  H   0.87106
    7  C   1.05587   1.16864   1.08345   1.14487
    8  C   1.05960   0.98621   1.08697   1.13499
    9  H   0.86623
   10  C   1.05191   1.05738   1.15942   1.16936
   11  H   0.86411
   12  H   0.85859
   13  H   0.85735
   14  H   0.86067
   15  H   0.85940
   16  H   0.85654
   17  H   0.85784

 **********************
 *                    *
 * JOB ENDED NORMALLY *
 *                    *
 **********************



 TOTAL JOB TIME:             0.64 SECONDS

 == MOPAC DONE ==
