

 Parallel Execution: Process Information
 ==============================================================================
 Rank   Node Name                              NodeID   MyNodeRank  NodeMaster
    0   adf1                                      0          0          0
    1   adf1                                      0          1         -1
    2   adf1                                      0          2         -1
    3   adf1                                      0          3         -1
    4   adf1                                      0          4         -1
    5   adf1                                      0          5         -1
    6   adf1                                      0          6         -1
    7   adf1                                      0          7         -1
    8   adf1                                      0          8         -1
    9   adf1                                      0          9         -1
   10   adf1                                      0         10         -1
   11   adf1                                      0         11         -1
 ==============================================================================


May use up to 22932MB of RAM as shared memory on node 0

 *******************************************************************************
 *                                                                             *
 *  --------------------------------                                           *
 *   Amsterdam Modeling Suite (AMS)              2020.202                      *
 *  --------------------------------                                           *
 *                                               r90167 2020-12-05             *
 *                                                                             *
 *                                                                             *
 *                              =================                              *
 *                              |               |                              *
 *                              |     A M S     |                              *
 *                              |               |                              *
 *                              =================                              *
 *                                                                             *
 *                                                                             *
 *   Online information and documentation:  https://www.scm.com/support/       *
 *   E-mail:  support@scm.com   info@scm.com                                   *
 *                                                                             *
 *   Scientific publications using AMS results must be properly referenced     *
 *   See the User Manuals (or the web site) for recommended citations          *
 *   The terms and conditions of the End User License Agreement apply to       *
 *   the use of AMS, https://www.scm.com/license-terms/                        *
 *                                                                             *
 **********************  x86_64_linux_intel / intelmpi  ************************
 
 Licensed to: Dr. Miroslav Ilias / Matej Bel University, Department Chemistry, Fac. Natural Sciences / Banska Bystrica / SLOVAKIA
 SCM User ID: u17848
  
 AMS 2020.202  RunTime: Feb15-2021 17:03:53  Nodes: 1  Procs: 12

 AMS jobname: ams
 AMS jobid  : 1409031953

 Start   directory: /home/milias/Work/projects/open-collection/theoretical_chemistry/projects/nmr_diplomovky/reference_compounds/phosphoric_acid/ams/pbe0_tz2p_good/cosmo-h2o/tmp.milias.9140.0.noindex/
 Results directory: /home/milias/Work/projects/open-collection/theoretical_chemistry/projects/nmr_diplomovky/reference_compounds/phosphoric_acid/ams/pbe0_tz2p_good/cosmo-h2o/phosporic_acid.geopt_freq_nmrshield_pbe0_tz2p_good_cosmo-h2o.results/
 Scratch directory: /tmp/amstmp_ams_kid0.1409031953/


 Communication costs MPI_COMM_WORLD:      2.804 usec per message,   0.0283 usec per 8-byte item
 Communication costs for intra-node:      2.777 usec per message,   0.0271 usec per 8-byte item

 RNG seed: 643919695 -2100202330 -1553918859 885318484 1277266691 -1467174812 -1428557973 2094018576



                       *********************************************************************
                       *  ADF 2020.202  RunTime: Feb15-2021 17:03:54  Nodes: 1  Procs: 12  *
                       *********************************************************************
  
       ***************************
       *  GEOMETRY OPTIMIZATION  *
       ***************************

Optimization Method                    Quasi Newton
Optimization Coordinates               Delocalized Coordinates
Optimize lattice                       F
 
 ------------------------------------------------------
 Convergence criteria (Hartree,Angstrom)
 ------------------------------------------------------
 Maximum gradient               0.001000000000
 Maximum rms gradient           0.000666666667
 Maximum step allowed           0.001000000000
 Maximum rms step allowed       0.000666666667
 Maximum energy change allowe   0.000080000000
 Maximum stress energy allowe   0.000500000000
 
Initial model Hessian                  Automatic Hessian
 
------------------------------------
Quasi-Newton Optimizer Parameters
------------------------------------
Hessian Update Method                  BFGS
Maximum number of steps                  250
First GDIIS cycle                          0
Maximum GDIIS vectors                      0
Trust radius (bohr)                        0.200000
Trust radius varies                        T
Constraints converged at all steps         T
Use projector                              T
 
 Rigid motions settings for: old optimizer
 Atomic rotations (x,y,z):     T T T
 Atomic translations (x,y,z):  T T T
 Tolerance:                   1.000000000000000E-006
 
--------
Geometry
--------
Atoms
  Index Symbol   x (angstrom)   y (angstrom)   z (angstrom)
      1      P     0.00000000     0.00000000    -0.15932346       adf.R=1.850
      2      O    -1.40453350    -0.33270748     0.56103178       adf.R=1.517
      3      O     0.99039988    -1.05000795     0.56103178       adf.R=1.517
      4      O     0.41413362     1.38271543     0.56103178       adf.R=1.517
      5      O     0.00000000     0.00000000    -1.64028745       adf.R=1.517
      6      H    -2.15786567     0.00156081     0.03883853       adf.R=1.350
      7      H     1.07758113    -1.86954689     0.03883853       adf.R=1.350
      8      H     1.08028453     1.86798608     0.03883853       adf.R=1.350
 
Total System Charge             0.00000
Bonding info available!
 
 
----------------
ADF Engine Input
----------------
 
 Basis
 Type TZ2P
 Core None
 End
 Save TAPE10
 XC
 Hybrid PBE0
 End
 Relativity
 Level None
 End
 Solvation
 Surf Delley
 Solv name=Water cav0=0.0 cav1=0.0067639
 Charged method=CONJ
 C-Mat POT
 SCF VAR ALL
 CSMRSP
 End
 NumericalQuality Good
 

 Title: *** (NO TITLE) ***

Number of symmetry operators: 3
Schoenflies symbol:           C(3)
 Using automatic Hessian for delocalized coordinates.
 *** GOStep1 ***

 SOLVATION
-------------------------------------------

  The Delley construction of COSMO surface surface is calculated

       Division Level for Surface Triangles (NDIV)                  3
       Final Division Level for Triangles (NFDIV)                   1
       Radius of the Solvent (RSOL)                           1.93000 angstr
  Dielectric Constant (EPSL)                                 78.39000

       COSMO equation is solved iteratively-               conjugate-gradient

       Maximun of Iterations for Charges (NCIX)                  1000
       Criterion for Charge convergence (CCNV)                1.0E-08

  COSMO charges included variationally in SCF

       COSMO included at every SCF cycle

  Geometry-dependent empirical factor                         0.00000

  C-Matrix calculated in cspmtx

  In cspmtx, C-Matrix calculated using fitted potential

-------------------------------------------



 -------------------------------------------
  COSMO surface
  Area             =          351.260
  Volume           =          509.601
  Number of Points =          984
 -------------------------------------------



 ======================
 RI Hartree-Fock Scheme
 ======================
  
 Fit Set Quality     : GOOD
 Integration Quality : GOOD
 Threshold Quality   : GOOD
 Response Quality    : DEFAULT
 Is Range Separated  :  F
 
 RIHartreeFock Dependency: number of modified vectors:           3
 cosmo_calcen: 0.5 (esolb+esolc) (Hartrees) =   -0.028360

 Solvation energy (screening term,uncorrected) =    -17.796177 kcal/mol

 Solvation energy (dispersion and cavitation terms) =      0.656828 kcal/mol
 Solvation Energy Contributions (Hartrees)
          esola   esolb+esolc
     0.02836001   -0.05672002
 esol last cycle   -0.02836001
  
 Hartree-Fock exchange energy:   -56.7504097156510     
 cosmo_calcen: 0.5 (esolb+esolc) (Hartrees) =   -0.028360

 Solvation energy (screening term,uncorrected) =    -17.796179 kcal/mol

 Solvation energy (dispersion and cavitation terms) =      0.656828 kcal/mol
 Solvation Energy Contributions (Hartrees)
          esola   esolb+esolc
     0.02836001   -0.05672003
 esol last cycle   -0.02836001
  pauli hf:                              1.166657813409220         31.7464           732.09          3063.06
  elstat hf:                            -0.790082512430399        -21.4992          -495.78         -2074.36

 Energy gradients wrt nuclear displacements
 ==========================================

     Atom      Cartesian (a.u./angstrom)
                 X         Y         Z
 ----------------------------------------
     1 P    -0.000153 -0.000071 -0.034971
     2 O    -0.026782 -0.015103  0.033763
     3 O     0.026469 -0.015670  0.033756
     4 O     0.000387  0.030686  0.033790
     5 O     0.000004  0.000005 -0.035648
     6 H    -0.012133  0.005649 -0.010274
     7 H     0.001290 -0.013217 -0.010199
     8 H     0.010918  0.007721 -0.010218
 ----------------------------------------
 Mulliken charges used for AMS results%charges...
 
----------------------------------------------------------------------
Geometry Convergence after Step   1       (Hartree/Angstrom,Angstrom)
----------------------------------------------------------------------
current energy                               -2.26046210 Hartree
energy change                      -2.26046210     0.00008000    F
constrained gradient max            0.03564831     0.00100000    F
constrained gradient rms            0.01999626     0.00066667    F
gradient max                        0.03564831
gradient rms                        0.01999626
cart. step max                      0.02478974     0.00100000    F
cart. step rms                      0.01231417     0.00066667    F
 
 
--------
Geometry
--------
Atoms
  Index Symbol   x (angstrom)   y (angstrom)   z (angstrom)
      1      P    -0.00000000     0.00000000    -0.15133306       adf.R=1.850
      2      O    -1.38696996    -0.33390412     0.54999148       adf.R=1.517
      3      O     0.98265443    -1.03419916     0.54999148       adf.R=1.517
      4      O     0.40431553     1.36810328     0.54999148       adf.R=1.517
      5      O    -0.00000000     0.00000000    -1.61549771       adf.R=1.517
      6      H    -2.13456047     0.00503084     0.03895212       adf.R=1.350
      7      H     1.06292340    -1.85109902     0.03895212       adf.R=1.350
      8      H     1.07163707     1.84606817     0.03895212       adf.R=1.350
 
Total System Charge             0.00000
Bonding info available!
 
 *** GOStep2 ***

 SOLVATION
-------------------------------------------

  The Delley construction of COSMO surface surface is calculated

       Division Level for Surface Triangles (NDIV)                  3
       Final Division Level for Triangles (NFDIV)                   1
       Radius of the Solvent (RSOL)                           1.93000 angstr
  Dielectric Constant (EPSL)                                 78.39000

       COSMO equation is solved iteratively-               conjugate-gradient

       Maximun of Iterations for Charges (NCIX)                  1000
       Criterion for Charge convergence (CCNV)                1.0E-08

  COSMO charges included variationally in SCF

       COSMO included at every SCF cycle

  Geometry-dependent empirical factor                         0.00000

  C-Matrix calculated in cspmtx

  In cspmtx, C-Matrix calculated using fitted potential

-------------------------------------------



 -------------------------------------------
  COSMO surface
  Area             =          348.008
  Volume           =          504.200
  Number of Points =          976
 -------------------------------------------



 ======================
 RI Hartree-Fock Scheme
 ======================
  
 Fit Set Quality     : GOOD
 Integration Quality : GOOD
 Threshold Quality   : GOOD
 Response Quality    : DEFAULT
 Is Range Separated  :  F
 
 RIHartreeFock Dependency: number of modified vectors:           3
 cosmo_calcen: 0.5 (esolb+esolc) (Hartrees) =   -0.028189

 Solvation energy (screening term,uncorrected) =    -17.688890 kcal/mol

 Solvation energy (dispersion and cavitation terms) =      0.650749 kcal/mol
 Solvation Energy Contributions (Hartrees)
          esola   esolb+esolc
     0.02818904   -0.05637807
 esol last cycle   -0.02818904
  
 Hartree-Fock exchange energy:   -56.8216929371484     
 cosmo_calcen: 0.5 (esolb+esolc) (Hartrees) =   -0.028189

 Solvation energy (screening term,uncorrected) =    -17.688889 kcal/mol

 Solvation energy (dispersion and cavitation terms) =      0.650749 kcal/mol
 Solvation Energy Contributions (Hartrees)
          esola   esolb+esolc
     0.02818904   -0.05637807
 esol last cycle   -0.02818904
  pauli hf:                              1.159470403979959         31.5508           727.58          3044.19
  elstat hf:                            -0.821417057194848        -22.3519          -515.45         -2156.63

 Energy gradients wrt nuclear displacements
 ==========================================

     Atom      Cartesian (a.u./angstrom)
                 X         Y         Z
 ----------------------------------------
     1 P    -0.000141 -0.000107 -0.037102
     2 O    -0.012440 -0.004944  0.013269
     3 O     0.010504 -0.008316  0.013235
     4 O     0.002010  0.013209  0.013336
     5 O     0.000001  0.000013  0.007362
     6 H     0.000813  0.001221 -0.003401
     7 H    -0.001363  0.000198 -0.003344
     8 H     0.000617 -0.001274 -0.003355
 ----------------------------------------
 Mulliken charges used for AMS results%charges...

 dE(predicted):    -0.22127E-02, dE(actual):    -0.27364E-02, Trust radius:    0.200000, all in a.u.
 
----------------------------------------------------------------------
Geometry Convergence after Step   2       (Hartree/Angstrom,Angstrom)
----------------------------------------------------------------------
current energy                               -2.26319854 Hartree
energy change                      -0.00273645     0.00008000    F
constrained gradient max            0.03710210     0.00100000    F
constrained gradient rms            0.01028159     0.00066667    F
gradient max                        0.03710210
gradient rms                        0.01028159
cart. step max                      0.01024831     0.00100000    F
cart. step rms                      0.00575266     0.00066667    F
 
 
--------
Geometry
--------
Atoms
  Index Symbol   x (angstrom)   y (angstrom)   z (angstrom)
      1      P    -0.00000000    -0.00000000    -0.14647938       adf.R=1.850
      2      O    -1.37880394    -0.33683425     0.53974317       adf.R=1.517
      3      O     0.98110898    -1.02566211     0.53974317       adf.R=1.517
      4      O     0.39769495     1.36249636     0.53974317       adf.R=1.517
      5      O    -0.00000000    -0.00000000    -1.61334646       adf.R=1.517
      6      H    -2.13303283     0.00820854     0.04686545       adf.R=1.350
      7      H     1.05940761    -1.85136489     0.04686545       adf.R=1.350
      8      H     1.07362522     1.84315635     0.04686545       adf.R=1.350
 
Total System Charge             0.00000
Bonding info available!
 
 *** GOStep3 ***

 SOLVATION
-------------------------------------------

  The Delley construction of COSMO surface surface is calculated

       Division Level for Surface Triangles (NDIV)                  3
       Final Division Level for Triangles (NFDIV)                   1
       Radius of the Solvent (RSOL)                           1.93000 angstr
  Dielectric Constant (EPSL)                                 78.39000

       COSMO equation is solved iteratively-               conjugate-gradient

       Maximun of Iterations for Charges (NCIX)                  1000
       Criterion for Charge convergence (CCNV)                1.0E-08

  COSMO charges included variationally in SCF

       COSMO included at every SCF cycle

  Geometry-dependent empirical factor                         0.00000

  C-Matrix calculated in cspmtx

  In cspmtx, C-Matrix calculated using fitted potential

-------------------------------------------



 -------------------------------------------
  COSMO surface
  Area             =          347.546
  Volume           =          502.968
  Number of Points =          973
 -------------------------------------------



 ======================
 RI Hartree-Fock Scheme
 ======================
  
 Fit Set Quality     : GOOD
 Integration Quality : GOOD
 Threshold Quality   : GOOD
 Response Quality    : DEFAULT
 Is Range Separated  :  F
 
 RIHartreeFock Dependency: number of modified vectors:           3
 cosmo_calcen: 0.5 (esolb+esolc) (Hartrees) =   -0.028779

 Solvation energy (screening term,uncorrected) =    -18.059068 kcal/mol

 Solvation energy (dispersion and cavitation terms) =      0.649884 kcal/mol
 Solvation Energy Contributions (Hartrees)
          esola   esolb+esolc
     0.02877895   -0.05755791
 esol last cycle   -0.02877895
  
 Hartree-Fock exchange energy:   -56.8464773149411     
 cosmo_calcen: 0.5 (esolb+esolc) (Hartrees) =   -0.028779

 Solvation energy (screening term,uncorrected) =    -18.059067 kcal/mol

 Solvation energy (dispersion and cavitation terms) =      0.649884 kcal/mol
 Solvation Energy Contributions (Hartrees)
          esola   esolb+esolc
     0.02877895   -0.05755790
 esol last cycle   -0.02877895
  pauli hf:                              1.148722092338485         31.2583           720.83          3015.97
  elstat hf:                            -0.832618768267153        -22.6567          -522.48         -2186.04

 Energy gradients wrt nuclear displacements
 ==========================================

     Atom      Cartesian (a.u./angstrom)
                 X         Y         Z
 ----------------------------------------
     1 P    -0.000095 -0.000097 -0.007683
     2 O    -0.000964 -0.000081  0.001801
     3 O     0.000554 -0.000824  0.001806
     4 O     0.000446  0.000851  0.001827
     5 O    -0.000002  0.000011  0.005418
     6 H     0.002519 -0.000138 -0.001100
     7 H    -0.001045  0.002359 -0.001052
     8 H    -0.001413 -0.002081 -0.001017
 ----------------------------------------
 Mulliken charges used for AMS results%charges...

 dE(predicted):    -0.44836E-03, dE(actual):    -0.49076E-03, Trust radius:    0.200000, all in a.u.
 
----------------------------------------------------------------------
Geometry Convergence after Step   3       (Hartree/Angstrom,Angstrom)
----------------------------------------------------------------------
current energy                               -2.26368930 Hartree
energy change                      -0.00049076     0.00008000    F
constrained gradient max            0.00768309     0.00100000    F
constrained gradient rms            0.00227065     0.00066667    F
gradient max                        0.00768309
gradient rms                        0.00227065
cart. step max                      0.00886578     0.00100000    F
cart. step rms                      0.00472757     0.00066667    F
 
 
--------
Geometry
--------
Atoms
  Index Symbol   x (angstrom)   y (angstrom)   z (angstrom)
      1      P    -0.00000000    -0.00000000    -0.15004384       adf.R=1.850
      2      O    -1.37739082    -0.34024963     0.53403060       adf.R=1.517
      3      O     0.98336023    -1.02273063     0.53403060       adf.R=1.517
      4      O     0.39403059     1.36298026     0.53403060       adf.R=1.517
      5      O    -0.00000000    -0.00000000    -1.61924164       adf.R=1.517
      6      H    -2.13869563     0.01066120     0.05573123       adf.R=1.350
      7      H     1.06011494    -1.85749535     0.05573123       adf.R=1.350
      8      H     1.07858068     1.84683415     0.05573123       adf.R=1.350
 
Total System Charge             0.00000
Bonding info available!
 
 *** GOStep4 ***

 SOLVATION
-------------------------------------------

  The Delley construction of COSMO surface surface is calculated

       Division Level for Surface Triangles (NDIV)                  3
       Final Division Level for Triangles (NFDIV)                   1
       Radius of the Solvent (RSOL)                           1.93000 angstr
  Dielectric Constant (EPSL)                                 78.39000

       COSMO equation is solved iteratively-               conjugate-gradient

       Maximun of Iterations for Charges (NCIX)                  1000
       Criterion for Charge convergence (CCNV)                1.0E-08

  COSMO charges included variationally in SCF

       COSMO included at every SCF cycle

  Geometry-dependent empirical factor                         0.00000

  C-Matrix calculated in cspmtx

  In cspmtx, C-Matrix calculated using fitted potential

-------------------------------------------



 -------------------------------------------
  COSMO surface
  Area             =          347.554
  Volume           =          502.882
  Number of Points =          972
 -------------------------------------------



 ======================
 RI Hartree-Fock Scheme
 ======================
  
 Fit Set Quality     : GOOD
 Integration Quality : GOOD
 Threshold Quality   : GOOD
 Response Quality    : DEFAULT
 Is Range Separated  :  F
 
 RIHartreeFock Dependency: number of modified vectors:           3
 cosmo_calcen: 0.5 (esolb+esolc) (Hartrees) =   -0.029113

 Solvation energy (screening term,uncorrected) =    -18.268605 kcal/mol

 Solvation energy (dispersion and cavitation terms) =      0.649900 kcal/mol
 Solvation Energy Contributions (Hartrees)
          esola   esolb+esolc
     0.02911287   -0.05822575
 esol last cycle   -0.02911287
  
 Hartree-Fock exchange energy:   -56.8459376938603     
 cosmo_calcen: 0.5 (esolb+esolc) (Hartrees) =   -0.029113

 Solvation energy (screening term,uncorrected) =    -18.268606 kcal/mol

 Solvation energy (dispersion and cavitation terms) =      0.649900 kcal/mol
 Solvation Energy Contributions (Hartrees)
          esola   esolb+esolc
     0.02911287   -0.05822575
 esol last cycle   -0.02911287
  pauli hf:                              1.145199179535165         31.1625           718.62          3006.72
  elstat hf:                            -0.832129918070315        -22.6434          -522.17         -2184.76

 Energy gradients wrt nuclear displacements
 ==========================================

     Atom      Cartesian (a.u./angstrom)
                 X         Y         Z
 ----------------------------------------
     1 P     0.000000 -0.000100  0.000889
     2 O     0.000608  0.000329  0.000122
     3 O    -0.000617  0.000331  0.000136
     4 O     0.000014 -0.000738  0.000155
     5 O     0.000002  0.000006  0.000765
     6 H     0.000830 -0.000132 -0.000732
     7 H    -0.000186  0.000898 -0.000704
     8 H    -0.000651 -0.000594 -0.000632
 ----------------------------------------
 Mulliken charges used for AMS results%charges...

 dE(predicted):    -0.56000E-04, dE(actual):    -0.78783E-04, Trust radius:    0.200000, all in a.u.
 
----------------------------------------------------------------------
Geometry Convergence after Step   4       (Hartree/Angstrom,Angstrom)
----------------------------------------------------------------------
current energy                               -2.26376809 Hartree
energy change                      -0.00007878     0.00008000    T
constrained gradient max            0.00088920     0.00100000    T
constrained gradient rms            0.00052676     0.00066667    T
gradient max                        0.00088920
gradient rms                        0.00052676
cart. step max                      0.01135264     0.00100000    F
cart. step rms                      0.00588090     0.00066667    F
 
 
--------
Geometry
--------
Atoms
  Index Symbol   x (angstrom)   y (angstrom)   z (angstrom)
      1      P    -0.00000000    -0.00000000    -0.15744942       adf.R=1.850
      2      O    -1.37539701    -0.34563360     0.52791974       adf.R=1.517
      3      O     0.98702598    -1.01831195     0.52791974       adf.R=1.517
      4      O     0.38837103     1.36394555     0.52791974       adf.R=1.517
      5      O    -0.00000000    -0.00000000    -1.62756140       adf.R=1.517
      6      H    -2.14334742     0.01446904     0.06708387       adf.R=1.350
      7      H     1.05914315    -1.86342783     0.06708387       adf.R=1.350
      8      H     1.08420427     1.84895879     0.06708387       adf.R=1.350
 
Total System Charge             0.00000
Bonding info available!
 
 *** GOStep5 ***

 SOLVATION
-------------------------------------------

  The Delley construction of COSMO surface surface is calculated

       Division Level for Surface Triangles (NDIV)                  3
       Final Division Level for Triangles (NFDIV)                   1
       Radius of the Solvent (RSOL)                           1.93000 angstr
  Dielectric Constant (EPSL)                                 78.39000

       COSMO equation is solved iteratively-               conjugate-gradient

       Maximun of Iterations for Charges (NCIX)                  1000
       Criterion for Charge convergence (CCNV)                1.0E-08

  COSMO charges included variationally in SCF

       COSMO included at every SCF cycle

  Geometry-dependent empirical factor                         0.00000

  C-Matrix calculated in cspmtx

  In cspmtx, C-Matrix calculated using fitted potential

-------------------------------------------



 -------------------------------------------
  COSMO surface
  Area             =          347.690
  Volume           =          503.004
  Number of Points =          974
 -------------------------------------------



 ======================
 RI Hartree-Fock Scheme
 ======================
  
 Fit Set Quality     : GOOD
 Integration Quality : GOOD
 Threshold Quality   : GOOD
 Response Quality    : DEFAULT
 Is Range Separated  :  F
 
 RIHartreeFock Dependency: number of modified vectors:           3
 cosmo_calcen: 0.5 (esolb+esolc) (Hartrees) =   -0.029350

 Solvation energy (screening term,uncorrected) =    -18.417217 kcal/mol

 Solvation energy (dispersion and cavitation terms) =      0.650153 kcal/mol
 Solvation Energy Contributions (Hartrees)
          esola   esolb+esolc
     0.02934970   -0.05869940
 esol last cycle   -0.02934970
  
 Hartree-Fock exchange energy:   -56.8442809608807     
 cosmo_calcen: 0.5 (esolb+esolc) (Hartrees) =   -0.029350

 Solvation energy (screening term,uncorrected) =    -18.417217 kcal/mol

 Solvation energy (dispersion and cavitation terms) =      0.650153 kcal/mol
 Solvation Energy Contributions (Hartrees)
          esola   esolb+esolc
     0.02934970   -0.05869940
 esol last cycle   -0.02934970
  pauli hf:                              1.142983725799313         31.1022           717.23          3000.90
  elstat hf:                            -0.831060172064255        -22.6143          -521.50         -2181.95

 Energy gradients wrt nuclear displacements
 ==========================================

     Atom      Cartesian (a.u./angstrom)
                 X         Y         Z
 ----------------------------------------
     1 P     0.000002 -0.000093  0.002709
     2 O     0.000746  0.000450 -0.000297
     3 O    -0.000753  0.000390 -0.000297
     4 O     0.000053 -0.000908 -0.000235
     5 O     0.000005  0.000002 -0.001438
     6 H    -0.000342 -0.000175 -0.000185
     7 H     0.000405 -0.000092 -0.000144
     8 H    -0.000114  0.000426 -0.000112
 ----------------------------------------
 Mulliken charges used for AMS results%charges...

 dE(predicted):    -0.27833E-04, dE(actual):    -0.31446E-04, Trust radius:    0.200000, all in a.u.
 
----------------------------------------------------------------------
Geometry Convergence after Step   5       (Hartree/Angstrom,Angstrom)
----------------------------------------------------------------------
current energy                               -2.26379953 Hartree
energy change                      -0.00003145     0.00008000    T
constrained gradient max            0.00270919     0.00100000    F
constrained gradient rms            0.00072141     0.00066667    F
gradient max                        0.00270919
gradient rms                        0.00072141
cart. step max                      0.00412357     0.00100000    F
cart. step rms                      0.00234645     0.00066667    F
 
 
--------
Geometry
--------
Atoms
  Index Symbol   x (angstrom)   y (angstrom)   z (angstrom)
      1      P    -0.00000000    -0.00000000    -0.16042438       adf.R=1.850
      2      O    -1.37459791    -0.34893758     0.52564024       adf.R=1.517
      3      O     0.98948776    -1.01596792     0.52564024       adf.R=1.517
      4      O     0.38511014     1.36490550     0.52564024       adf.R=1.517
      5      O    -0.00000000    -0.00000000    -1.63011866       adf.R=1.517
      6      H    -2.14365445     0.01672016     0.07120744       adf.R=1.350
      7      H     1.05734714    -1.86481929     0.07120744       adf.R=1.350
      8      H     1.08630731     1.84809913     0.07120744       adf.R=1.350
 
Total System Charge             0.00000
Bonding info available!
 
 *** GOStep6 ***

 SOLVATION
-------------------------------------------

  The Delley construction of COSMO surface surface is calculated

       Division Level for Surface Triangles (NDIV)                  3
       Final Division Level for Triangles (NFDIV)                   1
       Radius of the Solvent (RSOL)                           1.93000 angstr
  Dielectric Constant (EPSL)                                 78.39000

       COSMO equation is solved iteratively-               conjugate-gradient

       Maximun of Iterations for Charges (NCIX)                  1000
       Criterion for Charge convergence (CCNV)                1.0E-08

  COSMO charges included variationally in SCF

       COSMO included at every SCF cycle

  Geometry-dependent empirical factor                         0.00000

  C-Matrix calculated in cspmtx

  In cspmtx, C-Matrix calculated using fitted potential

-------------------------------------------



 -------------------------------------------
  COSMO surface
  Area             =          347.633
  Volume           =          502.964
  Number of Points =          976
 -------------------------------------------



 ======================
 RI Hartree-Fock Scheme
 ======================
  
 Fit Set Quality     : GOOD
 Integration Quality : GOOD
 Threshold Quality   : GOOD
 Response Quality    : DEFAULT
 Is Range Separated  :  F
 
 RIHartreeFock Dependency: number of modified vectors:           3
 cosmo_calcen: 0.5 (esolb+esolc) (Hartrees) =   -0.029381

 Solvation energy (screening term,uncorrected) =    -18.436954 kcal/mol

 Solvation energy (dispersion and cavitation terms) =      0.650048 kcal/mol
 Solvation Energy Contributions (Hartrees)
          esola   esolb+esolc
     0.02938115   -0.05876231
 esol last cycle   -0.02938115
  
 Hartree-Fock exchange energy:   -56.8440023021876     
 cosmo_calcen: 0.5 (esolb+esolc) (Hartrees) =   -0.029381

 Solvation energy (screening term,uncorrected) =    -18.436955 kcal/mol

 Solvation energy (dispersion and cavitation terms) =      0.650048 kcal/mol
 Solvation Energy Contributions (Hartrees)
          esola   esolb+esolc
     0.02938115   -0.05876231
 esol last cycle   -0.02938115
  pauli hf:                              1.142962364945104         31.1016           717.22          3000.85
  elstat hf:                            -0.830838543203729        -22.6083          -521.36         -2181.37

 Energy gradients wrt nuclear displacements
 ==========================================

     Atom      Cartesian (a.u./angstrom)
                 X         Y         Z
 ----------------------------------------
     1 P    -0.000002 -0.000091  0.001081
     2 O     0.000255  0.000315 -0.000217
     3 O    -0.000412  0.000021 -0.000205
     4 O     0.000200 -0.000425 -0.000152
     5 O     0.000005  0.000001 -0.000652
     6 H    -0.000318 -0.000157  0.000020
     7 H     0.000394 -0.000067  0.000045
     8 H    -0.000122  0.000403  0.000080
 ----------------------------------------
 Mulliken charges used for AMS results%charges...

 dE(predicted):    -0.43407E-05, dE(actual):    -0.28541E-05, Trust radius:    0.200000, all in a.u.
 
----------------------------------------------------------------------
Geometry Convergence after Step   6       (Hartree/Angstrom,Angstrom)
----------------------------------------------------------------------
current energy                               -2.26380239 Hartree
energy change                      -0.00000285     0.00008000    T
constrained gradient max            0.00108124     0.00100000    F
constrained gradient rms            0.00033516     0.00066667    T
gradient max                        0.00108124
gradient rms                        0.00033516
cart. step max                      0.00388525     0.00100000    F
cart. step rms                      0.00230953     0.00066667    F
 
 
--------
Geometry
--------
Atoms
  Index Symbol   x (angstrom)   y (angstrom)   z (angstrom)
      1      P    -0.00000000    -0.00000000    -0.16279322       adf.R=1.850
      2      O    -1.37368123    -0.35282283     0.52364898       adf.R=1.517
      3      O     0.99239415    -1.01323143     0.52364898       adf.R=1.517
      4      O     0.38128708     1.36605426     0.52364898       adf.R=1.517
      5      O    -0.00000000    -0.00000000    -1.63208718       adf.R=1.517
      6      H    -2.14272669     0.01935352     0.07464450       adf.R=1.350
      7      H     1.05460271    -1.86533251     0.07464450       adf.R=1.350
      8      H     1.08812398     1.84597899     0.07464450       adf.R=1.350
 
Total System Charge             0.00000
Bonding info available!
 
 *** GOStep7 ***

 SOLVATION
-------------------------------------------

  The Delley construction of COSMO surface surface is calculated

       Division Level for Surface Triangles (NDIV)                  3
       Final Division Level for Triangles (NFDIV)                   1
       Radius of the Solvent (RSOL)                           1.93000 angstr
  Dielectric Constant (EPSL)                                 78.39000

       COSMO equation is solved iteratively-               conjugate-gradient

       Maximun of Iterations for Charges (NCIX)                  1000
       Criterion for Charge convergence (CCNV)                1.0E-08

  COSMO charges included variationally in SCF

       COSMO included at every SCF cycle

  Geometry-dependent empirical factor                         0.00000

  C-Matrix calculated in cspmtx

  In cspmtx, C-Matrix calculated using fitted potential

-------------------------------------------



 -------------------------------------------
  COSMO surface
  Area             =          347.411
  Volume           =          502.736
  Number of Points =          976
 -------------------------------------------



 ======================
 RI Hartree-Fock Scheme
 ======================
  
 Fit Set Quality     : GOOD
 Integration Quality : GOOD
 Threshold Quality   : GOOD
 Response Quality    : DEFAULT
 Is Range Separated  :  F
 
 RIHartreeFock Dependency: number of modified vectors:           3
 cosmo_calcen: 0.5 (esolb+esolc) (Hartrees) =   -0.029393

 Solvation energy (screening term,uncorrected) =    -18.444411 kcal/mol

 Solvation energy (dispersion and cavitation terms) =      0.649632 kcal/mol
 Solvation Energy Contributions (Hartrees)
          esola   esolb+esolc
     0.02939304   -0.05878607
 esol last cycle   -0.02939304
  
 Hartree-Fock exchange energy:   -56.8439998932501     
 cosmo_calcen: 0.5 (esolb+esolc) (Hartrees) =   -0.029393

 Solvation energy (screening term,uncorrected) =    -18.444412 kcal/mol

 Solvation energy (dispersion and cavitation terms) =      0.649632 kcal/mol
 Solvation Energy Contributions (Hartrees)
          esola   esolb+esolc
     0.02939304   -0.05878608
 esol last cycle   -0.02939304
  pauli hf:                              1.143398550015313         31.1135           717.49          3001.99
  elstat hf:                            -0.830838722939536        -22.6083          -521.36         -2181.37

 Energy gradients wrt nuclear displacements
 ==========================================

     Atom      Cartesian (a.u./angstrom)
                 X         Y         Z
 ----------------------------------------
     1 P     0.000006 -0.000086 -0.000391
     2 O    -0.000085  0.000098 -0.000056
     3 O    -0.000064 -0.000166 -0.000048
     4 O     0.000188 -0.000023  0.000002
     5 O     0.000005  0.000001  0.000134
     6 H    -0.000091 -0.000074  0.000090
     7 H     0.000206  0.000092  0.000114
     8 H    -0.000167  0.000158  0.000154
 ----------------------------------------
 Mulliken charges used for AMS results%charges...

 dE(predicted):    -0.29343E-05, dE(actual):     0.23752E-05, Trust radius:    0.020000, all in a.u.
 
----------------------------------------------------------------------
Geometry Convergence after Step   7       (Hartree/Angstrom,Angstrom)
----------------------------------------------------------------------
current energy                               -2.26380001 Hartree
energy change                       0.00000238     0.00008000    T
constrained gradient max            0.00039098     0.00100000    T
constrained gradient rms            0.00012700     0.00066667    T
gradient max                        0.00039098
gradient rms                        0.00012700
cart. step max                      0.00124505     0.00100000    F
cart. step rms                      0.00061730     0.00066667    T
 
 
--------
Geometry
--------
Atoms
  Index Symbol   x (angstrom)   y (angstrom)   z (angstrom)
      1      P    -0.00000000    -0.00000000    -0.16289629       adf.R=1.850
      2      O    -1.37349922    -0.35406788     0.52325653       adf.R=1.517
      3      O     0.99338139    -1.01245127     0.52325653       adf.R=1.517
      4      O     0.38011782     1.36651915     0.52325653       adf.R=1.517
      5      O    -0.00000000    -0.00000000    -1.63218030       adf.R=1.517
      6      H    -2.14207944     0.02017583     0.07510234       adf.R=1.350
      7      H     1.05356694    -1.86518313     0.07510234       adf.R=1.350
      8      H     1.08851251     1.84500730     0.07510234       adf.R=1.350
 
Total System Charge             0.00000
Bonding info available!
 
 *** GOStep8 ***

 SOLVATION
-------------------------------------------

  The Delley construction of COSMO surface surface is calculated

       Division Level for Surface Triangles (NDIV)                  3
       Final Division Level for Triangles (NFDIV)                   1
       Radius of the Solvent (RSOL)                           1.93000 angstr
  Dielectric Constant (EPSL)                                 78.39000

       COSMO equation is solved iteratively-               conjugate-gradient

       Maximun of Iterations for Charges (NCIX)                  1000
       Criterion for Charge convergence (CCNV)                1.0E-08

  COSMO charges included variationally in SCF

       COSMO included at every SCF cycle

  Geometry-dependent empirical factor                         0.00000

  C-Matrix calculated in cspmtx

  In cspmtx, C-Matrix calculated using fitted potential

-------------------------------------------



 -------------------------------------------
  COSMO surface
  Area             =          347.383
  Volume           =          502.706
  Number of Points =          978
 -------------------------------------------



 ======================
 RI Hartree-Fock Scheme
 ======================
  
 Fit Set Quality     : GOOD
 Integration Quality : GOOD
 Threshold Quality   : GOOD
 Response Quality    : DEFAULT
 Is Range Separated  :  F
 
 RIHartreeFock Dependency: number of modified vectors:           3
 cosmo_calcen: 0.5 (esolb+esolc) (Hartrees) =   -0.029396

 Solvation energy (screening term,uncorrected) =    -18.446076 kcal/mol

 Solvation energy (dispersion and cavitation terms) =      0.649580 kcal/mol
 Solvation Energy Contributions (Hartrees)
          esola   esolb+esolc
     0.02939569   -0.05879138
 esol last cycle   -0.02939569
  
 Hartree-Fock exchange energy:   -56.8440058886584     
 cosmo_calcen: 0.5 (esolb+esolc) (Hartrees) =   -0.029396

 Solvation energy (screening term,uncorrected) =    -18.446076 kcal/mol

 Solvation energy (dispersion and cavitation terms) =      0.649580 kcal/mol
 Solvation Energy Contributions (Hartrees)
          esola   esolb+esolc
     0.02939569   -0.05879138
 esol last cycle   -0.02939569
  pauli hf:                              1.143669720501910         31.1208           717.66          3002.70
  elstat hf:                            -0.830890370907834        -22.6097          -521.39         -2181.50

 Energy gradients wrt nuclear displacements
 ==========================================

     Atom      Cartesian (a.u./angstrom)
                 X         Y         Z
 ----------------------------------------
     1 P     0.000012 -0.000089 -0.000355
     2 O    -0.000079 -0.000027 -0.000022
     3 O     0.000039 -0.000097 -0.000022
     4 O     0.000075  0.000040  0.000039
     5 O     0.000005  0.000002  0.000191
     6 H    -0.000026  0.000005  0.000026
     7 H     0.000101  0.000107  0.000050
     8 H    -0.000127  0.000059  0.000093
 ----------------------------------------
 Mulliken charges used for AMS results%charges...

 dE(predicted):    -0.43431E-06, dE(actual):     0.16759E-05, Trust radius:    0.020000, all in a.u.
 
---------------------------------------------------------
Geometry Convergence after Step   8       ** CONVERGED **
---------------------------------------------------------
current energy                               -2.26379833 Hartree
energy change                       0.00000168     0.00008000    T
constrained gradient max            0.00035527     0.00100000    T
constrained gradient rms            0.00009340     0.00066667    T
gradient max                        0.00035527
gradient rms                        0.00009340
cart. step max                      0.00026751     0.00100000    T
cart. step rms                      0.00014103     0.00066667    T
 
Geometry optimization converged

Optimized geometry:
 
--------
Geometry
--------
Atoms
  Index Symbol   x (angstrom)   y (angstrom)   z (angstrom)
      1      P    -0.00000000    -0.00000000    -0.16289629       adf.R=1.850
      2      O    -1.37349922    -0.35406788     0.52325653       adf.R=1.517
      3      O     0.99338139    -1.01245127     0.52325653       adf.R=1.517
      4      O     0.38011782     1.36651915     0.52325653       adf.R=1.517
      5      O    -0.00000000    -0.00000000    -1.63218030       adf.R=1.517
      6      H    -2.14207944     0.02017583     0.07510234       adf.R=1.350
      7      H     1.05356694    -1.86518313     0.07510234       adf.R=1.350
      8      H     1.08851251     1.84500730     0.07510234       adf.R=1.350
 
Total System Charge             0.00000
Bonding info available!
 
Performing a single point calculation on the final geometry ...

 *** adf ***



 ===========================
 A T T A C H E D   F I L E S
 ===========================
  
 Restart/tmp/amstmp_ams_kid0.1409031953/GOStep8.rkf*** GOStep8 ***



 ===============================
 M O D E L   P A R A M E T E R S
 ===============================
  
 DENSITY FUNCTIONAL POTENTIAL (scf)
    Hybrid:                            PBE0                                    == Not Default ==

 SPIN  (restricted / unrestr.)
    Molecule:                          Restricted                               
    Fragments:                         Restricted                               

 OTHER ASPECTS
    Relativistic Corrections:          ---                                     == Not Default ==

    Nuclear Charge Density Model:      Point Charge Nuclei                      
    Core Treatment:                    Frozen Orbital(s)                        

    Hyperfine or Zeeman Interaction:   ---                                      

 SOLVATION
-------------------------------------------

  The Delley construction of COSMO surface surface is calculated

       Division Level for Surface Triangles (NDIV)                  3
       Final Division Level for Triangles (NFDIV)                   1
       Radius of the Solvent (RSOL)                           1.93000 angstr
  Dielectric Constant (EPSL)                                 78.39000

       COSMO equation is solved iteratively-               conjugate-gradient

       Maximun of Iterations for Charges (NCIX)                  1000
       Criterion for Charge convergence (CCNV)                1.0E-08

  COSMO charges included variationally in SCF

       COSMO included at every SCF cycle

  Geometry-dependent empirical factor                         0.00000

  C-Matrix calculated in cspmtx

  In cspmtx, C-Matrix calculated using fitted potential

-------------------------------------------




 ===============
 G E O M E T R Y  ***  3D  Molecule  ***
 ===============
  

 ATOMS
 =====                            X Y Z                    CHARGE                     RADIUS
                                (Angstrom)             Nucl     +Core       At.Mass (Angstrom)
                       --------------------------    ----------------       ------- ----------
    1  P              -0.0000   -0.0000   -0.1629     15.00     15.00       30.9738    1.8500
    2  O              -1.3735   -0.3541    0.5233      8.00      8.00       15.9949    1.5170
    3  O               0.9934   -1.0125    0.5233      8.00      8.00       15.9949    1.5170
    4  O               0.3801    1.3665    0.5233      8.00      8.00       15.9949    1.5170
    5  O              -0.0000   -0.0000   -1.6322      8.00      8.00       15.9949    1.5170
    6  H              -2.1421    0.0202    0.0751      1.00      1.00        1.0078    1.3500
    7  H               1.0536   -1.8652    0.0751      1.00      1.00        1.0078    1.3500
    8  H               1.0885    1.8450    0.0751      1.00      1.00        1.0078    1.3500


 FRAGMENTS
 =========                                     Atoms in this Fragment     Cart. coord.s (Angstrom)
                                               -------------------------------------------------------
    1  P                                                 1  P           -0.0000   -0.0000   -0.1629
    2  O                                                 2  O           -1.3735   -0.3541    0.5233
    3  O                                                 3  O            0.9934   -1.0125    0.5233
    4  O                                                 4  O            0.3801    1.3665    0.5233
    5  O                                                 5  O           -0.0000   -0.0000   -1.6322
    6  H                                                 6  H           -2.1421    0.0202    0.0751
    7  H                                                 7  H            1.0536   -1.8652    0.0751
    8  H                                                 8  H            1.0885    1.8450    0.0751


 Interatomic Distance Matrix (Angstrom)
 --------------------------------------

   1)     0.000
   2)     1.576   0.000
   3)     1.576   2.457   0.000
   4)     1.576   2.457   2.457   0.000
   5)     1.469   2.580   2.580   2.580   0.000
   6)     2.155   0.965   3.331   2.894   2.739   0.000
   7)     2.155   2.894   0.965   3.331   2.739   3.710   0.000
   8)     2.155   3.331   2.894   0.965   2.739   3.710   3.710   0.000

 Min. Distance =    0.9652
 Max. Distance =    3.7104



 =====================================
 S Y M M E T R Y ,   E L E C T R O N S
 =====================================
  
 Symmetry: NOSYM

 Irreducible Representations, including subspecies
 -------------------------------------------------
 A

 Symmetry is NOT used when fitting density


 Configuration of Valence Electrons
 ==================================
 ( determined in the SCF procedure )

 Total:   50

 Net Charge: 0 (Nuclei minus Electrons)

 Aufbau principle for MO occupations will be applied through SCF cycle no.     150
 Thereafter, the program will assign electrons to MOs that are spatially
 similar to the occupied MOs in a "reference" cycle ("KeepOrbitals").
 The reference cycle is always the PREVIOUS cycle: it will evolve with
 the SCF procedure.
1
 ***************************************************************************************************



                                      ****************************************
                                      *  B U I L D : (Fragments, Functions)  *
                                      ****************************************
  



 =======
 S F O s  ***  (Symmetrized Fragment Orbitals)  ***
 =======
  
 SFOs are linear combinations of (valence) Fragment Orbitals (FOs), such that the SFOs transform as the
 irreducible representations of the (molecular) symmetry group. Each SFO is therefore characterized by
 an irrep of the molecule and by a few (or only one) generating FOs.
 The SFOs constitute a symmetry-adapted basis for the Fock matrix. The MO eigenvector coefficients in
 this basis provide a direct interpretation of the MOs in terms of Frontier Orbital Theory.

 The SFOs are combined with auxiliary Core Functions (CFs) to ensure orthogonalization on the (frozen)
 Core Orbitals (COs). The Core-orthogonalized SFOs (CSFOs) constitute the true Fock basis.

 The FOs, and hence also the (C)SFOs are combinations of the elementary basis functions (BAS). The basis
 functions that participate in the description of the SFOs depend on the irrep. The indices of the
 involved functions are printed below for each irrep.
 (The complete list of primitive basis functions is printed in another section)

 Total nr. of (C)SFOs (summation over all irreps) :   171

 NOTE: a (C)SFO that is defined as a combination of more than one FO is usually NOT normalized.



                                       === A ===
 Nr. of SFOs :  171
 Cartesian basis functions that participate in this irrep (total number =   194) :
      1     2     3     4    11    12    13     5     8    14
     17    20     6     9    15    18    21     7    10    16
     19    22    23    24    25    26    27    28    29    30
     31    32    33    34    35    36    37    38    39    40
     41    42    43    44    47    50    45    48    51    46
     49    52    53    54    55    56    57    58    59    60
     61    62    63    64    65    66    67    68    69    70
     71    72    73    74    77    80    75    78    81    76
     79    82    83    84    85    86    87    88    89    90
     91    92    93    94    95    96    97    98    99   100
    101   102   103   104   107   110   105   108   111   106
    109   112   113   114   115   116   117   118   119   120
    121   122   123   124   125   126   127   128   129   130
    131   132   133   134   137   140   135   138   141   136
    139   142   143   144   145   146   147   148   149   150
    151   152   153   154   155   156   157   158   159   160
    161   162   163   164   165   166   167   168   169   170
    171   172   173   174   175   176   177   178   179   180
    181   182   183   184   185   186   187   188   189   190
    191   192   193   194

    SFO  (index         Fragment          Generating    Expansion in Fragment Orbitals
  indx  incl.CFs)   Occup   Orb.Energy   FragmentType  Coeff.   Orbital     on Fragment
 --------------------------------------------------------------------------------------
     1       1      2.000     -77.285 au  P             1.00      1 S               1
                        (   -2103.045 eV)
     2       2      2.000      -6.676 au  P             1.00      2 S               1
                        (    -181.657 eV)
     3       3      2.000      -0.577 au  P             1.00      3 S               1
                        (     -15.702 eV)
     4       4       --         0.141 au  P             1.00      4 S               1
                        (       3.844 eV)
     5       5       --         1.386 au  P             1.00      5 S               1
                        (      37.721 eV)
     6       6       --         9.539 au  P             1.00      6 S               1
                        (     259.574 eV)
     7       7       --       165.272 au  P             1.00      7 S               1
                        (    4497.267 eV)
     8       8      2.000      -4.807 au  P             1.00      1 P:x             1
                        (    -130.803 eV)
     9       9      1.000      -0.208 au  P             1.00      2 P:x             1
                        (      -5.669 eV)
    10      10       --         0.107 au  P             1.00      3 P:x             1
                        (       2.910 eV)
    11      11       --         0.924 au  P             1.00      4 P:x             1
                        (      25.147 eV)
    12      12       --        10.562 au  P             1.00      5 P:x             1
                        (     287.399 eV)
    13      13      2.000      -4.807 au  P             1.00      1 P:y             1
                        (    -130.803 eV)
    14      14      1.000      -0.208 au  P             1.00      2 P:y             1
                        (      -5.669 eV)
    15      15       --         0.107 au  P             1.00      3 P:y             1
                        (       2.910 eV)
    16      16       --         0.924 au  P             1.00      4 P:y             1
                        (      25.147 eV)
    17      17       --        10.562 au  P             1.00      5 P:y             1
                        (     287.399 eV)
    18      18      2.000      -4.807 au  P             1.00      1 P:z             1
                        (    -130.803 eV)
    19      19      1.000      -0.208 au  P             1.00      2 P:z             1
                        (      -5.669 eV)
    20      20       --         0.107 au  P             1.00      3 P:z             1
                        (       2.910 eV)
    21      21       --         0.924 au  P             1.00      4 P:z             1
                        (      25.147 eV)
    22      22       --        10.562 au  P             1.00      5 P:z             1
                        (     287.399 eV)
    23      23       --         0.439 au  P             1.00      1 D:z2            1
                        (      11.944 eV)
    24      24       --         0.439 au  P             1.00      1 D:x2-y2         1
                        (      11.944 eV)
    25      25       --         0.439 au  P             1.00      1 D:xy            1
                        (      11.944 eV)
    26      26       --         0.439 au  P             1.00      1 D:xz            1
                        (      11.944 eV)
    27      27       --         0.439 au  P             1.00      1 D:yz            1
                        (      11.944 eV)
    28      28       --         1.211 au  P             1.00      1 F:z3            1
                        (      32.944 eV)
    29      29       --         1.211 au  P             1.00      1 F:z             1
                        (      32.944 eV)
    30      30       --         1.211 au  P             1.00      1 F:xyz           1
                        (      32.944 eV)
    31      31       --         1.211 au  P             1.00      1 F:z2x           1
                        (      32.944 eV)
    32      32       --         1.211 au  P             1.00      1 F:z2y           1
                        (      32.944 eV)
    33      33       --         1.211 au  P             1.00      1 F:x             1
                        (      32.944 eV)
    34      34       --         1.211 au  P             1.00      1 F:y             1
                        (      32.944 eV)
    35      35      2.000     -19.382 au  O             1.00      1 S               2
                        (    -527.413 eV)
    36      36      2.000      -0.998 au  O             1.00      2 S               2
                        (     -27.149 eV)
    37      37       --         0.858 au  O             1.00      3 S               2
                        (      23.351 eV)
    38      38       --        13.707 au  O             1.00      4 S               2
                        (     372.994 eV)
    39      39       --       123.922 au  O             1.00      5 S               2
                        (    3372.077 eV)
    40      40      1.333      -0.366 au  O             1.00      1 P:x             2
                        (      -9.963 eV)
    41      41       --         0.397 au  O             1.00      2 P:x             2
                        (      10.809 eV)
    42      42       --         3.984 au  O             1.00      3 P:x             2
                        (     108.415 eV)
    43      43      1.333      -0.366 au  O             1.00      1 P:y             2
                        (      -9.963 eV)
    44      44       --         0.397 au  O             1.00      2 P:y             2
                        (      10.809 eV)
    45      45       --         3.984 au  O             1.00      3 P:y             2
                        (     108.415 eV)
    46      46      1.333      -0.366 au  O             1.00      1 P:z             2
                        (      -9.963 eV)
    47      47       --         0.397 au  O             1.00      2 P:z             2
                        (      10.809 eV)
    48      48       --         3.984 au  O             1.00      3 P:z             2
                        (     108.415 eV)
    49      49       --         1.128 au  O             1.00      1 D:z2            2
                        (      30.700 eV)
    50      50       --         1.128 au  O             1.00      1 D:x2-y2         2
                        (      30.700 eV)
    51      51       --         1.128 au  O             1.00      1 D:xy            2
                        (      30.700 eV)
    52      52       --         1.128 au  O             1.00      1 D:xz            2
                        (      30.700 eV)
    53      53       --         1.128 au  O             1.00      1 D:yz            2
                        (      30.700 eV)
    54      54       --         3.446 au  O             1.00      1 F:z3            2
                        (      93.778 eV)
    55      55       --         3.446 au  O             1.00      1 F:z             2
                        (      93.778 eV)
    56      56       --         3.446 au  O             1.00      1 F:xyz           2
                        (      93.778 eV)
    57      57       --         3.446 au  O             1.00      1 F:z2x           2
                        (      93.778 eV)
    58      58       --         3.446 au  O             1.00      1 F:z2y           2
                        (      93.778 eV)
    59      59       --         3.446 au  O             1.00      1 F:x             2
                        (      93.778 eV)
    60      60       --         3.446 au  O             1.00      1 F:y             2
                        (      93.778 eV)
    61      61      2.000     -19.382 au  O             1.00      1 S               3
                        (    -527.413 eV)
    62      62      2.000      -0.998 au  O             1.00      2 S               3
                        (     -27.149 eV)
    63      63       --         0.858 au  O             1.00      3 S               3
                        (      23.351 eV)
    64      64       --        13.707 au  O             1.00      4 S               3
                        (     372.994 eV)
    65      65       --       123.922 au  O             1.00      5 S               3
                        (    3372.077 eV)
    66      66      1.333      -0.366 au  O             1.00      1 P:x             3
                        (      -9.963 eV)
    67      67       --         0.397 au  O             1.00      2 P:x             3
                        (      10.809 eV)
    68      68       --         3.984 au  O             1.00      3 P:x             3
                        (     108.415 eV)
    69      69      1.333      -0.366 au  O             1.00      1 P:y             3
                        (      -9.963 eV)
    70      70       --         0.397 au  O             1.00      2 P:y             3
                        (      10.809 eV)
    71      71       --         3.984 au  O             1.00      3 P:y             3
                        (     108.415 eV)
    72      72      1.333      -0.366 au  O             1.00      1 P:z             3
                        (      -9.963 eV)
    73      73       --         0.397 au  O             1.00      2 P:z             3
                        (      10.809 eV)
    74      74       --         3.984 au  O             1.00      3 P:z             3
                        (     108.415 eV)
    75      75       --         1.128 au  O             1.00      1 D:z2            3
                        (      30.700 eV)
    76      76       --         1.128 au  O             1.00      1 D:x2-y2         3
                        (      30.700 eV)
    77      77       --         1.128 au  O             1.00      1 D:xy            3
                        (      30.700 eV)
    78      78       --         1.128 au  O             1.00      1 D:xz            3
                        (      30.700 eV)
    79      79       --         1.128 au  O             1.00      1 D:yz            3
                        (      30.700 eV)
    80      80       --         3.446 au  O             1.00      1 F:z3            3
                        (      93.778 eV)
    81      81       --         3.446 au  O             1.00      1 F:z             3
                        (      93.778 eV)
    82      82       --         3.446 au  O             1.00      1 F:xyz           3
                        (      93.778 eV)
    83      83       --         3.446 au  O             1.00      1 F:z2x           3
                        (      93.778 eV)
    84      84       --         3.446 au  O             1.00      1 F:z2y           3
                        (      93.778 eV)
    85      85       --         3.446 au  O             1.00      1 F:x             3
                        (      93.778 eV)
    86      86       --         3.446 au  O             1.00      1 F:y             3
                        (      93.778 eV)
    87      87      2.000     -19.382 au  O             1.00      1 S               4
                        (    -527.413 eV)
    88      88      2.000      -0.998 au  O             1.00      2 S               4
                        (     -27.149 eV)
    89      89       --         0.858 au  O             1.00      3 S               4
                        (      23.351 eV)
    90      90       --        13.707 au  O             1.00      4 S               4
                        (     372.994 eV)
    91      91       --       123.922 au  O             1.00      5 S               4
                        (    3372.077 eV)
    92      92      1.333      -0.366 au  O             1.00      1 P:x             4
                        (      -9.963 eV)
    93      93       --         0.397 au  O             1.00      2 P:x             4
                        (      10.809 eV)
    94      94       --         3.984 au  O             1.00      3 P:x             4
                        (     108.415 eV)
    95      95      1.333      -0.366 au  O             1.00      1 P:y             4
                        (      -9.963 eV)
    96      96       --         0.397 au  O             1.00      2 P:y             4
                        (      10.809 eV)
    97      97       --         3.984 au  O             1.00      3 P:y             4
                        (     108.415 eV)
    98      98      1.333      -0.366 au  O             1.00      1 P:z             4
                        (      -9.963 eV)
    99      99       --         0.397 au  O             1.00      2 P:z             4
                        (      10.809 eV)
   100     100       --         3.984 au  O             1.00      3 P:z             4
                        (     108.415 eV)
   101     101       --         1.128 au  O             1.00      1 D:z2            4
                        (      30.700 eV)
   102     102       --         1.128 au  O             1.00      1 D:x2-y2         4
                        (      30.700 eV)
   103     103       --         1.128 au  O             1.00      1 D:xy            4
                        (      30.700 eV)
   104     104       --         1.128 au  O             1.00      1 D:xz            4
                        (      30.700 eV)
   105     105       --         1.128 au  O             1.00      1 D:yz            4
                        (      30.700 eV)
   106     106       --         3.446 au  O             1.00      1 F:z3            4
                        (      93.778 eV)
   107     107       --         3.446 au  O             1.00      1 F:z             4
                        (      93.778 eV)
   108     108       --         3.446 au  O             1.00      1 F:xyz           4
                        (      93.778 eV)
   109     109       --         3.446 au  O             1.00      1 F:z2x           4
                        (      93.778 eV)
   110     110       --         3.446 au  O             1.00      1 F:z2y           4
                        (      93.778 eV)
   111     111       --         3.446 au  O             1.00      1 F:x             4
                        (      93.778 eV)
   112     112       --         3.446 au  O             1.00      1 F:y             4
                        (      93.778 eV)
   113     113      2.000     -19.382 au  O             1.00      1 S               5
                        (    -527.413 eV)
   114     114      2.000      -0.998 au  O             1.00      2 S               5
                        (     -27.149 eV)
   115     115       --         0.858 au  O             1.00      3 S               5
                        (      23.351 eV)
   116     116       --        13.707 au  O             1.00      4 S               5
                        (     372.994 eV)
   117     117       --       123.922 au  O             1.00      5 S               5
                        (    3372.077 eV)
   118     118      1.333      -0.366 au  O             1.00      1 P:x             5
                        (      -9.963 eV)
   119     119       --         0.397 au  O             1.00      2 P:x             5
                        (      10.809 eV)
   120     120       --         3.984 au  O             1.00      3 P:x             5
                        (     108.415 eV)
   121     121      1.333      -0.366 au  O             1.00      1 P:y             5
                        (      -9.963 eV)
   122     122       --         0.397 au  O             1.00      2 P:y             5
                        (      10.809 eV)
   123     123       --         3.984 au  O             1.00      3 P:y             5
                        (     108.415 eV)
   124     124      1.333      -0.366 au  O             1.00      1 P:z             5
                        (      -9.963 eV)
   125     125       --         0.397 au  O             1.00      2 P:z             5
                        (      10.809 eV)
   126     126       --         3.984 au  O             1.00      3 P:z             5
                        (     108.415 eV)
   127     127       --         1.128 au  O             1.00      1 D:z2            5
                        (      30.700 eV)
   128     128       --         1.128 au  O             1.00      1 D:x2-y2         5
                        (      30.700 eV)
   129     129       --         1.128 au  O             1.00      1 D:xy            5
                        (      30.700 eV)
   130     130       --         1.128 au  O             1.00      1 D:xz            5
                        (      30.700 eV)
   131     131       --         1.128 au  O             1.00      1 D:yz            5
                        (      30.700 eV)
   132     132       --         3.446 au  O             1.00      1 F:z3            5
                        (      93.778 eV)
   133     133       --         3.446 au  O             1.00      1 F:z             5
                        (      93.778 eV)
   134     134       --         3.446 au  O             1.00      1 F:xyz           5
                        (      93.778 eV)
   135     135       --         3.446 au  O             1.00      1 F:z2x           5
                        (      93.778 eV)
   136     136       --         3.446 au  O             1.00      1 F:z2y           5
                        (      93.778 eV)
   137     137       --         3.446 au  O             1.00      1 F:x             5
                        (      93.778 eV)
   138     138       --         3.446 au  O             1.00      1 F:y             5
                        (      93.778 eV)
   139     139      1.000      -0.242 au  H             1.00      1 S               6
                        (      -6.582 eV)
   140     140       --         0.113 au  H             1.00      2 S               6
                        (       3.073 eV)
   141     141       --         1.599 au  H             1.00      3 S               6
                        (      43.507 eV)
   142     142       --         0.445 au  H             1.00      1 P:x             6
                        (      12.103 eV)
   143     143       --         0.445 au  H             1.00      1 P:y             6
                        (      12.103 eV)
   144     144       --         0.445 au  H             1.00      1 P:z             6
                        (      12.103 eV)
   145     145       --         2.628 au  H             1.00      1 D:z2            6
                        (      71.513 eV)
   146     146       --         2.628 au  H             1.00      1 D:x2-y2         6
                        (      71.513 eV)
   147     147       --         2.628 au  H             1.00      1 D:xy            6
                        (      71.513 eV)
   148     148       --         2.628 au  H             1.00      1 D:xz            6
                        (      71.513 eV)
   149     149       --         2.628 au  H             1.00      1 D:yz            6
                        (      71.513 eV)
   150     150      1.000      -0.242 au  H             1.00      1 S               7
                        (      -6.582 eV)
   151     151       --         0.113 au  H             1.00      2 S               7
                        (       3.073 eV)
   152     152       --         1.599 au  H             1.00      3 S               7
                        (      43.507 eV)
   153     153       --         0.445 au  H             1.00      1 P:x             7
                        (      12.103 eV)
   154     154       --         0.445 au  H             1.00      1 P:y             7
                        (      12.103 eV)
   155     155       --         0.445 au  H             1.00      1 P:z             7
                        (      12.103 eV)
   156     156       --         2.628 au  H             1.00      1 D:z2            7
                        (      71.513 eV)
   157     157       --         2.628 au  H             1.00      1 D:x2-y2         7
                        (      71.513 eV)
   158     158       --         2.628 au  H             1.00      1 D:xy            7
                        (      71.513 eV)
   159     159       --         2.628 au  H             1.00      1 D:xz            7
                        (      71.513 eV)
   160     160       --         2.628 au  H             1.00      1 D:yz            7
                        (      71.513 eV)
   161     161      1.000      -0.242 au  H             1.00      1 S               8
                        (      -6.582 eV)
   162     162       --         0.113 au  H             1.00      2 S               8
                        (       3.073 eV)
   163     163       --         1.599 au  H             1.00      3 S               8
                        (      43.507 eV)
   164     164       --         0.445 au  H             1.00      1 P:x             8
                        (      12.103 eV)
   165     165       --         0.445 au  H             1.00      1 P:y             8
                        (      12.103 eV)
   166     166       --         0.445 au  H             1.00      1 P:z             8
                        (      12.103 eV)
   167     167       --         2.628 au  H             1.00      1 D:z2            8
                        (      71.513 eV)
   168     168       --         2.628 au  H             1.00      1 D:x2-y2         8
                        (      71.513 eV)
   169     169       --         2.628 au  H             1.00      1 D:xy            8
                        (      71.513 eV)
   170     170       --         2.628 au  H             1.00      1 D:xz            8
                        (      71.513 eV)
   171     171       --         2.628 au  H             1.00      1 D:yz            8
                        (      71.513 eV)



 ================================
 (Slater-type)  F U N C T I O N S  ***  (Basis and Fit)  ***
 ================================
  

 Atom Type    1  (P)
 ==============

 Valence Basis Sets:  14
 -----------------------
   1 S   18.000000
   1 S   13.350000
   2 S    5.600000
   2 S    4.050000
   2 P    7.450000
   2 P    4.100000
   3 S    2.700000
   3 S    1.850000
   3 S    1.300000
   3 P    2.300000
   3 P    1.350000
   3 P    0.850000
   3 D    1.900000
   4 F    2.000000

 Charge Fitting Sets (for the computation of the Coulomb Potential):  30
 -----------------------------------------------------------------------
   1 S   36.000000
   1 S   21.450000
   2 S   23.670000
   2 S   15.860000
   3 S   15.600000
   3 S   11.130000
   3 S    7.940000
   4 S    7.490000
   4 S    5.560000
   4 S    4.130000
   5 S    3.810000
   5 S    2.910000
   5 S    2.230000
   5 S    1.700000
   2 P   25.450000
   3 P   18.490000
   4 P   13.440000
   4 P    7.810000
   5 P    5.730000
   5 P    3.510000
   5 P    2.150000
   3 D   19.350000
   4 D   13.230000
   4 D    7.250000
   5 D    5.040000
   5 D    2.930000
   5 D    1.700000
   4 F    5.000000
   4 F    3.000000
   5 G    3.750000

 Atom Type    2  (O)
 ==============

 Valence Basis Sets:  10
 -----------------------
   1 S    9.800000
   1 S    6.800000
   2 S    7.580000
   2 S    2.880000
   2 S    1.720000
   2 P    4.080000
   2 P    2.080000
   2 P    1.120000
   3 D    2.000000
   4 F    3.000000

 Charge Fitting Sets (for the computation of the Coulomb Potential):  22
 -----------------------------------------------------------------------
   1 S   19.600000
   2 S   22.600000
   2 S   15.680000
   2 S   10.890000
   2 S    7.560000
   3 S    7.690000
   3 S    5.650000
   3 S    4.150000
   3 S    3.050000
   3 S    2.240000
   2 P   12.860000
   2 P    7.680000
   3 P    6.780000
   3 P    4.390000
   3 P    2.840000
   3 D    8.800000
   3 D    5.580000
   3 D    3.530000
   3 D    2.240000
   4 F    6.200000
   4 F    3.700000
   5 G    4.500000

 Atom Type    3  (H)
 ==============

 Valence Basis Sets:   5
 -----------------------
   1 S    0.690000
   1 S    0.920000
   1 S    1.580000
   2 P    1.250000
   3 D    2.500000

 Charge Fitting Sets (for the computation of the Coulomb Potential):  11
 -----------------------------------------------------------------------
   1 S    3.160000
   1 S    2.090000
   1 S    1.380000
   2 S    1.500000
   2 P    4.000000
   2 P    2.650000
   2 P    1.750000
   3 D    4.000000
   3 D    2.500000
   4 F    3.000000
   5 G    4.000000


 BAS: List of all Elementary Cartesian Basis Functions
 =====================================================

 The numbering in the list below (to the right of the function characteristics) is referred
 to in print-outs of MO eigenvectors and Mulliken populations in the BAS representation
 (as contrasted to the SFO representation).

 Notes:
 1. The functions are characterized by a polynomial prefactor (powers of x,y,z and r) and
    an exponential decay factor alpha.
 2. Since the basis sets are specific for an atom TYPE, the individual functions occur on
    all atoms of that type.
 3. The word 'Core' in the left margin signals that it is a Core Function (CF) : not a
    degree of freedom in the valence set, but only used to ensure orthogonalization of
    the other valence basis functions on the frozen Core Orbitals.


 (power of) X  Y  Z  R     Alpha  on Atom
            ==========     =====     ==========

 P                                    1
                                  ---------------------------------------------------------------------------
            0  0  0  0    18.000      1
            0  0  0  0    13.350      2
            0  0  0  1     5.600      3
            0  0  0  1     4.050      4
            1  0  0  0     7.450      5
            0  1  0  0     7.450      6
            0  0  1  0     7.450      7
            1  0  0  0     4.100      8
            0  1  0  0     4.100      9
            0  0  1  0     4.100     10
            0  0  0  2     2.700     11
            0  0  0  2     1.850     12
            0  0  0  2     1.300     13
            1  0  0  1     2.300     14
            0  1  0  1     2.300     15
            0  0  1  1     2.300     16
            1  0  0  1     1.350     17
            0  1  0  1     1.350     18
            0  0  1  1     1.350     19
            1  0  0  1     0.850     20
            0  1  0  1     0.850     21
            0  0  1  1     0.850     22
            2  0  0  0     1.900     23
            1  1  0  0     1.900     24
            1  0  1  0     1.900     25
            0  2  0  0     1.900     26
            0  1  1  0     1.900     27
            0  0  2  0     1.900     28
            3  0  0  0     2.000     29
            2  1  0  0     2.000     30
            2  0  1  0     2.000     31
            1  2  0  0     2.000     32
            1  1  1  0     2.000     33
            1  0  2  0     2.000     34
            0  3  0  0     2.000     35
            0  2  1  0     2.000     36
            0  1  2  0     2.000     37
            0  0  3  0     2.000     38

 O                                    2    3    4    5
[...]
    9   adf1                                      0          9         -1
   10   adf1                                      0         10         -1
   11   adf1                                      0         11         -1
 ==============================================================================


May use up to 22932MB of RAM as shared memory on node 0
 
NMR
    out    iso    tens
    adfgui
    Atoms 1
    u1k best
    calc all
End

 *******************************************************************************
 *                                                                             *
 *  --------------------------------                                           *
 *   Amsterdam Modeling Suite (AMS)              2020.202                      *
 *  --------------------------------                                           *
 *                                               r90167 2020-12-05             *
 *                                                                             *
 *                                                                             *
 *                              =================                              *
 *                              |               |                              *
 *                              |     N M R     |                              *
 *                              |               |                              *
 *                              =================                              *
 *                                                                             *
 *                                                                             *
 *   Online information and documentation:  https://www.scm.com/support/       *
 *   E-mail:  support@scm.com   info@scm.com                                   *
 *                                                                             *
 *   Scientific publications using AMS results must be properly referenced     *
 *   See the User Manuals (or the web site) for recommended citations          *
 *   The terms and conditions of the End User License Agreement apply to       *
 *   the use of AMS, https://www.scm.com/license-terms/                        *
 *                                                                             *
 **********************  x86_64_linux_intel / intelmpi  ************************
 
 Licensed to: Dr. Miroslav Ilias / Matej Bel University, Department Chemistry, Fac. Natural Sciences / Banska Bystrica / SLOVAKIA
 SCM User ID: u17848
  
 NMR 2020.202  RunTime: Feb15-2021 17:30:53  Nodes: 1  Procs: 12

 Temporary files are created in /tmp/kid_0.1366585168 (0xEF53)


 Communication costs MPI_COMM_WORLD:      2.757 usec per message,   0.0274 usec per 8-byte item
 Communication costs for intra-node:      2.697 usec per message,   0.0273 usec per 8-byte item




 ======================
 RI Hartree-Fock Scheme
 ======================
  
 Fit Set Quality     : GOOD
 Integration Quality : GOOD
 Threshold Quality   : GOOD
 Response Quality    : DEFAULT
 Is Range Separated  :  F
 
 RIHartreeFock Dependency: number of modified vectors:           0
                    
                      **********************************    
                      ||******************************||    
                      ||                              ||    
                      ||  ##   ##  ###  ###  ######   ||    
                      ||  ###  ##  ########  ##   ##  ||    
                      ||  #### ##  ## ## ##  ######   ||    
                      ||  ## ####  ##    ##  ## ##    ||    
                      ||  ##  ###  ##    ##  ##  ##   ||    
                      ||  ##   ##  ##    ##  ##   ##  ||    
                      ||                              ||    
                      | ****************************** |    
                      **********************************    
                    
                            Written for ADF by              
                    
                    Stephen K. Wolff & Georg Schreckenbach  
                    
                      The research group of Tom Ziegler     
                            University of Calgary           
                               Alberta, Canada              
                    
                      Speedups, NBO analysis, g-tensors,    
                       full ZORA SO, and other goodies by   
                         Jochen Autschbach, SUNY Buffalo
                    
 =============================
 NMR Chemical shift References
 =============================
  
 Lead:
 G. Schreckenbach, T. Ziegler, J. Phys. Chem. 99 (1995) 606
  
 Speed-ups:
 J. Autschbach, E. Zurek, J. Phys. Chem. A 107 (2003), 4967
  
 Hybrids:
 M. Krykunov, T. Ziegler, E. van Lenthe, Int. J. of Quantum Chem. 109, 1676 (2009)
  
 Spin-orbit coupling:
 S.K. Wolff, T. Ziegler, E. van Lenthe, E.J. Baerends, J. Chem. Phys. 110, 7689 (1999)
 J. Autschbach, Mol. Phys. 111 (2013), 2544
  
 Paramagnetic:
 J. Autschbach, S. Patchkovskii, B. Pritchard, J. Chem. Theory Comput. 7, 2175 (2011)
  
 NBO analysis:
 J. Autschbach, J. Chem. Phys. 128 (2008), 164112
 J. Autschbach, S. Zheng, Magn. Reson. Chem. 46 (2008), S48
  
 Suggested:
 G. Schreckenbach, T. Ziegler, Int. J. Quantum Chem. 60, 753 (1996)
 G. Schreckenbach, T. Ziegler, Int. J. Quantum Chem. 61 (1997) 899
 S.K. Wolff, T. Ziegler, J. Chem. Phys. 109 (1998) 895
  
 =======================
 ESR g-tensor References
 =======================
  
 Lead:
 J. Autschbach, B. Pritchard, Theor. Chem. Acc. 129 (2011), 453
  
 Suggested:
 G. Schreckenbach, T. Ziegler, J. Phys. Chem. A 101, 3388 (1997)
 
################################################################################
 
 
################################################################################
 
 
              <><><><><><><><><><><><><><><><><><><><><><><><><>
 
                 GENERAL ADF INFORMATION:
                 ------------------------
 
                 TITLE:    *** adf ***                                  
 JOB ID:     1409031953
                 NONLXC:                                                
                 SYMMETRY: NOSYM                                        
                  
                 IOPREL:   0
                 ------>  non-rel. (Re MOs)
 
              <><><><><><><><><><><><><><><><><><><><><><><><><>
 
              ==================================================
 
                 NUCLEAR COORDINATES (ANGSTROMS):
                 --------------------------------
 
                 P  (  1):      -0.0000     -0.0000     -0.1629
                 O  (  2):      -1.3735     -0.3541      0.5233
                 O  (  3):       0.9934     -1.0125      0.5233
                 O  (  4):       0.3801      1.3665      0.5233
                 O  (  5):      -0.0000     -0.0000     -1.6322
                 H  (  6):      -2.1421      0.0202      0.0751
                 H  (  7):       1.0536     -1.8652      0.0751
                 H  (  8):       1.0885      1.8450      0.0751
 
              ==================================================
 
              <><><><><><><><><><><><><><><><><><><><><><><><><>
 
                 NUMBERS:
                 --------
 
                 number of electrons:     50.00
 
                 ---   AOs   ---          ---   MOs   ---
                 ncor =     0             nocc =    25
                 nval =   194             nvir =   146
                 nbas =   194             nmo  =   171
                 naos =   194             nsot =   171
              ==================================================
                  
                 --------------------------
                     ATOM TYPE: P                        
                 --------------------------
                 === BASIS
                   1S   18.00     VALENCE
                   1S   13.35     VALENCE
                   2S    5.60     VALENCE
                   2S    4.05     VALENCE
                   2P    7.45     VALENCE
                   2P    4.10     VALENCE
                   3S    2.70     VALENCE
                   3S    1.85     VALENCE
                   3S    1.30     VALENCE
                   3P    2.30     VALENCE
                   3P    1.35     VALENCE
                   3P    0.85     VALENCE
                   3D    1.90     VALENCE
                   4F    2.00     VALENCE
                  
                 --------------------------
                     ATOM TYPE: O                        
                 --------------------------
                 === BASIS
                   1S    9.80     VALENCE
                   1S    6.80     VALENCE
                   2S    7.58     VALENCE
                   2S    2.88     VALENCE
                   2S    1.72     VALENCE
                   2P    4.08     VALENCE
                   2P    2.08     VALENCE
                   2P    1.12     VALENCE
                   3D    2.00     VALENCE
                   4F    3.00     VALENCE
                  
                 --------------------------
                     ATOM TYPE: H                        
                 --------------------------
                 === BASIS
                   1S    0.69     VALENCE
                   1S    0.92     VALENCE
                   1S    1.58     VALENCE
                   2P    1.25     VALENCE
                   3D    2.50     VALENCE
                  
              ==================================================
              <><><><><><><><><><><><><><><><><><><><><><><><><>
 
                 TENSOR INFORMATION:
                 -------------------
 
                              CALC                   U1K
 
                 paramagnetic  = T     mass-velocity = F
                 diamagnetic   = T     Darwin        = F
                 Fermi-cont.   = F     Zeeman        = F
                 ZORA SO       = F     ZORA SO       = F
                 ZORA SCALE    = F     ZORA SO FULL  = F
                 ZORA SO 1C    = F     E IN U1 SCL   = F
 
              <><><><><><><><><><><><><><><><><><><><><><><><><>
 
              <><><><><><><><><><><><><><><><><><><><><><><><><>
 
                 OUTPUT SWITCHES:
                 ----------------
 
                           ISO = T                F1 = F
                          TENS = T                S1 = F
                           EIG = F                U1 = F
                           AOP = F                B1 = F
                           AOD = F                F  = F
                           AOF = F                 S = F
                          INFO = F              REFS = F
 
              <><><><><><><><><><><><><><><><><><><><><><><><><>
 
              --------------------------------------------------
 
                 CALCULATE THE POTENTIAL? F
                  
                 ---> Potential is already on TAPE10.
                      It will not be re-calculated.
 
              --------------------------------------------------



 ===========================
 L I N E A R   S C A L I N G
 ===========================
  

 Overlap cut-off criterion AO matrix elements:     0.1000000000E-07
 ========================
 STARTING A NEW SCF. Step            1
 CRIT   1.00000000000000     
 CRIT   1.00000000000000     
 CRIT   1.00000000000000     
 ========================
 STARTING A NEW SCF. Step            2
 CRIT   2.65239145241077     
 CRIT   2.65591581339733     
 CRIT   2.19060330734857     
 ========================
 STARTING A NEW SCF. Step            3
 CRIT  0.175978240349988     
 CRIT  0.176167258256653     
 CRIT  0.168390204354457     
 ========================
 STARTING A NEW SCF. Step            4
 CRIT  1.110802212055145E-002
 CRIT  1.111368978693896E-002
 CRIT  1.056521870811496E-002
 ========================
 STARTING A NEW SCF. Step            5
 CRIT  7.539473237555229E-004
 CRIT  7.547876742088699E-004
 CRIT  7.434583270752665E-004
 ========================
 STARTING A NEW SCF. Step            6
 CRIT  4.847638503998551E-005
 CRIT  4.857296025733331E-005
 CRIT  5.012184791649011E-005
 ========================
 STARTING A NEW SCF. Step            7
 CRIT  2.600009463641245E-006
 CRIT  2.602229301325930E-006
 CRIT  2.838667317231062E-006
 ========================
 STARTING A NEW SCF. Step            8
 CRIT  1.487300039952258E-007
 CRIT  1.487362995456751E-007
 CRIT  1.702236371198686E-007
################################################################################
********************************************************************************
****  N U C L E U S : P(1)
 
 ADF-GUI atom: P(1)
 Internal NMR numbering of atoms: P(1)
 
 
================================================================================
 
 
===  PARAMAGNETIC NMR SHIELDING TENSORS (ppm)
 
    ===     paramagnetic b^(1) tensor       ===     paramagnetic u^(1) tensor
    -----------------------------------     -----------------------------------
           0.000     0.000     0.000            -615.871     0.005    -0.001
           0.000     0.000     0.000               0.005  -615.868    -0.017
           0.000     0.000     0.000              -0.001    -0.017  -470.901
    -----------------------------------     -----------------------------------
              isotropic =      0.000                  isotropic =   -567.547

    ===     paramagnetic s^(1) tensor       ===     paramagnetic gauge tensor
    -----------------------------------     -----------------------------------
         -76.197     0.003     0.007              -4.082     0.000    -0.001
           0.003   -76.192     0.011               0.000    -4.083     0.000
           0.007     0.011   -46.268              -0.001     0.000    -2.189
    -----------------------------------     -----------------------------------
              isotropic =    -66.219                  isotropic =     -3.452

                        ***********************************
                        CARTESIAN AXIS REPRESENTATION

                        ==== total paramagnetic tensor
                        -----------------------------------
                            -696.150     0.007     0.005
                               0.007  -696.143    -0.006
                               0.005    -0.006  -519.359
                        -----------------------------------
                                  isotropic =   -637.217

                        ***********************************
                        -----------------------------------
                        PRINCIPAL AXIS REPRESENTATION

                        ==== Principal components:

                            -696.155  -696.139  -519.359
 
                        ==== Principal Axis System:

                               0.847     0.531     0.000
                              -0.531     0.847    -0.000
                              -0.000     0.000     1.000
                        -----------------------------------
 
================================================================================
 
 
===  DIAMAGNETIC NMR SHIELDING TENSORS (ppm)
 
    ===       diamagnetic core tensor       ===    diamagnetic valence tensor
    -----------------------------------     -----------------------------------
           0.000     0.000     0.000             960.848    -0.001     0.001
           0.000     0.000     0.000              -0.001   960.847    -0.001
           0.000     0.000     0.000               0.001    -0.001   958.712
    -----------------------------------     -----------------------------------
              isotropic =      0.000                  isotropic =    960.136

                        ***********************************
                        CARTESIAN AXIS REPRESENTATION

                        ==== total diamagnetic tensor
                        -----------------------------------
                             960.848    -0.001     0.001
                              -0.001   960.847    -0.001
                               0.001    -0.001   958.712
                        -----------------------------------
                                  isotropic =    960.136

                        ***********************************
                        -----------------------------------
                        PRINCIPAL AXIS REPRESENTATION

                        ==== Principal components:

                             958.712   960.847   960.848
 
                        ==== Principal Axis System:

                              -0.001     0.677     0.736
                               0.000     0.736    -0.677
                               1.000     0.000     0.001
                        -----------------------------------
 
================================================================================
 
 
===  TOTAL NMR SHIELDING TENSOR (ppm)
 
                        ***********************************
                        CARTESIAN AXIS REPRESENTATION

                        ==== total shielding tensor
                        -----------------------------------
                             264.697     0.007     0.006
                               0.007   264.704    -0.006
                               0.006    -0.006   439.353
                        -----------------------------------
                                  isotropic =    322.918

                        ***********************************
                        -----------------------------------
                        PRINCIPAL AXIS REPRESENTATION

                        ==== Principal components:

                             264.693   264.708   439.353
 
                        ==== Principal Axis System:

                               0.856     0.518     0.000
                              -0.518     0.856    -0.000
                              -0.000     0.000     1.000
                        -----------------------------------
 *******************************************************************************

                             N M R   E X I T
 NORMAL TERMINATION



 =================
 Timing Statistics
 =================
  
 Total Used :                     CPU=       31.31      System=        1.35     Elapsed=       33.64

 Calls  Section                     ( Mean, Percentage )
 ---------------------------------------------------------------------------------------------------
     3  ><      ................      0.00    0.02             0.00    0.15             0.00    0.03
     1  INIT    ................      0.49    1.57             0.02    1.15             0.51    1.51
     1  RDEIGX  ................     17.38   55.51             0.37   27.61            18.27   54.32
     1  AOF1K   ................      0.58    1.84             0.00    0.15             0.59    1.75
     1  AOPKK   ................     12.06   38.52             0.95   70.66            13.37   39.74
     1  XSIGP   ................      0.01    0.02             0.00    0.00             0.01    0.02
     1  AODKKK  ................      0.78    2.51             0.00    0.00             0.88    2.61
     1  XDV     ................      0.00    0.00             0.00    0.00             0.00    0.00
     1  XSIGD   ................      0.00    0.00             0.00    0.00             0.00    0.00
     1  EXIT PROCEDURE .........      0.00    0.01             0.00    0.29             0.01    0.02


 Currently Open Files (EXIT00)
 ====================

 Unit    Access Format  Status   Type       Ident (file)
 -------------------------------------------------------
   3      SEQ    FORM   TRANSP  NORMAL      LOGFILE
                                          ( /home/milias/Work/projects/open-collection/theoretical_chemistry/projects/nmr_diplomovky/reference_compounds/phosphoric_acid/ams/pbe0_tz2p_good/cosmo-h2o/phosporic_acid.geopt_freq_nmrshield_pbe0_tz2p_good_cosmo-h2o.logfile )
