

 Parallel Execution: Process Information
 ==============================================================================
 Rank   Node Name                              NodeID   MyNodeRank  NodeMaster
    0   ubuntu-kch                                0          0          0
    1   ubuntu-kch                                0          1         -1
    2   ubuntu-kch                                0          2         -1
    3   ubuntu-kch                                0          3         -1
 ==============================================================================


May use up to 7570MB of RAM as shared memory on node 0

 *******************************************************************************
 *                                                                             *
 *  --------------------------------                                           *
 *   Amsterdam Modeling Suite (AMS)              2020.202                      *
 *  --------------------------------                                           *
 *                                               r90167 2020-12-05             *
 *                                                                             *
 *                                                                             *
 *                              =================                              *
 *                              |               |                              *
 *                              |     A M S     |                              *
 *                              |               |                              *
 *                              =================                              *
 *                                                                             *
 *                                                                             *
 *   Online information and documentation:  https://www.scm.com/support/       *
 *   E-mail:  support@scm.com   info@scm.com                                   *
 *                                                                             *
 *   Scientific publications using AMS results must be properly referenced     *
 *   See the User Manuals (or the web site) for recommended citations          *
 *   The terms and conditions of the End User License Agreement apply to       *
 *   the use of AMS, https://www.scm.com/license-terms/                        *
 *                                                                             *
 **********************  x86_64_linux_intel / intelmpi  ************************
 
 Licensed to: Dr. Miroslav Ilias / Matej Bel University, Department Chemistry, Fac. Natural Sciences / Banska Bystrica / SLOVAKIA
 SCM User ID: u17848
  
 AMS 2020.202  RunTime: Jan29-2021 21:15:24  Nodes: 1  Procs: 4

 AMS jobname: ams
 AMS jobid  : 603508382

 Start   directory: /home/milias/work/projects/open-collection/theoretical_chemistry/projects/nmr_diplomovky/HD/ams/geomopt/tz2p/m06-2x/tmp.milias.398516.0.noindex/
 Results directory: /home/milias/work/projects/open-collection/theoretical_chemistry/projects/nmr_diplomovky/HD/ams/geomopt/tz2p/m06-2x/HD.geopt_freq_m06-2x_tz2p_cosmo-chcl3.results/
 Scratch directory: /tmp/amstmp_ams_kid0.603508382/


 Communication costs MPI_COMM_WORLD:      0.250 usec per message,   0.0033 usec per 8-byte item
 Communication costs for intra-node:      0.276 usec per message,   0.0033 usec per 8-byte item

 RNG seed: -1961337363 -2084334032 -527196943 -1014356337 -1975082317 -1023908563 -168543166 -1812978009



                        ********************************************************************
                        *  ADF 2020.202  RunTime: Jan29-2021 21:15:24  Nodes: 1  Procs: 4  *
                        ********************************************************************
  
       ***************************
       *  GEOMETRY OPTIMIZATION  *
       ***************************

Optimization Method                    Quasi Newton
Optimization Coordinates               Delocalized Coordinates
Optimize lattice                       F
 
 ------------------------------------------------------
 Convergence criteria (Hartree,Angstrom)
 ------------------------------------------------------
 Maximum gradient               0.001000000000
 Maximum rms gradient           0.000666666667
 Maximum step allowed           0.001000000000
 Maximum rms step allowed       0.000666666667
 Maximum energy change allowe   0.000150000000
 Maximum stress energy allowe   0.000500000000
 
Initial model Hessian                  Automatic Hessian
 
------------------------------------
Quasi-Newton Optimizer Parameters
------------------------------------
Hessian Update Method                  BFGS
Maximum number of steps                  250
First GDIIS cycle                          0
Maximum GDIIS vectors                      0
Trust radius (bohr)                        0.200000
Trust radius varies                        T
Constraints converged at all steps         T
Use projector                              T
 
 Rigid motions settings for: old optimizer
 Atomic rotations (x,y,z):     T T T
 Atomic translations (x,y,z):  T T T
 Tolerance:                   1.000000000000000E-006
 
--------
Geometry
--------
Atoms
  Index Symbol   x (angstrom)   y (angstrom)   z (angstrom)
      1      S     0.00000000     0.00000000    -1.00091287       adf.R=1.792
      2      C     1.40907078    -0.00000000     0.21368876       adf.R=1.700
      3      H     1.33129502     0.89420134     0.84075198       adf.R=1.350
      4      H     1.33129502    -0.89420134     0.84075198       adf.R=1.350
      5      C     2.71912072    -0.00000000    -0.56492228       adf.R=1.700
      6      H     2.83977839     0.89517791    -1.17756572       adf.R=1.350
      7      H     2.83977839    -0.89517791    -1.17756572       adf.R=1.350
      8      C    -1.40907078     0.00000000     0.21368876       adf.R=1.700
      9      H    -1.33129502    -0.89420134     0.84075198       adf.R=1.350
     10      H    -1.33129502     0.89420134     0.84075198       adf.R=1.350
     11      C    -2.71912072     0.00000000    -0.56492228       adf.R=1.700
     12      H    -2.83977839     0.89517791    -1.17756572       adf.R=1.350
     13      H    -2.83977839    -0.89517791    -1.17756572       adf.R=1.350
     14     Cl     4.14889139    -0.00000000     0.60336700       adf.R=1.725
     15     Cl    -4.14889139     0.00000000     0.60336700       adf.R=1.725
 
Total System Charge             0.00000
Bonding info available!
 
 
----------------
ADF Engine Input
----------------
 
 Basis
 Type TZ2P
 Core None
 End
 XC
 MetaHybrid M06-2X
 End
 Relativity
 Level None
 End
 Solvation
 Surf Delley
 Solv name=Chloroform cav0=0.0 cav1=0.0067639
 Charged method=CONJ
 C-Mat POT
 SCF VAR ALL
 CSMRSP
 End
 NumericalQuality Good
 

 Title: *** (NO TITLE) ***

Number of symmetry operators: 4
Schoenflies symbol:           C(2V)
 Using automatic Hessian for delocalized coordinates.
 *** GOStep1 ***

 SOLVATION
-------------------------------------------

  The Delley construction of COSMO surface surface is calculated

       Division Level for Surface Triangles (NDIV)                  3
       Final Division Level for Triangles (NFDIV)                   1
       Radius of the Solvent (RSOL)                           3.17000 angstr
  Dielectric Constant (EPSL)                                  4.80000

       COSMO equation is solved iteratively-               conjugate-gradient

       Maximun of Iterations for Charges (NCIX)                  1000
       Criterion for Charge convergence (CCNV)                1.0E-08

  COSMO charges included variationally in SCF

       COSMO included at every SCF cycle

  Geometry-dependent empirical factor                         0.00000

  C-Matrix calculated in cspmtx

  In cspmtx, C-Matrix calculated using fitted potential

-------------------------------------------

 Numerically sensitive XC: Boost radial integration grid.
 Radial integration boost factor:   3.00000000000000     


 -------------------------------------------
  COSMO surface
  Area             =          607.295
  Volume           =         1052.271
  Number of Points =         1383
 -------------------------------------------



 ======================
 RI Hartree-Fock Scheme
 ======================
  
 Fit Set Quality     : GOOD
 Integration Quality : GOOD
 Threshold Quality   : GOOD
 Response Quality    : DEFAULT
 Is Range Separated  :  F
 
 RIHartreeFock Dependency: number of modified vectors:          12
 cosmo_calcen: 0.5 (esolb+esolc) (Hartrees) =   -0.007514

 Solvation energy (screening term,uncorrected) =     -4.715360 kcal/mol

 Solvation energy (dispersion and cavitation terms) =      0.910629 kcal/mol
 Solvation Energy Contributions (Hartrees)
          esola   esolb+esolc
     0.00751440   -0.01502881
 esol last cycle   -0.00751440
  
 Hartree-Fock exchange energy:   -103.630855139475     
 cosmo_calcen: 0.5 (esolb+esolc) (Hartrees) =   -0.007514

 Solvation energy (screening term,uncorrected) =     -4.715360 kcal/mol

 Solvation energy (dispersion and cavitation terms) =      0.910629 kcal/mol
 Solvation Energy Contributions (Hartrees)
          esola   esolb+esolc
     0.00751440   -0.01502881
 esol last cycle   -0.00751440

 Energy gradients wrt nuclear displacements
 ==========================================

     Atom      Cartesian (a.u./angstrom)
                 X         Y         Z
 ----------------------------------------
     1 S     0.000000  0.000000 -0.027540
     2 C     0.008403 -0.000000  0.006278
     3 H    -0.000391  0.007238  0.005995
     4 H    -0.000391 -0.007238  0.005995
     5 C    -0.010678 -0.000000 -0.010640
     6 H     0.001470  0.007147 -0.005880
     7 H     0.001470 -0.007147 -0.005880
     8 C    -0.008403  0.000000  0.006278
     9 H     0.000391 -0.007238  0.005995
    10 H     0.000391  0.007238  0.005995
    11 C     0.010678  0.000000 -0.010640
    12 H    -0.001470  0.007147 -0.005880
    13 H    -0.001470 -0.007147 -0.005880
    14 Cl    0.025931 -0.000000  0.017902
    15 Cl   -0.025931  0.000000  0.017902
 ----------------------------------------
 Mulliken charges used for AMS results%charges...
 
----------------------------------------------------------------------
Geometry Convergence after Step   1       (Hartree/Angstrom,Angstrom)
----------------------------------------------------------------------
current energy                               -3.80158806 Hartree
energy change                      -3.80158806     0.00015000    F
constrained gradient max            0.02753971     0.00100000    F
constrained gradient rms            0.00957312     0.00066667    F
gradient max                        0.02753971
gradient rms                        0.00957312
cart. step max                      0.08925366     0.00100000    F
cart. step rms                      0.03084145     0.00066667    F
 
 
--------
Geometry
--------
Atoms
  Index Symbol   x (angstrom)   y (angstrom)   z (angstrom)
      1      S     0.00000000    -0.00000000    -1.03110698       adf.R=1.792
      2      C     1.36865133    -0.00000000     0.20418661       adf.R=1.700
      3      H     1.28114381     0.89166400     0.82435789       adf.R=1.350
      4      H     1.28114381    -0.89166400     0.82435789       adf.R=1.350
      5      C     2.67519254    -0.00000000    -0.56080572       adf.R=1.700
      6      H     2.80392832     0.89301196    -1.16562141       adf.R=1.350
      7      H     2.80392832    -0.89301196    -1.16562141       adf.R=1.350
      8      C    -1.36865133     0.00000000     0.20418661       adf.R=1.700
      9      H    -1.28114381    -0.89166400     0.82435789       adf.R=1.350
     10      H    -1.28114381     0.89166400     0.82435789       adf.R=1.350
     11      C    -2.67519254     0.00000000    -0.56080572       adf.R=1.700
     12      H    -2.80392832     0.89301196    -1.16562141       adf.R=1.350
     13      H    -2.80392832    -0.89301196    -1.16562141       adf.R=1.350
     14     Cl     4.05963773    -0.00000000     0.63274920       adf.R=1.725
     15     Cl    -4.05963773     0.00000000     0.63274920       adf.R=1.725
 
Total System Charge             0.00000
Bonding info available!
 
 *** GOStep2 ***

 SOLVATION
-------------------------------------------

  The Delley construction of COSMO surface surface is calculated

       Division Level for Surface Triangles (NDIV)                  3
       Final Division Level for Triangles (NFDIV)                   1
       Radius of the Solvent (RSOL)                           3.17000 angstr
  Dielectric Constant (EPSL)                                  4.80000

       COSMO equation is solved iteratively-               conjugate-gradient

       Maximun of Iterations for Charges (NCIX)                  1000
       Criterion for Charge convergence (CCNV)                1.0E-08

  COSMO charges included variationally in SCF

       COSMO included at every SCF cycle

  Geometry-dependent empirical factor                         0.00000

  C-Matrix calculated in cspmtx

  In cspmtx, C-Matrix calculated using fitted potential

-------------------------------------------

 Numerically sensitive XC: Boost radial integration grid.
 Radial integration boost factor:   3.00000000000000     


 -------------------------------------------
  COSMO surface
  Area             =          600.455
  Volume           =         1039.872
  Number of Points =         1365
 -------------------------------------------



 ======================
 RI Hartree-Fock Scheme
 ======================
  
 Fit Set Quality     : GOOD
 Integration Quality : GOOD
 Threshold Quality   : GOOD
 Response Quality    : DEFAULT
 Is Range Separated  :  F
 
 RIHartreeFock Dependency: number of modified vectors:          12
 cosmo_calcen: 0.5 (esolb+esolc) (Hartrees) =   -0.007437

 Solvation energy (screening term,uncorrected) =     -4.666617 kcal/mol

 Solvation energy (dispersion and cavitation terms) =      0.900372 kcal/mol
 Solvation Energy Contributions (Hartrees)
          esola   esolb+esolc
     0.00743673   -0.01487346
 esol last cycle   -0.00743673
  
 Hartree-Fock exchange energy:   -103.684653608115     
 cosmo_calcen: 0.5 (esolb+esolc) (Hartrees) =   -0.007437

 Solvation energy (screening term,uncorrected) =     -4.666615 kcal/mol

 Solvation energy (dispersion and cavitation terms) =      0.900372 kcal/mol
 Solvation Energy Contributions (Hartrees)
          esola   esolb+esolc
     0.00743672   -0.01487345
 esol last cycle   -0.00743672

 Energy gradients wrt nuclear displacements
 ==========================================

     Atom      Cartesian (a.u./angstrom)
                 X         Y         Z
 ----------------------------------------
     1 S     0.000000  0.000000 -0.026802
     2 C     0.006755  0.000000  0.016761
     3 H    -0.000325  0.002263  0.001764
     4 H    -0.000325 -0.002263  0.001764
     5 C    -0.013518 -0.000000 -0.016745
     6 H     0.001376  0.002349 -0.001038
     7 H     0.001376 -0.002349 -0.001038
     8 C    -0.006755  0.000000  0.016761
     9 H     0.000325 -0.002263  0.001764
    10 H     0.000325  0.002263  0.001764
    11 C     0.013518  0.000000 -0.016745
    12 H    -0.001376  0.002349 -0.001038
    13 H    -0.001376 -0.002349 -0.001038
    14 Cl    0.011831 -0.000000  0.011934
    15 Cl   -0.011831  0.000000  0.011934
 ----------------------------------------
 Mulliken charges used for AMS results%charges...

 dE(predicted):    -0.17844E-02, dE(actual):    -0.22464E-02, Trust radius:    0.200000, all in a.u.
 
----------------------------------------------------------------------
Geometry Convergence after Step   2       (Hartree/Angstrom,Angstrom)
----------------------------------------------------------------------
current energy                               -3.80383451 Hartree
energy change                      -0.00224645     0.00015000    F
constrained gradient max            0.02680202     0.00100000    F
constrained gradient rms            0.00806879     0.00066667    F
gradient max                        0.02680202
gradient rms                        0.00806879
cart. step max                      0.01731850     0.00100000    F
cart. step rms                      0.00657774     0.00066667    F
 
 
--------
Geometry
--------
Atoms
  Index Symbol   x (angstrom)   y (angstrom)   z (angstrom)
      1      S    -0.00000000    -0.00000000    -1.01378848       adf.R=1.792
      2      C     1.36673491    -0.00000000     0.19762301       adf.R=1.700
      3      H     1.27959552     0.88799141     0.81576886       adf.R=1.350
      4      H     1.27959552    -0.88799141     0.81576886       adf.R=1.350
      5      C     2.67314821    -0.00000000    -0.55344523       adf.R=1.700
      6      H     2.79730240     0.88914719    -1.15771953       adf.R=1.350
      7      H     2.79730240    -0.88914719    -1.15771953       adf.R=1.350
      8      C    -1.36673491     0.00000000     0.19762301       adf.R=1.700
      9      H    -1.27959552    -0.88799141     0.81576886       adf.R=1.350
     10      H    -1.27959552     0.88799141     0.81576886       adf.R=1.350
     11      C    -2.67314821     0.00000000    -0.55344523       adf.R=1.700
     12      H    -2.79730240     0.88914719    -1.15771953       adf.R=1.350
     13      H    -2.79730240    -0.88914719    -1.15771953       adf.R=1.350
     14     Cl     4.04443126    -0.00000000     0.62466735       adf.R=1.725
     15     Cl    -4.04443126     0.00000000     0.62466735       adf.R=1.725
 
Total System Charge             0.00000
Bonding info available!
 
 *** GOStep3 ***

 SOLVATION
-------------------------------------------

  The Delley construction of COSMO surface surface is calculated

       Division Level for Surface Triangles (NDIV)                  3
       Final Division Level for Triangles (NFDIV)                   1
       Radius of the Solvent (RSOL)                           3.17000 angstr
  Dielectric Constant (EPSL)                                  4.80000

       COSMO equation is solved iteratively-               conjugate-gradient

       Maximun of Iterations for Charges (NCIX)                  1000
       Criterion for Charge convergence (CCNV)                1.0E-08

  COSMO charges included variationally in SCF

       COSMO included at every SCF cycle

  Geometry-dependent empirical factor                         0.00000

  C-Matrix calculated in cspmtx

  In cspmtx, C-Matrix calculated using fitted potential

-------------------------------------------

 Numerically sensitive XC: Boost radial integration grid.
 Radial integration boost factor:   3.00000000000000     


 -------------------------------------------
  COSMO surface
  Area             =          597.716
  Volume           =         1033.494
  Number of Points =         1357
 -------------------------------------------



 ======================
 RI Hartree-Fock Scheme
 ======================
  
 Fit Set Quality     : GOOD
 Integration Quality : GOOD
 Threshold Quality   : GOOD
 Response Quality    : DEFAULT
 Is Range Separated  :  F
 
 RIHartreeFock Dependency: number of modified vectors:          12
 cosmo_calcen: 0.5 (esolb+esolc) (Hartrees) =   -0.007204

 Solvation energy (screening term,uncorrected) =     -4.520667 kcal/mol

 Solvation energy (dispersion and cavitation terms) =      0.896266 kcal/mol
 Solvation Energy Contributions (Hartrees)
          esola   esolb+esolc
     0.00720414   -0.01440828
 esol last cycle   -0.00720414
  
 Hartree-Fock exchange energy:   -103.729377457968     
 cosmo_calcen: 0.5 (esolb+esolc) (Hartrees) =   -0.007204

 Solvation energy (screening term,uncorrected) =     -4.520667 kcal/mol

 Solvation energy (dispersion and cavitation terms) =      0.896266 kcal/mol
 Solvation Energy Contributions (Hartrees)
          esola   esolb+esolc
     0.00720414   -0.01440828
 esol last cycle   -0.00720414

 Energy gradients wrt nuclear displacements
 ==========================================

     Atom      Cartesian (a.u./angstrom)
                 X         Y         Z
 ----------------------------------------
     1 S     0.000000  0.000000 -0.005896
     2 C     0.008817  0.000000  0.007650
     3 H    -0.000443 -0.001940 -0.002708
     4 H    -0.000443  0.001940 -0.002708
     5 C    -0.009875  0.000000 -0.008503
     6 H     0.000525 -0.001791  0.002924
     7 H     0.000525  0.001791  0.002924
     8 C    -0.008817  0.000000  0.007650
     9 H     0.000443  0.001940 -0.002708
    10 H     0.000443 -0.001940 -0.002708
    11 C     0.009875  0.000000 -0.008503
    12 H    -0.000525 -0.001791  0.002924
    13 H    -0.000525  0.001791  0.002924
    14 Cl    0.003311  0.000000  0.003368
    15 Cl   -0.003311  0.000000  0.003368
 ----------------------------------------
 Mulliken charges used for AMS results%charges...

 dE(predicted):    -0.82546E-03, dE(actual):    -0.10215E-02, Trust radius:    0.200000, all in a.u.
 
----------------------------------------------------------------------
Geometry Convergence after Step   3       (Hartree/Angstrom,Angstrom)
----------------------------------------------------------------------
current energy                               -3.80485603 Hartree
energy change                      -0.00102152     0.00015000    F
constrained gradient max            0.00987519     0.00100000    F
constrained gradient rms            0.00417626     0.00066667    F
gradient max                        0.00987519
gradient rms                        0.00417626
cart. step max                      0.00904287     0.00100000    F
cart. step rms                      0.00313740     0.00066667    F
 
 
--------
Geometry
--------
Atoms
  Index Symbol   x (angstrom)   y (angstrom)   z (angstrom)
      1      S     0.00000000    -0.00000000    -1.00697285       adf.R=1.792
      2      C     1.36439580    -0.00000000     0.19808524       adf.R=1.700
      3      H     1.28022036     0.88728965     0.81957574       adf.R=1.350
      4      H     1.28022036    -0.88728965     0.81957574       adf.R=1.350
      5      C     2.67391765    -0.00000000    -0.55086820       adf.R=1.700
      6      H     2.79206945     0.88781278    -1.16022851       adf.R=1.350
      7      H     2.79206945    -0.88781278    -1.16022851       adf.R=1.350
      8      C    -1.36439580     0.00000000     0.19808524       adf.R=1.700
      9      H    -1.28022036    -0.88728965     0.81957574       adf.R=1.350
     10      H    -1.28022036     0.88728965     0.81957574       adf.R=1.350
     11      C    -2.67391765     0.00000000    -0.55086820       adf.R=1.700
     12      H    -2.79206945     0.88781278    -1.16022851       adf.R=1.350
     13      H    -2.79206945    -0.88781278    -1.16022851       adf.R=1.350
     14     Cl     4.04580454    -0.00000000     0.61562448       adf.R=1.725
     15     Cl    -4.04580454     0.00000000     0.61562448       adf.R=1.725
 
Total System Charge             0.00000
Bonding info available!
 
 *** GOStep4 ***

 SOLVATION
-------------------------------------------

  The Delley construction of COSMO surface surface is calculated

       Division Level for Surface Triangles (NDIV)                  3
       Final Division Level for Triangles (NFDIV)                   1
       Radius of the Solvent (RSOL)                           3.17000 angstr
  Dielectric Constant (EPSL)                                  4.80000

       COSMO equation is solved iteratively-               conjugate-gradient

       Maximun of Iterations for Charges (NCIX)                  1000
       Criterion for Charge convergence (CCNV)                1.0E-08

  COSMO charges included variationally in SCF

       COSMO included at every SCF cycle

  Geometry-dependent empirical factor                         0.00000

  C-Matrix calculated in cspmtx

  In cspmtx, C-Matrix calculated using fitted potential

-------------------------------------------

 Numerically sensitive XC: Boost radial integration grid.
 Radial integration boost factor:   3.00000000000000     


 -------------------------------------------
  COSMO surface
  Area             =          597.756
  Volume           =         1033.121
  Number of Points =         1363
 -------------------------------------------



 ======================
 RI Hartree-Fock Scheme
 ======================
  
 Fit Set Quality     : GOOD
 Integration Quality : GOOD
 Threshold Quality   : GOOD
 Response Quality    : DEFAULT
 Is Range Separated  :  F
 
 RIHartreeFock Dependency: number of modified vectors:          12
 cosmo_calcen: 0.5 (esolb+esolc) (Hartrees) =   -0.007068

 Solvation energy (screening term,uncorrected) =     -4.435047 kcal/mol

 Solvation energy (dispersion and cavitation terms) =      0.896325 kcal/mol
 Solvation Energy Contributions (Hartrees)
          esola   esolb+esolc
     0.00706770   -0.01413539
 esol last cycle   -0.00706770
  
 Hartree-Fock exchange energy:   -103.733198006413     
 cosmo_calcen: 0.5 (esolb+esolc) (Hartrees) =   -0.007068

 Solvation energy (screening term,uncorrected) =     -4.435046 kcal/mol

 Solvation energy (dispersion and cavitation terms) =      0.896325 kcal/mol
 Solvation Energy Contributions (Hartrees)
          esola   esolb+esolc
     0.00706770   -0.01413539
 esol last cycle   -0.00706770

 Energy gradients wrt nuclear displacements
 ==========================================

     Atom      Cartesian (a.u./angstrom)
                 X         Y         Z
 ----------------------------------------
     1 S     0.000000  0.000000 -0.000916
     2 C     0.004968  0.000000  0.002371
     3 H    -0.000324 -0.001312 -0.001798
     4 H    -0.000324  0.001312 -0.001798
     5 C    -0.005478 -0.000000 -0.002691
     6 H     0.000209 -0.001287  0.001771
     7 H     0.000209  0.001287  0.001771
     8 C    -0.004968 -0.000000  0.002371
     9 H     0.000324  0.001312 -0.001798
    10 H     0.000324 -0.001312 -0.001798
    11 C     0.005478  0.000000 -0.002691
    12 H    -0.000209 -0.001287  0.001771
    13 H    -0.000209  0.001287  0.001771
    14 Cl    0.001249 -0.000000  0.000832
    15 Cl   -0.001249  0.000000  0.000832
 ----------------------------------------
 Mulliken charges used for AMS results%charges...

 dE(predicted):    -0.12652E-03, dE(actual):    -0.20002E-03, Trust radius:    0.200000, all in a.u.
 
----------------------------------------------------------------------
Geometry Convergence after Step   4       (Hartree/Angstrom,Angstrom)
----------------------------------------------------------------------
current energy                               -3.80505605 Hartree
energy change                      -0.00020002     0.00015000    F
constrained gradient max            0.00547753     0.00100000    F
constrained gradient rms            0.00200009     0.00066667    F
gradient max                        0.00547753
gradient rms                        0.00200009
cart. step max                      0.00676306     0.00100000    F
cart. step rms                      0.00340202     0.00066667    F
 
 
--------
Geometry
--------
Atoms
  Index Symbol   x (angstrom)   y (angstrom)   z (angstrom)
      1      S    -0.00000000    -0.00000000    -1.00045243       adf.R=1.792
      2      C     1.36445663    -0.00000000     0.20012911       adf.R=1.700
      3      H     1.28470394     0.88706507     0.82555002       adf.R=1.350
      4      H     1.28470394    -0.88706507     0.82555002       adf.R=1.350
      5      C     2.67648440    -0.00000000    -0.55130473       adf.R=1.700
      6      H     2.78951084     0.88738623    -1.16525504       adf.R=1.350
      7      H     2.78951084    -0.88738623    -1.16525504       adf.R=1.350
      8      C    -1.36445663     0.00000000     0.20012911       adf.R=1.700
      9      H    -1.28470394    -0.88706507     0.82555002       adf.R=1.350
     10      H    -1.28470394     0.88706507     0.82555002       adf.R=1.350
     11      C    -2.67648440     0.00000000    -0.55130473       adf.R=1.700
     12      H    -2.78951084     0.88738623    -1.16525504       adf.R=1.350
     13      H    -2.78951084    -0.88738623    -1.16525504       adf.R=1.350
     14     Cl     4.04840703    -0.00000000     0.60886142       adf.R=1.725
     15     Cl    -4.04840703     0.00000000     0.60886142       adf.R=1.725
 
Total System Charge             0.00000
Bonding info available!
 
 *** GOStep5 ***

 SOLVATION
-------------------------------------------

  The Delley construction of COSMO surface surface is calculated

       Division Level for Surface Triangles (NDIV)                  3
       Final Division Level for Triangles (NFDIV)                   1
       Radius of the Solvent (RSOL)                           3.17000 angstr
  Dielectric Constant (EPSL)                                  4.80000

       COSMO equation is solved iteratively-               conjugate-gradient

       Maximun of Iterations for Charges (NCIX)                  1000
       Criterion for Charge convergence (CCNV)                1.0E-08

  COSMO charges included variationally in SCF

       COSMO included at every SCF cycle

  Geometry-dependent empirical factor                         0.00000

  C-Matrix calculated in cspmtx

  In cspmtx, C-Matrix calculated using fitted potential

-------------------------------------------

 Numerically sensitive XC: Boost radial integration grid.
 Radial integration boost factor:   3.00000000000000     


 -------------------------------------------
  COSMO surface
  Area             =          597.758
  Volume           =         1033.437
  Number of Points =         1359
 -------------------------------------------



 ======================
 RI Hartree-Fock Scheme
 ======================
  
 Fit Set Quality     : GOOD
 Integration Quality : GOOD
 Threshold Quality   : GOOD
 Response Quality    : DEFAULT
 Is Range Separated  :  F
 
 RIHartreeFock Dependency: number of modified vectors:          12
 cosmo_calcen: 0.5 (esolb+esolc) (Hartrees) =   -0.006973

 Solvation energy (screening term,uncorrected) =     -4.375600 kcal/mol

 Solvation energy (dispersion and cavitation terms) =      0.896328 kcal/mol
 Solvation Energy Contributions (Hartrees)
          esola   esolb+esolc
     0.00697296   -0.01394592
 esol last cycle   -0.00697296
  
 Hartree-Fock exchange energy:   -103.729397184265     
 cosmo_calcen: 0.5 (esolb+esolc) (Hartrees) =   -0.006973

 Solvation energy (screening term,uncorrected) =     -4.375599 kcal/mol

 Solvation energy (dispersion and cavitation terms) =      0.896328 kcal/mol
 Solvation Energy Contributions (Hartrees)
          esola   esolb+esolc
     0.00697296   -0.01394592
 esol last cycle   -0.00697296

 Energy gradients wrt nuclear displacements
 ==========================================

     Atom      Cartesian (a.u./angstrom)
                 X         Y         Z
 ----------------------------------------
     1 S     0.000000  0.000000  0.000792
     2 C     0.001093  0.000000 -0.000804
     3 H    -0.000132 -0.000110 -0.000124
     4 H    -0.000132  0.000110 -0.000124
     5 C    -0.001009  0.000000  0.000790
     6 H     0.000026 -0.000094  0.000008
     7 H     0.000026  0.000094  0.000008
     8 C    -0.001093 -0.000000 -0.000804
     9 H     0.000132  0.000110 -0.000124
    10 H     0.000132 -0.000110 -0.000124
    11 C     0.001009 -0.000000  0.000790
    12 H    -0.000026 -0.000094  0.000008
    13 H    -0.000026  0.000094  0.000008
    14 Cl    0.000013 -0.000000 -0.000150
    15 Cl   -0.000013  0.000000 -0.000150
 ----------------------------------------
 Mulliken charges used for AMS results%charges...

 dE(predicted):    -0.54781E-04, dE(actual):    -0.66614E-04, Trust radius:    0.200000, all in a.u.
 
----------------------------------------------------------------------
Geometry Convergence after Step   5       (Hartree/Angstrom,Angstrom)
----------------------------------------------------------------------
current energy                               -3.80512267 Hartree
energy change                      -0.00006661     0.00015000    T
constrained gradient max            0.00109332     0.00100000    F
constrained gradient rms            0.00041787     0.00066667    T
gradient max                        0.00109332
gradient rms                        0.00041787
cart. step max                      0.00145329     0.00100000    F
cart. step rms                      0.00050797     0.00066667    T
 
 
--------
Geometry
--------
Atoms
  Index Symbol   x (angstrom)   y (angstrom)   z (angstrom)
      1      S     0.00000000    -0.00000000    -1.00161437       adf.R=1.792
      2      C     1.36407874    -0.00000000     0.19978282       adf.R=1.700
      3      H     1.28472134     0.88712892     0.82546142       adf.R=1.350
      4      H     1.28472134    -0.88712892     0.82546142       adf.R=1.350
      5      C     2.67717163    -0.00000000    -0.55145741       adf.R=1.700
      6      H     2.79047192     0.88754371    -1.16535311       adf.R=1.350
      7      H     2.79047192    -0.88754371    -1.16535311       adf.R=1.350
      8      C    -1.36407874     0.00000000     0.19978282       adf.R=1.700
      9      H    -1.28472134    -0.88712892     0.82546142       adf.R=1.350
     10      H    -1.28472134     0.88712892     0.82546142       adf.R=1.350
     11      C    -2.67717163     0.00000000    -0.55145741       adf.R=1.700
     12      H    -2.79047192     0.88754371    -1.16535311       adf.R=1.350
     13      H    -2.79047192    -0.88754371    -1.16535311       adf.R=1.350
     14     Cl     4.04784171    -0.00000000     0.61031472       adf.R=1.725
     15     Cl    -4.04784171     0.00000000     0.61031472       adf.R=1.725
 
Total System Charge             0.00000
Bonding info available!
 
 *** GOStep6 ***

 SOLVATION
-------------------------------------------

  The Delley construction of COSMO surface surface is calculated

       Division Level for Surface Triangles (NDIV)                  3
       Final Division Level for Triangles (NFDIV)                   1
       Radius of the Solvent (RSOL)                           3.17000 angstr
  Dielectric Constant (EPSL)                                  4.80000

       COSMO equation is solved iteratively-               conjugate-gradient

       Maximun of Iterations for Charges (NCIX)                  1000
       Criterion for Charge convergence (CCNV)                1.0E-08

  COSMO charges included variationally in SCF

       COSMO included at every SCF cycle

  Geometry-dependent empirical factor                         0.00000

  C-Matrix calculated in cspmtx

  In cspmtx, C-Matrix calculated using fitted potential

-------------------------------------------

 Numerically sensitive XC: Boost radial integration grid.
 Radial integration boost factor:   3.00000000000000     


 -------------------------------------------
  COSMO surface
  Area             =          597.811
  Volume           =         1033.577
  Number of Points =         1359
 -------------------------------------------



 ======================
 RI Hartree-Fock Scheme
 ======================
  
 Fit Set Quality     : GOOD
 Integration Quality : GOOD
 Threshold Quality   : GOOD
 Response Quality    : DEFAULT
 Is Range Separated  :  F
 
 RIHartreeFock Dependency: number of modified vectors:          12
 cosmo_calcen: 0.5 (esolb+esolc) (Hartrees) =   -0.006970

 Solvation energy (screening term,uncorrected) =     -4.373908 kcal/mol

 Solvation energy (dispersion and cavitation terms) =      0.896408 kcal/mol
 Solvation Energy Contributions (Hartrees)
          esola   esolb+esolc
     0.00697027   -0.01394053
 esol last cycle   -0.00697027
  
 Hartree-Fock exchange energy:   -103.727989058585     
 cosmo_calcen: 0.5 (esolb+esolc) (Hartrees) =   -0.006970

 Solvation energy (screening term,uncorrected) =     -4.373909 kcal/mol

 Solvation energy (dispersion and cavitation terms) =      0.896408 kcal/mol
 Solvation Energy Contributions (Hartrees)
          esola   esolb+esolc
     0.00697027   -0.01394053
 esol last cycle   -0.00697027

 Energy gradients wrt nuclear displacements
 ==========================================

     Atom      Cartesian (a.u./angstrom)
                 X         Y         Z
 ----------------------------------------
     1 S     0.000000  0.000000  0.000146
     2 C     0.000340 -0.000000 -0.000410
     3 H    -0.000043  0.000032  0.000073
     4 H    -0.000043 -0.000032  0.000073
     5 C    -0.000374  0.000000  0.000428
     6 H     0.000027  0.000044 -0.000110
     7 H     0.000027 -0.000044 -0.000110
     8 C    -0.000340  0.000000 -0.000410
     9 H     0.000043 -0.000032  0.000073
    10 H     0.000043  0.000032  0.000073
    11 C     0.000374 -0.000000  0.000428
    12 H    -0.000027  0.000044 -0.000110
    13 H    -0.000027 -0.000044 -0.000110
    14 Cl    0.000032 -0.000000 -0.000017
    15 Cl   -0.000032  0.000000 -0.000017
 ----------------------------------------
 Mulliken charges used for AMS results%charges...
 
---------------------------------------------------------
Geometry Convergence after Step   6       ** CONVERGED **
---------------------------------------------------------
current energy                               -3.80512187 Hartree
energy change                       0.00000080     0.00015000    T
constrained gradient max            0.00042795     0.00100000    T
constrained gradient rms            0.00017195     0.00066667    T
gradient max                        0.00042795
gradient rms                        0.00017195
cart. step max                      0.00049597     0.00100000    T
cart. step rms                      0.00019478     0.00066667    T
 
Geometry optimization converged

Optimized geometry:
 
--------
Geometry
--------
Atoms
  Index Symbol   x (angstrom)   y (angstrom)   z (angstrom)
      1      S     0.00000000    -0.00000000    -1.00161437       adf.R=1.792
      2      C     1.36407874    -0.00000000     0.19978282       adf.R=1.700
      3      H     1.28472134     0.88712892     0.82546142       adf.R=1.350
      4      H     1.28472134    -0.88712892     0.82546142       adf.R=1.350
      5      C     2.67717163    -0.00000000    -0.55145741       adf.R=1.700
      6      H     2.79047192     0.88754371    -1.16535311       adf.R=1.350
      7      H     2.79047192    -0.88754371    -1.16535311       adf.R=1.350
      8      C    -1.36407874     0.00000000     0.19978282       adf.R=1.700
      9      H    -1.28472134    -0.88712892     0.82546142       adf.R=1.350
     10      H    -1.28472134     0.88712892     0.82546142       adf.R=1.350
     11      C    -2.67717163     0.00000000    -0.55145741       adf.R=1.700
     12      H    -2.79047192     0.88754371    -1.16535311       adf.R=1.350
     13      H    -2.79047192    -0.88754371    -1.16535311       adf.R=1.350
     14     Cl     4.04784171    -0.00000000     0.61031472       adf.R=1.725
     15     Cl    -4.04784171     0.00000000     0.61031472       adf.R=1.725
 
Total System Charge             0.00000
Bonding info available!
 
Performing a single point calculation on the final geometry ...

 *** adf ***



 ===========================
 A T T A C H E D   F I L E S
 ===========================
  
 Restart/tmp/amstmp_ams_kid0.603508382/GOStep6.rkf*** GOStep6 ***



 ===============================
 M O D E L   P A R A M E T E R S
 ===============================
  
 DENSITY FUNCTIONAL POTENTIAL (scf)
    Meta-Hybrid:                       M06-2X                                  == Not Default ==

 SPIN  (restricted / unrestr.)
    Molecule:                          Restricted                               
    Fragments:                         Restricted                               

 OTHER ASPECTS
    Relativistic Corrections:          ---                                     == Not Default ==

    Nuclear Charge Density Model:      Point Charge Nuclei                      
    Core Treatment:                    Frozen Orbital(s)                        

    Hyperfine or Zeeman Interaction:   ---                                      

 SOLVATION
-------------------------------------------

  The Delley construction of COSMO surface surface is calculated

       Division Level for Surface Triangles (NDIV)                  3
       Final Division Level for Triangles (NFDIV)                   1
       Radius of the Solvent (RSOL)                           3.17000 angstr
  Dielectric Constant (EPSL)                                  4.80000

       COSMO equation is solved iteratively-               conjugate-gradient

       Maximun of Iterations for Charges (NCIX)                  1000
       Criterion for Charge convergence (CCNV)                1.0E-08

  COSMO charges included variationally in SCF

       COSMO included at every SCF cycle

  Geometry-dependent empirical factor                         0.00000

  C-Matrix calculated in cspmtx

  In cspmtx, C-Matrix calculated using fitted potential

-------------------------------------------




 ===============
 G E O M E T R Y  ***  3D  Molecule  ***
 ===============
  

 ATOMS
 =====                            X Y Z                    CHARGE                     RADIUS
                                (Angstrom)             Nucl     +Core       At.Mass (Angstrom)
                       --------------------------    ----------------       ------- ----------
    1  S               0.0000   -0.0000   -1.0016     16.00     16.00       31.9721    1.7920
    2  C               1.3641   -0.0000    0.1998      6.00      6.00       12.0000    1.7000
    3  H               1.2847    0.8871    0.8255      1.00      1.00        1.0078    1.3500
    4  H               1.2847   -0.8871    0.8255      1.00      1.00        1.0078    1.3500
    5  C               2.6772   -0.0000   -0.5515      6.00      6.00       12.0000    1.7000
    6  H               2.7905    0.8875   -1.1654      1.00      1.00        1.0078    1.3500
    7  H               2.7905   -0.8875   -1.1654      1.00      1.00        1.0078    1.3500
    8  C              -1.3641    0.0000    0.1998      6.00      6.00       12.0000    1.7000
    9  H              -1.2847   -0.8871    0.8255      1.00      1.00        1.0078    1.3500
   10  H              -1.2847    0.8871    0.8255      1.00      1.00        1.0078    1.3500
   11  C              -2.6772    0.0000   -0.5515      6.00      6.00       12.0000    1.7000
   12  H              -2.7905    0.8875   -1.1654      1.00      1.00        1.0078    1.3500
   13  H              -2.7905   -0.8875   -1.1654      1.00      1.00        1.0078    1.3500
   14  Cl              4.0478   -0.0000    0.6103     17.00     17.00       34.9689    1.7250
   15  Cl             -4.0478    0.0000    0.6103     17.00     17.00       34.9689    1.7250


 FRAGMENTS
 =========                                     Atoms in this Fragment     Cart. coord.s (Angstrom)
                                               -------------------------------------------------------
    1  S                                                 1  S            0.0000   -0.0000   -1.0016
    2  C                                                 2  C            1.3641   -0.0000    0.1998
    3  C                                                 5  C            2.6772   -0.0000   -0.5515
    4  C                                                 8  C           -1.3641    0.0000    0.1998
    5  C                                                11  C           -2.6772    0.0000   -0.5515
    6  H                                                 3  H            1.2847    0.8871    0.8255
    7  H                                                 4  H            1.2847   -0.8871    0.8255
    8  H                                                 6  H            2.7905    0.8875   -1.1654
    9  H                                                 7  H            2.7905   -0.8875   -1.1654
   10  H                                                 9  H           -1.2847   -0.8871    0.8255
   11  H                                                10  H           -1.2847    0.8871    0.8255
   12  H                                                12  H           -2.7905    0.8875   -1.1654
   13  H                                                13  H           -2.7905   -0.8875   -1.1654
   14  Cl                                               14  Cl           4.0478   -0.0000    0.6103
   15  Cl                                               15  Cl          -4.0478    0.0000    0.6103


 Interatomic Distance Matrix (Angstrom)
 --------------------------------------

   1)     0.000
   2)     1.818   0.000
   3)     2.403   1.088   0.000
   4)     2.403   1.088   1.774   0.000
   5)     2.715   1.513   2.150   2.150   0.000
   6)     2.933   2.165   2.496   3.063   1.085   0.000
   7)     2.933   2.165   3.063   2.496   1.085   1.775   0.000
   8)     1.818   2.728   2.863   2.863   4.110   4.462   4.462   0.000
   9)     2.403   2.863   3.123   2.569   4.287   4.870   4.535   1.088   0.000
  10)     2.403   2.863   2.569   3.123   4.287   4.535   4.870   1.088   1.774   0.000
  11)     2.715   4.110   4.287   4.287   5.354   5.573   5.573   1.513   2.150   2.150
          0.000
  12)     2.933   4.462   4.535   4.870   5.573   5.581   5.856   2.165   3.063   2.496
          1.085   0.000
  13)     2.933   4.462   4.870   4.535   5.573   5.856   5.581   2.165   2.496   3.063
          1.085   1.775   0.000
  14)     4.357   2.715   2.910   2.910   1.797   2.350   2.350   5.427   5.410   5.410
          6.825   7.121   7.121   0.000
  15)     4.357   5.427   5.410   5.410   6.825   7.121   7.121   2.715   2.910   2.910
          1.797   2.350   2.350   8.096   0.000

 Min. Distance =    1.0851
 Max. Distance =    8.0957



 =====================================
 S Y M M E T R Y ,   E L E C T R O N S
 =====================================
  
 Symmetry: C(2V)

 Irreducible Representations, including subspecies
 -------------------------------------------------
 A1
 A2
 B1
 B2

 Symmetry is NOT used when fitting density


 Configuration of Valence Electrons
 ==================================
 ( determined in the SCF procedure )

 Total:   82

 Net Charge: 0 (Nuclei minus Electrons)

 Aufbau principle for MO occupations will be applied through SCF cycle no.     150
 Thereafter, the program will assign electrons to MOs that are spatially
 similar to the occupied MOs in a "reference" cycle ("KeepOrbitals").
 The reference cycle is always the PREVIOUS cycle: it will evolve with
 the SCF procedure.
1
 ***************************************************************************************************



                                      ****************************************
                                      *  B U I L D : (Fragments, Functions)  *
                                      ****************************************
  



 =======
 S F O s  ***  (Symmetrized Fragment Orbitals)  ***
 =======
  
 SFOs are linear combinations of (valence) Fragment Orbitals (FOs), such that the SFOs transform as the
 irreducible representations of the (molecular) symmetry group. Each SFO is therefore characterized by
 an irrep of the molecule and by a few (or only one) generating FOs.
 The SFOs constitute a symmetry-adapted basis for the Fock matrix. The MO eigenvector coefficients in
 this basis provide a direct interpretation of the MOs in terms of Frontier Orbital Theory.

 The SFOs are combined with auxiliary Core Functions (CFs) to ensure orthogonalization on the (frozen)
 Core Orbitals (COs). The Core-orthogonalized SFOs (CSFOs) constitute the true Fock basis.

 The FOs, and hence also the (C)SFOs are combinations of the elementary basis functions (BAS). The basis
 functions that participate in the description of the SFOs depend on the irrep. The indices of the
 involved functions are printed below for each irrep.
 (The complete list of primitive basis functions is printed in another section)

 Total nr. of (C)SFOs (summation over all irreps) :   294

 NOTE: a (C)SFO that is defined as a combination of more than one FO is usually NOT normalized.



                                       === A1 ===
 Nr. of SFOs :   98
 Cartesian basis functions that participate in this irrep (total number =   252) :
      1     2     3     4    11    12    13     7    10    16
     19    22    28    23    26    38    31    36    39    99
     40   100    41   101    42   102    43   103    46   106
     49   109    52   112    44   104    47   107    50   110
     58   118    55   115    53    56   113   116    68   128
     64   124    61    66   121   126    59    62   119   122
     69   129    70   130    71   131    72   132    73   133
     76   136    79   139    82   142    74   134    77   137
     80   140    88   148    85   145    83    86   143   146
     98   158    94   154    91    96   151   156    89    92
    149   152   159   171   207   219   160   172   208   220
    161   173   209   221   164   176   212   224   162   163
    174   175   210   211   222   223   170   182   218   230
    167   169   179   181   215   217   227   229   165   166
    168   177   178   180   213   214   216   225   226   228
    183   195   231   243   184   196   232   244   185   197
    233   245   188   200   236   248   186   187   198   199
    234   235   246   247   194   206   242   254   191   193
    203   205   239   241   251   253   189   190   192   201
    202   204   237   238   240   249   250   252   255   293
    256   294   257   295   258   296   265   303   266   304
    267   305   261   299   264   302   270   308   273   311
    276   314   259   297   262   300   268   306   271   309
    274   312   282   320   279   317   277   280   315   318
    292   330   288   326   285   290   323   328   283   286
    321   324

    SFO  (index         Fragment          Generating    Expansion in Fragment Orbitals
  indx  incl.CFs)   Occup   Orb.Energy   FragmentType  Coeff.   Orbital     on Fragment
 --------------------------------------------------------------------------------------
     1       1      2.000     -89.987 au  S             1.00      1 S               1
                        (   -2448.672 eV)
     2       2      2.000      -8.338 au  S             1.00      2 S               1
                        (    -226.876 eV)
     3       3      2.000      -0.772 au  S             1.00      3 S               1
                        (     -21.008 eV)
     4       4       --         0.254 au  S             1.00      4 S               1
                        (       6.901 eV)
     5       5       --         2.133 au  S             1.00      5 S               1
                        (      58.033 eV)
     6       6       --        12.937 au  S             1.00      6 S               1
                        (     352.034 eV)
     7       7       --       200.572 au  S             1.00      7 S               1
                        (    5457.848 eV)
     8       8      2.000      -6.252 au  S             1.00      1 P:z             1
                        (    -170.123 eV)
     9       9      1.333      -0.294 au  S             1.00      2 P:z             1
                        (      -8.010 eV)
    10      10       --         0.177 au  S             1.00      3 P:z             1
                        (       4.822 eV)
    11      11       --         1.296 au  S             1.00      4 P:z             1
                        (      35.267 eV)
    12      12       --        13.412 au  S             1.00      5 P:z             1
                        (     364.961 eV)
    13      13       --         0.541 au  S             1.00      1 D:z2            1
                        (      14.724 eV)
    14      14       --         0.541 au  S             1.00      1 D:x2-y2         1
                        (      14.724 eV)
    15      15       --         1.357 au  S             1.00      1 F:z3            1
                        (      36.934 eV)
    16      16       --         1.357 au  S             1.00      1 F:z             1
                        (      36.934 eV)
    17      17      2.000     -10.738 au  C             0.71      1 S               2
                        (    -292.202 eV)               0.71      1 S               4
    18      18      2.000      -0.646 au  C             0.71      2 S               2
                        (     -17.581 eV)               0.71      2 S               4
    19      19       --         0.433 au  C             0.71      3 S               2
                        (      11.786 eV)               0.71      3 S               4
    20      20       --         5.564 au  C             0.71      4 S               2
                        (     151.402 eV)               0.71      4 S               4
    21      21       --        50.242 au  C             0.71      5 S               2
                        (    1367.146 eV)               0.71      5 S               4
    22      22      0.667      -0.174 au  C             0.71      1 P:x             2
                        (      -4.724 eV)              -0.71      1 P:x             4
    23      23       --         0.227 au  C             0.71      2 P:x             2
                        (       6.178 eV)              -0.71      2 P:x             4
    24      24       --         2.146 au  C             0.71      3 P:x             2
                        (      58.399 eV)              -0.71      3 P:x             4
    25      25      0.667      -0.174 au  C             0.71      1 P:z             2
                        (      -4.724 eV)               0.71      1 P:z             4
    26      26       --         0.227 au  C             0.71      2 P:z             2
                        (       6.178 eV)               0.71      2 P:z             4
    27      27       --         2.146 au  C             0.71      3 P:z             2
                        (      58.399 eV)               0.71      3 P:z             4
    28      28       --         1.327 au  C             0.71      1 D:z2            2
                        (      36.114 eV)               0.71      1 D:z2            4
    29      29       --         1.327 au  C             0.71      1 D:x2-y2         2
                        (      36.114 eV)               0.71      1 D:x2-y2         4
    30      30       --         1.327 au  C             0.71      1 D:xz            2
                        (      36.114 eV)              -0.71      1 D:xz            4
    31      31       --         4.038 au  C             0.71      1 F:z3            2
                        (     109.882 eV)               0.71      1 F:z3            4
    32      32       --         4.038 au  C             0.71      1 F:z             2
                        (     109.882 eV)               0.71      1 F:z             4
    33      33       --         4.038 au  C             0.71      1 F:z2x           2
                        (     109.882 eV)              -0.71      1 F:z2x           4
    34      34       --         4.038 au  C             0.71      1 F:x             2
                        (     109.882 eV)              -0.71      1 F:x             4
    35      35      2.000     -10.738 au  C             0.71      1 S               3
                        (    -292.202 eV)               0.71      1 S               5
    36      36      2.000      -0.646 au  C             0.71      2 S               3
                        (     -17.581 eV)               0.71      2 S               5
    37      37       --         0.433 au  C             0.71      3 S               3
                        (      11.786 eV)               0.71      3 S               5
    38      38       --         5.564 au  C             0.71      4 S               3
                        (     151.402 eV)               0.71      4 S               5
    39      39       --        50.242 au  C             0.71      5 S               3
                        (    1367.146 eV)               0.71      5 S               5
    40      40      0.667      -0.174 au  C             0.71      1 P:x             3
                        (      -4.724 eV)              -0.71      1 P:x             5
    41      41       --         0.227 au  C             0.71      2 P:x             3
                        (       6.178 eV)              -0.71      2 P:x             5
    42      42       --         2.146 au  C             0.71      3 P:x             3
                        (      58.399 eV)              -0.71      3 P:x             5
    43      43      0.667      -0.174 au  C             0.71      1 P:z             3
                        (      -4.724 eV)               0.71      1 P:z             5
    44      44       --         0.227 au  C             0.71      2 P:z             3
                        (       6.178 eV)               0.71      2 P:z             5
    45      45       --         2.146 au  C             0.71      3 P:z             3
                        (      58.399 eV)               0.71      3 P:z             5
    46      46       --         1.327 au  C             0.71      1 D:z2            3
                        (      36.114 eV)               0.71      1 D:z2            5
    47      47       --         1.327 au  C             0.71      1 D:x2-y2         3
                        (      36.114 eV)               0.71      1 D:x2-y2         5
    48      48       --         1.327 au  C             0.71      1 D:xz            3
                        (      36.114 eV)              -0.71      1 D:xz            5
    49      49       --         4.038 au  C             0.71      1 F:z3            3
                        (     109.882 eV)               0.71      1 F:z3            5
    50      50       --         4.038 au  C             0.71      1 F:z             3
                        (     109.882 eV)               0.71      1 F:z             5
    51      51       --         4.038 au  C             0.71      1 F:z2x           3
                        (     109.882 eV)              -0.71      1 F:z2x           5
    52      52       --         4.038 au  C             0.71      1 F:x             3
                        (     109.882 eV)              -0.71      1 F:x             5
    53      53      1.000      -0.241 au  H             0.50      1 S               6
                        (      -6.547 eV)               0.50      1 S               7
                                                        0.50      1 S              10
                                                        0.50      1 S              11
    54      54       --         0.133 au  H             0.50      2 S               6
                        (       3.632 eV)               0.50      2 S               7
                                                        0.50      2 S              10
                                                        0.50      2 S              11
    55      55       --         1.528 au  H             0.50      3 S               6
                        (      41.591 eV)               0.50      3 S               7
                                                        0.50      3 S              10
                                                        0.50      3 S              11
    56      56       --         0.464 au  H             0.50      1 P:x             6
                        (      12.639 eV)               0.50      1 P:x             7
                                                       -0.50      1 P:x            10
                                                       -0.50      1 P:x            11
    57      57       --         0.464 au  H             0.50      1 P:y             6
                        (      12.639 eV)              -0.50      1 P:y             7
                                                       -0.50      1 P:y            10
                                                        0.50      1 P:y            11
    58      58       --         0.464 au  H             0.50      1 P:z             6
                        (      12.639 eV)               0.50      1 P:z             7
                                                        0.50      1 P:z            10
                                                        0.50      1 P:z            11
    59      59       --         2.530 au  H             0.50      1 D:z2            6
                        (      68.848 eV)               0.50      1 D:z2            7
                                                        0.50      1 D:z2           10
                                                        0.50      1 D:z2           11
    60      60       --         2.530 au  H             0.50      1 D:x2-y2         6
                        (      68.848 eV)               0.50      1 D:x2-y2         7
                                                        0.50      1 D:x2-y2        10
                                                        0.50      1 D:x2-y2        11
    61      61       --         2.530 au  H             0.50      1 D:xy            6
                        (      68.848 eV)              -0.50      1 D:xy            7
                                                        0.50      1 D:xy           10
                                                       -0.50      1 D:xy           11
    62      62       --         2.530 au  H             0.50      1 D:xz            6
                        (      68.848 eV)               0.50      1 D:xz            7
                                                       -0.50      1 D:xz           10
                                                       -0.50      1 D:xz           11
    63      63       --         2.530 au  H             0.50      1 D:yz            6
                        (      68.848 eV)              -0.50      1 D:yz            7
                                                       -0.50      1 D:yz           10
                                                        0.50      1 D:yz           11
    64      64      1.000      -0.241 au  H             0.50      1 S               8
                        (      -6.547 eV)               0.50      1 S               9
                                                        0.50      1 S              12
                                                        0.50      1 S              13
    65      65       --         0.133 au  H             0.50      2 S               8
                        (       3.632 eV)               0.50      2 S               9
                                                        0.50      2 S              12
                                                        0.50      2 S              13
    66      66       --         1.528 au  H             0.50      3 S               8
                        (      41.591 eV)               0.50      3 S               9
                                                        0.50      3 S              12
                                                        0.50      3 S              13
    67      67       --         0.464 au  H             0.50      1 P:x             8
                        (      12.639 eV)               0.50      1 P:x             9
                                                       -0.50      1 P:x            12
                                                       -0.50      1 P:x            13
    68      68       --         0.464 au  H             0.50      1 P:y             8
                        (      12.639 eV)              -0.50      1 P:y             9
                                                        0.50      1 P:y            12
                                                       -0.50      1 P:y            13
    69      69       --         0.464 au  H             0.50      1 P:z             8
                        (      12.639 eV)               0.50      1 P:z             9
                                                        0.50      1 P:z            12
                                                        0.50      1 P:z            13
    70      70       --         2.530 au  H             0.50      1 D:z2            8
                        (      68.848 eV)               0.50      1 D:z2            9
                                                        0.50      1 D:z2           12
                                                        0.50      1 D:z2           13
    71      71       --         2.530 au  H             0.50      1 D:x2-y2         8
                        (      68.848 eV)               0.50      1 D:x2-y2         9
                                                        0.50      1 D:x2-y2        12
                                                        0.50      1 D:x2-y2        13
    72      72       --         2.530 au  H             0.50      1 D:xy            8
                        (      68.848 eV)              -0.50      1 D:xy            9
                                                       -0.50      1 D:xy           12
                                                        0.50      1 D:xy           13
    73      73       --         2.530 au  H             0.50      1 D:xz            8
                        (      68.848 eV)               0.50      1 D:xz            9
                                                       -0.50      1 D:xz           12
                                                       -0.50      1 D:xz           13
    74      74       --         2.530 au  H             0.50      1 D:yz            8
                        (      68.848 eV)              -0.50      1 D:yz            9
                                                        0.50      1 D:yz           12
                                                       -0.50      1 D:yz           13
    75      75      2.000    -102.706 au  Cl            0.71      1 S              14
                        (   -2794.780 eV)               0.71      1 S              15
    76      76      2.000      -9.865 au  Cl            0.71      2 S              14
                        (    -268.429 eV)               0.71      2 S              15
    77      77      2.000      -0.920 au  Cl            0.71      3 S              14
                        (     -25.044 eV)               0.71      3 S              15
    78      78       --         0.266 au  Cl            0.71      4 S              14
                        (       7.232 eV)               0.71      4 S              15
    79      79       --         2.108 au  Cl            0.71      5 S              14
                        (      57.374 eV)               0.71      5 S              15
    80      80       --        13.072 au  Cl            0.71      6 S              14
                        (     355.705 eV)               0.71      6 S              15
    81      81       --       215.716 au  Cl            0.71      7 S              14
                        (    5869.934 eV)               0.71      7 S              15
    82      82      2.000      -7.583 au  Cl            0.71      1 P:x            14
                        (    -206.332 eV)              -0.71      1 P:x            15
    83      83      1.667      -0.391 au  Cl            0.71      2 P:x            14
                        (     -10.629 eV)              -0.71      2 P:x            15
    84      84       --         0.292 au  Cl            0.71      3 P:x            14
                        (       7.958 eV)              -0.71      3 P:x            15
    85      85       --         2.238 au  Cl            0.71      4 P:x            14
                        (      60.903 eV)              -0.71      4 P:x            15
    86      86       --        19.277 au  Cl            0.71      5 P:x            14
                        (     524.541 eV)              -0.71      5 P:x            15
    87      87      2.000      -7.583 au  Cl            0.71      1 P:z            14
                        (    -206.332 eV)               0.71      1 P:z            15
    88      88      1.667      -0.391 au  Cl            0.71      2 P:z            14
                        (     -10.629 eV)               0.71      2 P:z            15
    89      89       --         0.292 au  Cl            0.71      3 P:z            14
                        (       7.958 eV)               0.71      3 P:z            15
    90      90       --         2.238 au  Cl            0.71      4 P:z            14
                        (      60.903 eV)               0.71      4 P:z            15
    91      91       --        19.277 au  Cl            0.71      5 P:z            14
                        (     524.541 eV)               0.71      5 P:z            15
    92      92       --         0.497 au  Cl            0.71      1 D:z2           14
                        (      13.534 eV)               0.71      1 D:z2           15
    93      93       --         0.497 au  Cl            0.71      1 D:x2-y2        14
                        (      13.534 eV)               0.71      1 D:x2-y2        15
    94      94       --         0.497 au  Cl            0.71      1 D:xz           14
                        (      13.534 eV)              -0.71      1 D:xz           15
    95      95       --         1.282 au  Cl            0.71      1 F:z3           14
                        (      34.892 eV)               0.71      1 F:z3           15
    96      96       --         1.282 au  Cl            0.71      1 F:z            14
                        (      34.892 eV)               0.71      1 F:z            15
    97      97       --         1.282 au  Cl            0.71      1 F:z2x          14
                        (      34.892 eV)              -0.71      1 F:z2x          15
    98      98       --         1.282 au  Cl            0.71      1 F:x            14
                        (      34.892 eV)              -0.71      1 F:x            15



                                       === A2 ===
 Nr. of SFOs :   50
 Cartesian basis functions that participate in this irrep (total number =   156) :
     24    33    45   105    48   108    51   111    57   117
     54   114    67   127    63   123    60    65   120   125
     75   135    78   138    81   141    87   147    84   144
     97   157    93   153    90    95   150   155   159   171
    207   219   160   172   208   220   161   173   209   221
    164   176   212   224   162   163   174   175   210   211
    222   223   170   182   218   230   167   169   179   181
    215   217   227   229   165   166   168   177   178   180
    213   214   216   225   226   228   183   195   231   243
    184   196   232   244   185   197   233   245   188   200
    236   248   186   187   198   199   234   235   246   247
    194   206   242   254   191   193   203   205   239   241
    251   253   189   190   192   201   202   204   237   238
    240   249   250   252   260   298   263   301   269   307
    272   310   275   313   281   319   278   316   291   329
    287   325   284   289   322   327

    SFO  (index         Fragment          Generating    Expansion in Fragment Orbitals
  indx  incl.CFs)   Occup   Orb.Energy   FragmentType  Coeff.   Orbital     on Fragment
 --------------------------------------------------------------------------------------
     1       1       --         0.541 au  S             1.00      1 D:xy            1
                        (      14.724 eV)
     2       2       --         1.357 au  S             1.00      1 F:xyz           1
                        (      36.934 eV)
     3       3      0.667      -0.174 au  C             0.71      1 P:y             2
                        (      -4.724 eV)              -0.71      1 P:y             4
     4       4       --         0.227 au  C             0.71      2 P:y             2
                        (       6.178 eV)              -0.71      2 P:y             4
     5       5       --         2.146 au  C             0.71      3 P:y             2
                        (      58.399 eV)              -0.71      3 P:y             4
     6       6       --         1.327 au  C             0.71      1 D:xy            2
                        (      36.114 eV)               0.71      1 D:xy            4
     7       7       --         1.327 au  C             0.71      1 D:yz            2
                        (      36.114 eV)              -0.71      1 D:yz            4
     8       8       --         4.038 au  C             0.71      1 F:xyz           2
                        (     109.882 eV)               0.71      1 F:xyz           4
     9       9       --         4.038 au  C             0.71      1 F:z2y           2
                        (     109.882 eV)              -0.71      1 F:z2y           4
    10      10       --         4.038 au  C             0.71      1 F:y             2
                        (     109.882 eV)              -0.71      1 F:y             4
    11      11      0.667      -0.174 au  C             0.71      1 P:y             3
                        (      -4.724 eV)              -0.71      1 P:y             5
    12      12       --         0.227 au  C             0.71      2 P:y             3
                        (       6.178 eV)              -0.71      2 P:y             5
    13      13       --         2.146 au  C             0.71      3 P:y             3
                        (      58.399 eV)              -0.71      3 P:y             5
    14      14       --         1.327 au  C             0.71      1 D:xy            3
                        (      36.114 eV)               0.71      1 D:xy            5
    15      15       --         1.327 au  C             0.71      1 D:yz            3
                        (      36.114 eV)              -0.71      1 D:yz            5
    16      16       --         4.038 au  C             0.71      1 F:xyz           3
                        (     109.882 eV)               0.71      1 F:xyz           5
    17      17       --         4.038 au  C             0.71      1 F:z2y           3
                        (     109.882 eV)              -0.71      1 F:z2y           5
    18      18       --         4.038 au  C             0.71      1 F:y             3
                        (     109.882 eV)              -0.71      1 F:y             5
    19      19      1.000      -0.241 au  H             0.50      1 S               6
                        (      -6.547 eV)              -0.50      1 S               7
                                                        0.50      1 S              10
                                                       -0.50      1 S              11
    20      20       --         0.133 au  H             0.50      2 S               6
                        (       3.632 eV)              -0.50      2 S               7
                                                        0.50      2 S              10
                                                       -0.50      2 S              11
    21      21       --         1.528 au  H             0.50      3 S               6
                        (      41.591 eV)              -0.50      3 S               7
                                                        0.50      3 S              10
                                                       -0.50      3 S              11
    22      22       --         0.464 au  H             0.50      1 P:x             6
                        (      12.639 eV)              -0.50      1 P:x             7
                                                       -0.50      1 P:x            10
                                                        0.50      1 P:x            11
    23      23       --         0.464 au  H             0.50      1 P:y             6
                        (      12.639 eV)               0.50      1 P:y             7
                                                       -0.50      1 P:y            10
                                                       -0.50      1 P:y            11
    24      24       --         0.464 au  H             0.50      1 P:z             6
                        (      12.639 eV)              -0.50      1 P:z             7
                                                        0.50      1 P:z            10
                                                       -0.50      1 P:z            11
    25      25       --         2.530 au  H             0.50      1 D:z2            6
                        (      68.848 eV)              -0.50      1 D:z2            7
                                                        0.50      1 D:z2           10
                                                       -0.50      1 D:z2           11
    26      26       --         2.530 au  H             0.50      1 D:x2-y2         6
                        (      68.848 eV)              -0.50      1 D:x2-y2         7
                                                        0.50      1 D:x2-y2        10
                                                       -0.50      1 D:x2-y2        11
    27      27       --         2.530 au  H             0.50      1 D:xy            6
                        (      68.848 eV)               0.50      1 D:xy            7
                                                        0.50      1 D:xy           10
                                                        0.50      1 D:xy           11
    28      28       --         2.530 au  H             0.50      1 D:xz            6
                        (      68.848 eV)              -0.50      1 D:xz            7
                                                       -0.50      1 D:xz           10
                                                        0.50      1 D:xz           11
    29      29       --         2.530 au  H             0.50      1 D:yz            6
                        (      68.848 eV)               0.50      1 D:yz            7
                                                       -0.50      1 D:yz           10
                                                       -0.50      1 D:yz           11
    30      30      1.000      -0.241 au  H             0.50      1 S               8
                        (      -6.547 eV)              -0.50      1 S               9
                                                       -0.50      1 S              12
                                                        0.50      1 S              13
    31      31       --         0.133 au  H             0.50      2 S               8
                        (       3.632 eV)              -0.50      2 S               9
                                                       -0.50      2 S              12
                                                        0.50      2 S              13
    32      32       --         1.528 au  H             0.50      3 S               8
                        (      41.591 eV)              -0.50      3 S               9
                                                       -0.50      3 S              12
                                                        0.50      3 S              13
    33      33       --         0.464 au  H             0.50      1 P:x             8
                        (      12.639 eV)              -0.50      1 P:x             9
                                                        0.50      1 P:x            12
                                                       -0.50      1 P:x            13
    34      34       --         0.464 au  H             0.50      1 P:y             8
                        (      12.639 eV)               0.50      1 P:y             9
                                                       -0.50      1 P:y            12
[...]
    15    Cl       0.000169   0.000000  -0.005854
 
 Mode:    29      Frequency (cm-1):     1269.2713     Intensity (km/mol):       45.3745     Irrep: A1
 Index  Atom      ---- Displacements (x/y/z) ----
     1     S      -0.000000   0.000000   0.015981
     2     C       0.077632  -0.000000  -0.008299
     3     H      -0.361433   0.011630  -0.090390
     4     H      -0.361433  -0.011630  -0.090390
     5     C       0.042662   0.000000  -0.002784
     6     H      -0.317329  -0.001553  -0.079468
     7     H      -0.317329   0.001553  -0.079468
     8     C      -0.077632   0.000000  -0.008299
     9     H       0.361433  -0.011630  -0.090390
    10     H       0.361433   0.011630  -0.090390
    11     C      -0.042662  -0.000000  -0.002784
    12     H       0.317329  -0.001553  -0.079468
    13     H       0.317329   0.001553  -0.079468
    14    Cl       0.000486  -0.000000   0.006288
    15    Cl      -0.000486   0.000000   0.006288
 
 Mode:    30      Frequency (cm-1):     1307.7678     Intensity (km/mol):        0.0000     Irrep: A2
 Index  Atom      ---- Displacements (x/y/z) ----
     1     S       0.000000   0.000000   0.000000
     2     C       0.000000   0.056911   0.000000
     3     H      -0.315632  -0.027834   0.076670
     4     H       0.315632  -0.027834  -0.076670
     5     C      -0.000000  -0.053395  -0.000000
     6     H      -0.371224   0.029241   0.044825
     7     H       0.371224   0.029241  -0.044825
     8     C      -0.000000  -0.056911   0.000000
     9     H       0.315632   0.027834   0.076670
    10     H      -0.315632   0.027834  -0.076670
    11     C      -0.000000   0.053395  -0.000000
    12     H      -0.371224  -0.029241  -0.044825
    13     H       0.371224  -0.029241   0.044825
    14    Cl      -0.000000  -0.003794   0.000000
    15    Cl      -0.000000   0.003794   0.000000
 
 Mode:    31      Frequency (cm-1):     1311.5526     Intensity (km/mol):        0.4739     Irrep: B2
 Index  Atom      ---- Displacements (x/y/z) ----
     1     S      -0.000000   0.005565   0.000000
     2     C       0.000000   0.055869   0.000000
     3     H      -0.320980  -0.024623   0.073291
     4     H       0.320980  -0.024623  -0.073291
     5     C      -0.000000  -0.053316   0.000000
     6     H      -0.367653   0.028734   0.044757
     7     H       0.367653   0.028734  -0.044757
     8     C       0.000000   0.055869  -0.000000
     9     H      -0.320980  -0.024623  -0.073291
    10     H       0.320980  -0.024623   0.073291
    11     C      -0.000000  -0.053316  -0.000000
    12     H       0.367653   0.028734   0.044757
    13     H      -0.367653   0.028734  -0.044757
    14    Cl      -0.000000  -0.003658  -0.000000
    15    Cl       0.000000  -0.003658   0.000000
 
 Mode:    32      Frequency (cm-1):     1336.9785     Intensity (km/mol):       15.7796     Irrep: B1
 Index  Atom      ---- Displacements (x/y/z) ----
     1     S      -0.001345   0.000000  -0.000000
     2     C      -0.057396   0.000000  -0.026928
     3     H       0.223594  -0.040843   0.080317
     4     H       0.223594   0.040843   0.080317
     5     C       0.083689  -0.000000   0.022767
     6     H      -0.408910  -0.033847  -0.133178
     7     H      -0.408910   0.033847  -0.133178
     8     C      -0.057396   0.000000   0.026928
     9     H       0.223594  -0.040843  -0.080317
    10     H       0.223594   0.040843  -0.080317
    11     C       0.083689   0.000000  -0.022767
    12     H      -0.408910   0.033847   0.133178
    13     H      -0.408910  -0.033847   0.133178
    14    Cl       0.002274  -0.000000   0.006794
    15    Cl       0.002274  -0.000000  -0.006794
 
 Mode:    33      Frequency (cm-1):     1351.7116     Intensity (km/mol):        5.0228     Irrep: A1
 Index  Atom      ---- Displacements (x/y/z) ----
     1     S       0.000000  -0.000000  -0.008821
     2     C      -0.075932   0.000000  -0.022047
     3     H       0.283801  -0.042307   0.096143
     4     H       0.283801   0.042307   0.096143
     5     C       0.078510  -0.000000   0.021260
     6     H      -0.367231  -0.034160  -0.126190
     7     H      -0.367231   0.034160  -0.126190
     8     C       0.075932   0.000000  -0.022047
     9     H      -0.283801   0.042307   0.096143
    10     H      -0.283801  -0.042307   0.096143
    11     C      -0.078510   0.000000   0.021260
    12     H       0.367231  -0.034160  -0.126190
    13     H       0.367231   0.034160  -0.126190
    14    Cl       0.002301   0.000000   0.006035
    15    Cl      -0.002301  -0.000000   0.006035
 
 Mode:    34      Frequency (cm-1):     1485.3332     Intensity (km/mol):       13.2705     Irrep: B1
 Index  Atom      ---- Displacements (x/y/z) ----
     1     S      -0.000848  -0.000000   0.000000
     2     C       0.028099   0.000000  -0.052084
     3     H      -0.103204  -0.284474   0.359863
     4     H      -0.103204   0.284474   0.359863
     5     C      -0.021915   0.000000   0.012679
     6     H       0.063381  -0.095633  -0.116993
     7     H       0.063381   0.095633  -0.116993
     8     C       0.028099  -0.000000   0.052084
     9     H      -0.103204  -0.284474  -0.359863
    10     H      -0.103204   0.284474  -0.359863
    11     C      -0.021915   0.000000  -0.012679
    12     H       0.063381   0.095633   0.116993
    13     H       0.063381  -0.095633   0.116993
    14    Cl       0.000561   0.000000   0.000627
    15    Cl       0.000561   0.000000  -0.000627
 
 Mode:    35      Frequency (cm-1):     1491.5688     Intensity (km/mol):        3.3481     Irrep: A1
 Index  Atom      ---- Displacements (x/y/z) ----
     1     S       0.000000  -0.000000  -0.002763
     2     C       0.028961  -0.000000  -0.056922
     3     H      -0.097651  -0.300693   0.380896
     4     H      -0.097651   0.300693   0.380896
     5     C      -0.016428   0.000000   0.000739
     6     H       0.035882  -0.025977  -0.028755
     7     H       0.035882   0.025977  -0.028755
     8     C      -0.028961  -0.000000  -0.056922
     9     H       0.097651   0.300693   0.380896
    10     H       0.097651  -0.300693   0.380896
    11     C       0.016428   0.000000   0.000739
    12     H      -0.035882  -0.025977  -0.028755
    13     H      -0.035882   0.025977  -0.028755
    14    Cl       0.000476  -0.000000   0.000245
    15    Cl      -0.000476   0.000000   0.000245
 
 Mode:    36      Frequency (cm-1):     1497.0053     Intensity (km/mol):        5.6412     Irrep: A1
 Index  Atom      ---- Displacements (x/y/z) ----
     1     S      -0.000000   0.000000  -0.000292
     2     C      -0.008571   0.000000  -0.009319
     3     H       0.009745  -0.031007   0.040514
     4     H       0.009745   0.031007   0.040514
     5     C       0.027450  -0.000000  -0.054801
     6     H      -0.107059   0.301127   0.378420
     7     H      -0.107059  -0.301127   0.378420
     8     C       0.008571   0.000000  -0.009319
     9     H      -0.009745   0.031007   0.040514
    10     H      -0.009745  -0.031007   0.040514
    11     C      -0.027450   0.000000  -0.054801
    12     H       0.107059   0.301127   0.378420
    13     H       0.107059  -0.301127   0.378420
    14    Cl      -0.001276  -0.000000  -0.002011
    15    Cl       0.001276   0.000000  -0.002011
 
 Mode:    37      Frequency (cm-1):     1498.0396     Intensity (km/mol):       10.1135     Irrep: B1
 Index  Atom      ---- Displacements (x/y/z) ----
     1     S      -0.000189  -0.000000   0.000000
     2     C       0.001126   0.000000   0.022310
     3     H       0.016409   0.099923  -0.127564
     4     H       0.016409  -0.099923  -0.127564
     5     C      -0.023059   0.000000   0.053200
     6     H       0.095713  -0.286618  -0.360874
     7     H       0.095713   0.286618  -0.360874
     8     C       0.001126  -0.000000  -0.022310
     9     H       0.016409   0.099923   0.127564
    10     H       0.016409  -0.099923   0.127564
    11     C      -0.023059   0.000000  -0.053200
    12     H       0.095713   0.286618   0.360874
    13     H       0.095713  -0.286618   0.360874
    14    Cl       0.001150  -0.000000   0.001916
    15    Cl       0.001150  -0.000000  -0.001916
 
 Mode:    38      Frequency (cm-1):     3083.7180     Intensity (km/mol):       21.5677     Irrep: A1
 Index  Atom      ---- Displacements (x/y/z) ----
     1     S       0.000000  -0.000000   0.000020
     2     C      -0.008202   0.000000   0.046212
     3     H       0.038158  -0.414541  -0.272442
     4     H       0.038158   0.414541  -0.272442
     5     C       0.001811  -0.000000  -0.003588
     6     H      -0.003367  -0.031045   0.019751
     7     H      -0.003367   0.031045   0.019751
     8     C       0.008202  -0.000000   0.046212
     9     H      -0.038158   0.414541  -0.272442
    10     H      -0.038158  -0.414541  -0.272442
    11     C      -0.001811   0.000000  -0.003588
    12     H       0.003367  -0.031045   0.019751
    13     H       0.003367   0.031045   0.019751
    14    Cl      -0.000101  -0.000000  -0.000070
    15    Cl       0.000101  -0.000000  -0.000070
 
 Mode:    39      Frequency (cm-1):     3092.2233     Intensity (km/mol):        0.6755     Irrep: B1
 Index  Atom      ---- Displacements (x/y/z) ----
     1     S       0.000034   0.000000   0.000000
     2     C       0.007826  -0.000000  -0.045916
     3     H      -0.041358   0.412697   0.270837
     4     H      -0.041358  -0.412697   0.270837
     5     C      -0.002167   0.000000   0.005404
     6     H       0.006358   0.049443  -0.032108
     7     H       0.006358  -0.049443  -0.032108
     8     C       0.007826  -0.000000   0.045916
     9     H      -0.041358   0.412697  -0.270837
    10     H      -0.041358  -0.412697  -0.270837
    11     C      -0.002167   0.000000  -0.005404
    12     H       0.006358  -0.049443   0.032108
    13     H       0.006358   0.049443   0.032108
    14    Cl       0.000060  -0.000000   0.000052
    15    Cl       0.000060  -0.000000  -0.000052
 
 Mode:    40      Frequency (cm-1):     3126.5002     Intensity (km/mol):       24.0897     Irrep: A1
 Index  Atom      ---- Displacements (x/y/z) ----
     1     S      -0.000000   0.000000  -0.000046
     2     C      -0.000231  -0.000000  -0.003056
     3     H      -0.003235   0.030669   0.021293
     4     H      -0.003235  -0.030669   0.021293
     5     C       0.010183   0.000000  -0.045963
     6     H      -0.056056  -0.414295   0.269630
     7     H      -0.056056   0.414295   0.269630
     8     C       0.000231  -0.000000  -0.003056
     9     H       0.003235  -0.030669   0.021293
    10     H       0.003235   0.030669   0.021293
    11     C      -0.010183  -0.000000  -0.045963
    12     H       0.056056  -0.414295   0.269630
    13     H       0.056056   0.414295   0.269630
    14    Cl      -0.000081  -0.000000   0.000073
    15    Cl       0.000081   0.000000   0.000073
 
 Mode:    41      Frequency (cm-1):     3126.6042     Intensity (km/mol):        0.1611     Irrep: B1
 Index  Atom      ---- Displacements (x/y/z) ----
     1     S      -0.000171  -0.000000   0.000000
     2     C      -0.000243   0.000000   0.005284
     3     H       0.005935  -0.049122  -0.033223
     4     H       0.005935   0.049122  -0.033223
     5     C      -0.010112  -0.000000   0.045753
     6     H       0.055876   0.412494  -0.268445
     7     H       0.055876  -0.412494  -0.268445
     8     C      -0.000243   0.000000  -0.005284
     9     H       0.005935  -0.049122   0.033223
    10     H       0.005935   0.049122   0.033223
    11     C      -0.010112  -0.000000  -0.045753
    12     H       0.055876  -0.412494   0.268445
    13     H       0.055876   0.412494   0.268445
    14    Cl       0.000069  -0.000000  -0.000080
    15    Cl       0.000069  -0.000000   0.000080
 
 Mode:    42      Frequency (cm-1):     3139.2888     Intensity (km/mol):        8.2294     Irrep: B2
 Index  Atom      ---- Displacements (x/y/z) ----
     1     S      -0.000000  -0.000133   0.000000
     2     C       0.000000   0.066973  -0.000000
     3     H       0.038785  -0.398288  -0.280692
     4     H      -0.038785  -0.398288   0.280692
     5     C       0.000000  -0.012770  -0.000000
     6     H       0.008046   0.076845  -0.052724
     7     H      -0.008046   0.076845   0.052724
     8     C       0.000000   0.066973   0.000000
     9     H       0.038785  -0.398288   0.280692
    10     H      -0.038785  -0.398288  -0.280692
    11     C      -0.000000  -0.012770  -0.000000
    12     H      -0.008046   0.076845  -0.052724
    13     H       0.008046   0.076845   0.052724
    14    Cl      -0.000000  -0.000011   0.000000
    15    Cl      -0.000000  -0.000011   0.000000
 
 Mode:    43      Frequency (cm-1):     3148.7907     Intensity (km/mol):        0.0000     Irrep: A2
 Index  Atom      ---- Displacements (x/y/z) ----
     1     S      -0.000000  -0.000000   0.000000
     2     C       0.000000   0.065980  -0.000000
     3     H       0.040817  -0.393706  -0.275876
     4     H      -0.040817  -0.393706   0.275876
     5     C       0.000000  -0.016524  -0.000000
     6     H       0.011847   0.100398  -0.068473
     7     H      -0.011847   0.100398   0.068473
     8     C      -0.000000  -0.065980  -0.000000
     9     H      -0.040817   0.393706  -0.275876
    10     H       0.040817   0.393706   0.275876
    11     C      -0.000000   0.016524  -0.000000
    12     H       0.011847  -0.100398   0.068473
    13     H      -0.011847  -0.100398  -0.068473
    14    Cl       0.000000  -0.000001  -0.000000
    15    Cl      -0.000000   0.000001   0.000000
 
 Mode:    44      Frequency (cm-1):     3189.0141     Intensity (km/mol):        7.9306     Irrep: B2
 Index  Atom      ---- Displacements (x/y/z) ----
     1     S       0.000000   0.000024   0.000000
     2     C      -0.000000   0.012827  -0.000000
     3     H       0.009439  -0.075674  -0.054162
     4     H      -0.009439  -0.075674   0.054162
     5     C       0.000000   0.067486   0.000000
     6     H      -0.058436  -0.400073   0.274623
     7     H       0.058436  -0.400073  -0.274623
     8     C      -0.000000   0.012827   0.000000
     9     H       0.009439  -0.075674   0.054162
    10     H      -0.009439  -0.075674  -0.054162
    11     C      -0.000000   0.067486  -0.000000
    12     H       0.058436  -0.400073   0.274623
    13     H      -0.058436  -0.400073  -0.274623
    14    Cl       0.000000  -0.000149  -0.000000
    15    Cl       0.000000  -0.000149   0.000000
 
 Mode:    45      Frequency (cm-1):     3189.5749     Intensity (km/mol):        0.0000     Irrep: A2
 Index  Atom      ---- Displacements (x/y/z) ----
     1     S      -0.000000  -0.000000  -0.000000
     2     C       0.000000  -0.016873   0.000000
     3     H      -0.012891   0.099184   0.069776
     4     H       0.012891   0.099184  -0.069776
     5     C      -0.000000  -0.066694  -0.000000
     6     H       0.057984   0.394845  -0.271103
     7     H      -0.057984   0.394845   0.271103
     8     C      -0.000000   0.016873  -0.000000
     9     H       0.012891  -0.099184   0.069776
    10     H      -0.012891  -0.099184  -0.069776
    11     C       0.000000   0.066694  -0.000000
    12     H       0.057984  -0.394845   0.271103
    13     H      -0.057984  -0.394845  -0.271103
    14    Cl       0.000000   0.000154  -0.000000
    15    Cl       0.000000  -0.000154  -0.000000

PES point character: Geometry corresponds to a local minimum on the PES.




 ============================
 Statistical Thermal Analysis  ***  ideal gas assumed  ***
 ============================
  
 Pressure:                  1.000000 atm.
 Temperature:             298.150000 K



 Moments of Inertia [amu*bohr^2] and principal axis
 ==================================================

         289.0696       5024.4683       5268.1981
 ------------------------------------------------
          -1.0000          0.0000          0.0000
           0.0000          0.0000          1.0000
           0.0000          1.0000          0.0000


 The rotational contribution to the molecular entropy includes
 a term, dependent on the symmetry number sigma. The results 
 reported below were computed using sigma = 2, determined from
 the point group symmetry of the input geometry (C(2V)). 
 If this is not the correct symmetry, try symmetrizing the molecule before
 running the calculation (note: linear molecules should be aligned along one
 of the Cartesian axes).
 Contributions from frequencies below 20 1/cm are not included in vibrational sums.
 Their contributions, if any, are reported separately.


     Temp                                                        Transl      Rotat     Vibrat     Total
     ----                                                        ------      -----     ------     -----

     298.15   Entropy (cal/mol-K):                               41.081     29.038     27.039     97.158
              Nuclear Internal Energy (kcal/mol):                 0.889      0.889     77.735     79.513
              Constant Volume Heat Capacity (cal/mol-K):          2.981      2.981     23.741     29.703
          (c) Constant Volume Heat Capacity (cal/mol-K):          2.981      2.981     20.954     26.915

       Summary of energy terms
                                                   hartree              eV         kcal/mol           kJ/mol
                                      --------------------     -----------       ----------      -----------
      Energy from Engine:               -3.805122614590501       -103.5427         -2387.75         -9990.35
      Nuclear Internal Energy:           0.126711251385388          3.4480            79.51           332.68
  (c) Nuclear Internal Energy:           0.125291252173541          3.4093            78.62           328.95
      Internal Energy U:                -3.678411363205114       -100.0947         -2308.24         -9657.67
      pV/n = RT:                         0.000944186013486          0.0257             0.59             2.48
      Enthalpy H:                       -3.677467177191628       -100.0690         -2307.65         -9655.19
      -T*S:                             -0.046163009888526         -1.2562           -28.97          -121.20
  (c) -T*S:                             -0.044934561984357         -1.2227           -28.20          -117.98
      Gibbs free energy:                -3.723630187080154       -101.3251         -2336.61         -9776.39
 
 
 
  (c) The properties marked with this symbol have been corrected using 'low vibrational frequency free rotor
      interpolation corrections'. For those terms all positive frequencies are used (also ones below 20 1/cm),
      but the contribution to the partition function of small vibrational frequencies is modified as described
      in the following paper:
      S. Grimme, 'Supramolecular Binding Thermodynamics by Dispersion-Corrected Density Functional Theory'
      (Chem. Eur. J. 2012, 18, 9955-9964)
      Configuration: Dampener Frequency          :   100.000 1/cm
                     Dampener Alpha              :     4.000
                     Averaging Moment of Inertia : 1.000E-44 kg m2

--------------
Atomic charges
--------------
  Index   Atom    Charge
      1      S   -0.0508
      2      C    0.2343
      3      H   -0.0704
      4      H   -0.0704
      5      C    0.3514
      6      H   -0.0867
      7      H   -0.0867
      8      C    0.2343
      9      H   -0.0704
     10      H   -0.0704
     11      C    0.3514
     12      H   -0.0867
     13      H   -0.0867
     14     Cl   -0.2462
     15     Cl   -0.2462


Dipole moment vector    (Debye):     0.00000000    0.00000000   -0.85330046
              magnitude (Debye):     0.85330046


Final PES point is a local minimum. Geometry optimization successful!


AMS application finished. Exiting.
NORMAL TERMINATION
     Total cpu time:   12108.43
  Total system time:      98.86
 Total elapsed time:   13153.08
