 argument  1 = /lustre/ukt/milias/work/projects/open-collection/theoretical_chemistry/projects/adsorbate_on_surface/on_quartz/quartz/nwchem/Quartz-G_molecular_slab_153atoms/ecp/Hg_on_quartz/lanl2dz_ecp/HgQ.geopt_ecp_revpbe-d3bj.nw



============================== echo of input deck ==============================
echo

start molecule

print low

title "Hg@Quartz ecp"
charge 0

geometry units angstroms print xyz autosym
  load format xyz HgQgeomconv-b3lyp.xyz
end

basis
 * library lanl2dz_ecp
end

ecp
  Si library lanl2dz_ecp
  Hg library lanl2dz_ecp
end

dft
  xc revpbe
  disp vdw 4
  maxiter 100
end

driver
  maxiter 999
  xyz HgQgeomconv
end

task dft optimize

#task dft frequencies

================================================================================


                                         
                                         


             Northwest Computational Chemistry Package (NWChem) 7.2.0
             --------------------------------------------------------


                    Environmental Molecular Sciences Laboratory
                       Pacific Northwest National Laboratory
                                Richland, WA 99352

                              Copyright (c) 1994-2022
                       Pacific Northwest National Laboratory
                            Battelle Memorial Institute

             NWChem is an open-source computational chemistry package
                        distributed under the terms of the
                      Educational Community License (ECL) 2.0
             A copy of the license is included with this distribution
                              in the LICENSE.TXT file

                                  ACKNOWLEDGMENT
                                  --------------

            This software and its documentation were developed at the
            EMSL at Pacific Northwest National Laboratory, a multiprogram
            national laboratory, operated for the U.S. Department of Energy
            by Battelle under Contract Number DE-AC05-76RL01830. Support
            for this work was provided by the Department of Energy Office
            of Biological and Environmental Research, Office of Basic
            Energy Sciences, and the Office of Advanced Scientific Computing.


           Job information
           ---------------

    hostname        = lxbk0865
    program         = /lustre/ukt/milias/work/software/nwchem/nwchem-7.2.0_gnu_openmpi_openblas/bin/LINUX64/nwchem
    date            = Thu Aug 10 21:02:49 2023

    compiled        = Sun_Jul_02_11:55:06_2023
    source          = /lustre/ukt/milias/work/software/nwchem/nwchem-7.2.0_gnu_openmpi_openblas
    nwchem branch   = 7.2.0
    nwchem revision = v7.2.0-beta1-192-gd0d141fdfb
    ga revision     = 5.8.0
    use scalapack   = F
    input           = /lustre/ukt/milias/work/projects/open-collection/theoretical_chemistry/projects/adsorbate_on_surface/on_quartz/quartz/nwchem/Quartz-G_molecular_slab_153atoms/ecp/Hg_on_quartz/lanl2dz_ecp/HgQ.geopt_ecp_revpbe-d3bj.nw
    prefix          = molecule.
    data base       = ./molecule.db
    status          = startup
    nproc           =       15
    time left       =     -1s



           Memory information
           ------------------

    heap     =   26214398 doubles =    200.0 Mbytes
    stack    =   26214395 doubles =    200.0 Mbytes
    global   =   52428800 doubles =    400.0 Mbytes (distinct from heap & stack)
    total    =  104857593 doubles =    800.0 Mbytes
    verify   = yes
    hardfail = no 


           Directory information
           ---------------------

  0 permanent = .
  0 scratch   = .




                                NWChem Input Module
                                -------------------


                                   Hg@Quartz ecp
                                   -------------

 Scaling coordinates for geometry "geometry" by  1.889725989
 (inverse scale =  0.529177249)


          ------
          auto-z
          ------
  autoz: The atoms group into disjoint clusters
 cluster   1:    1    2    3    4    5    6    7    8    9   10   11
                12   13   14   15   16   17   18   19   20   21   22
                23   24   25   26   27   28   29   30   31   32   33
                34   35   36   37   38   39   40   41   42   43   44
                45   46   47   48   49   50   51   52   53   54   55
                56   57   58   59   60   61   62   63   64   65   66
                67   68   69   70   71   72   73   74   75   76   77
                78   79   80   81   82   83   84   85   86   87   88
                89   90   91   92   93   94   95   96   97   98   99
               100  101  102  103  104  105  106  107  108  109  110
               111  112  113  114  115  116  117  118  119  120  121
               122  123  124  125  126  127  128  129  130  131  132
               133  134  135  136  137  138  139  140  141  142  143
               144  145  146  147  148  149  150  151  152  153
 cluster   2:  154
 Connecting clusters   1   2 via atoms  124  154 r = 2.92
  autoz: regenerating connections with new bonds
  no constraints, skipping    0.0000000000000000     
  no constraints, skipping    0.0000000000000000     


                             Geometry "geometry" -> ""
                             -------------------------

 Output coordinates in angstroms (scale by  1.889725989 to convert to a.u.)

  No.       Tag          Charge          X              Y              Z
 ---- ---------------- ---------- -------------- -------------- --------------
    1 O                    8.0000     5.54872476    -1.03518016     1.17069803
    2 H                    1.0000    -1.80000384     5.03697295    -1.56231127
    3 H                    1.0000     3.04296083    -7.27219640     4.00616936
    4 Si                  14.0000    -4.68875567     7.56532780     0.40307311
    5 Si                  14.0000    -0.34330378     6.95565578     0.18275826
    6 Si                  14.0000     4.58220478     5.24247385     0.16347916
    7 H                    1.0000     2.10084155    -5.92777734     0.26044044
    8 Si                  14.0000    -3.87593499     3.98374294    -1.91638031
    9 Si                  14.0000     0.50797958     2.38124363    -0.38642649
   10 Si                  14.0000     4.25765804    -0.02143275     1.42138687
   11 H                    1.0000     1.29730855    -3.22635628    -3.74446208
   12 Si                  14.0000    -1.74187727     0.16883287    -4.45833494
   13 Si                  14.0000     0.60934888    -2.42997104    -1.27025865
   14 Si                  14.0000     2.53881316    -4.53411402     2.67508889
   15 H                    1.0000    -2.48480886     6.90030253    -0.99306792
   16 Si                  14.0000     0.57914377    -4.61091187    -5.55040846
   17 Si                  14.0000     0.85249097    -7.09746544    -1.46458378
   18 Si                  14.0000     0.96655454    -8.34051648     3.65461680
   19 O                    8.0000    -0.37211183     0.30230175    -3.48204628
   20 O                    8.0000    -3.24605983     4.10277153     4.86717880
   21 O                    8.0000     2.29231714     4.47310068     5.52808831
   22 O                    8.0000     1.52089782    -6.46035360    -2.83912085
   23 O                    8.0000     2.08960189    -2.44866030    -0.44630110
   24 O                    8.0000    -4.75805493     0.83300821     1.50581348
   25 O                    8.0000    -0.86153281     0.55980049     4.39622679
   26 O                    8.0000     0.92291856    -8.34013491     2.00150004
   27 O                    8.0000     3.57285643    -5.77102585     3.16845564
   28 O                    8.0000    -4.62171279    -2.80386954    -2.08338859
   29 O                    8.0000    -3.14270924    -3.13541096     2.29662002
   30 H                    1.0000    -0.21387121     1.12659065    -2.93248956
   31 H                    1.0000     2.01102056    -4.63552909    -7.44503349
   32 O                    8.0000     2.59078953    -4.47510553     1.01771709
   33 O                    8.0000     2.17884763     2.35164702    -0.55537857
   34 O                    8.0000    -6.66675224     3.83034515     1.18100063
   35 O                    8.0000    -1.73318815    -1.34289554    -5.07619485
   36 Si                  14.0000    -3.85008210    -3.98327762    -2.94239967
   37 Si                  14.0000    -2.70897073    -4.72322232     1.91138129
   38 O                    8.0000    -1.58890950     4.03271887     2.71856173
   39 O                    8.0000     3.49237788     3.21760780     3.43818966
   40 H                    1.0000     4.46091992    -5.91476852     2.80161087
   41 H                    1.0000    -4.31519737     6.72071614    -1.84271974
   42 Si                  14.0000    -5.15171100     4.47787479     1.05899109
   43 O                    8.0000    -0.87636254    -3.83967893    -5.56358201
   44 O                    8.0000    -0.67581545    -6.42767893    -1.26758492
   45 O                    8.0000     1.37177817    -4.14604919    -4.13361735
   46 Si                  14.0000    -0.16971197     4.42942565     2.03030301
   47 O                    8.0000    -1.98630530    -4.77753432     0.45646791
   48 H                    1.0000     1.61245789    -5.51415032    -3.16083087
   49 H                    1.0000    -0.39683021    -4.81569946     6.25758344
   50 Si                  14.0000     4.82874122     2.98382056     2.51252957
   51 O                    8.0000    -2.54691218    -4.56095604    -2.08858081
   52 O                    8.0000     1.68121604    -6.78864479    -0.02440067
   53 O                    8.0000    -0.17206008     6.00411986     1.51224881
   54 O                    8.0000     1.05528295    -4.93347850     3.23876307
   55 O                    8.0000    -5.79746779     0.56394616    -3.56527564
   56 O                    8.0000     2.49500359    -8.05193478     4.25931569
   57 O                    8.0000     4.89357127     4.12085136     1.32688074
   58 H                    1.0000    -6.84268020     8.61080419     0.53804929
   59 O                    8.0000    -2.42257652     0.07163596     0.47616196
   60 H                    1.0000     6.02226008    -1.25271926     0.35622560
   61 H                    1.0000     0.43624095    -1.02310341    -3.18033307
   62 O                    8.0000     0.52353727    -6.26836855    -5.48987268
   63 O                    8.0000     1.20510434    -1.18710825     4.11023824
   64 H                    1.0000    -5.54367092    -5.66978279    -2.83727510
   65 O                    8.0000    -4.27921559     2.58427307    -2.63313912
   66 O                    8.0000     0.76073436    -8.73619558    -1.64948847
   67 H                    1.0000    -4.73970492    -5.87801936     2.48744931
   68 O                    8.0000     0.34836819    -9.74127648     4.27593220
   69 H                    1.0000     7.07771233     2.96789240     3.36641456
   70 H                    1.0000     4.38819418    -1.49406871     5.69495551
   71 H                    1.0000    -3.30995319    -3.42332312    -7.54227218
   72 H                    1.0000    -3.45309009     4.98694705     5.19721816
   73 H                    1.0000     2.85089153     5.24613406     5.68293888
   74 O                    8.0000    -4.42168258     4.09638919    -0.37845379
   75 O                    8.0000     0.09701345     3.61807681     0.62304490
   76 H                    1.0000    -4.23888105     1.16230706     2.29351289
   77 H                    1.0000    -0.16834378     1.24660745     4.61280297
   78 O                    8.0000    -0.59341147    -4.56562306     5.34082727
   79 O                    8.0000    -1.62222108    -5.19605022     3.04907077
   80 O                    8.0000     1.34328441    -4.13436592    -6.95490964
   81 O                    8.0000    -1.53692132     6.47836590    -0.85985655
   82 H                    1.0000    -4.95661292     5.26844180    -3.61899663
   83 O                    8.0000     4.73479781     1.51282681     1.78284161
   84 O                    8.0000    -3.04891692     1.84094975     3.39306998
   85 O                    8.0000     1.37271914     2.06975389     4.77783937
   86 O                    8.0000     3.03386368     4.89423274    -0.38225955
   87 H                    1.0000    -4.59127378    -2.46464015    -1.14531459
   88 O                    8.0000    -4.39536707    -1.74685987     0.38029722
   89 O                    8.0000    -1.36833990    -2.18750423     4.27821042
   90 H                    1.0000     2.64498854     3.24262437    -0.58829643
   91 O                    8.0000    -4.19620725     3.98678721     2.29721735
   92 O                    8.0000    -4.88492871    -5.21054921    -3.37579662
   93 O                    8.0000    -4.06142640    -5.67013310     1.83173382
   94 O                    8.0000    -4.55539610     5.31012880    -2.73548284
   95 O                    8.0000     1.01631922     4.11742253     3.11601460
   96 H                    1.0000    -2.65952205    -2.66200658     3.02738411
   97 O                    8.0000    -3.22870064    -3.39770016    -4.34388852
   98 O                    8.0000    -0.27629809     2.48471054    -1.85434708
   99 H                    1.0000     2.61736464    -1.59868638    -0.35945265
  100 H                    1.0000    -6.86906217     2.89049712     1.32613162
  101 O                    8.0000     6.13336521     3.09457145     3.52663915
  102 H                    1.0000     1.28091518    -7.76820713     1.26290727
  103 O                    8.0000    -3.05664527     0.43015735    -3.50593696
  104 O                    8.0000    -1.73402774     1.32545737    -5.65283657
  105 H                    1.0000    -6.20121136    -0.31199571    -3.66765163
  106 Si                  14.0000    -2.19564743    -2.86935239    -5.50078053
  107 O                    8.0000    -0.39992624    -1.43142454    -0.45240891
  108 O                    8.0000     0.09465067     0.99063102     0.35930755
  109 O                    8.0000    -4.47013428     0.39239912    -1.18670428
  110 Si                  14.0000    -1.35876327    -4.95311499    -1.04812802
  111 H                    1.0000     2.30364909     5.57402233    -0.46004390
  112 H                    1.0000    -1.14933243    -2.97150483     4.85606175
  113 H                    1.0000    -2.35261032     1.29074254     3.85712378
  114 Si                  14.0000    -0.31245640    -5.51275706     3.96232261
  115 O                    8.0000    -0.05328450    -3.92266058    -1.20838143
  116 O                    8.0000    -5.97010002     8.57005583     0.12413081
  117 O                    8.0000     3.28808473    -0.01784107     0.05207754
  118 H                    1.0000     2.45906604    -3.66346693     0.40574605
  119 O                    8.0000     2.94712918    -3.09990606     3.37595655
  120 H                    1.0000    -1.55990743     1.22474968    -6.59906570
  121 H                    1.0000     1.36466181     7.32349340    -1.42752154
  122 Si                  14.0000    -4.41645804     0.93240707    -2.73696091
  123 H                    1.0000    -1.05749493     3.12370985    -2.01379063
  124 H                    1.0000     6.00296212     4.46844029    -1.64312689
  125 O                    8.0000    -3.50117214     8.22136268     1.33661349
  126 Si                  14.0000    -0.85544788    -0.31632737     0.64072546
  127 O                    8.0000    -0.58413485    -0.85643171     2.15778090
  128 O                    8.0000    -3.90917496     7.20878287    -1.06682043
  129 O                    8.0000    -0.76146865     8.51128034     0.66994442
  130 Si                  14.0000     2.79444384    -1.54623891     3.89782896
  131 H                    1.0000     2.87674055     0.83693225    -0.29417301
  132 O                    8.0000    -2.93964013    -2.72976843    -6.97888183
  133 O                    8.0000    -2.20302520     4.17790018    -1.91488109
  134 O                    8.0000     1.15084905     6.83172063    -0.61537244
  135 O                    8.0000     3.51091104    -1.25629063     5.36501126
  136 O                    8.0000    -5.22933705     6.13159782     1.03629766
  137 O                    8.0000     4.59338296     6.79530530     0.74902172
  138 O                    8.0000     5.72789179     5.17351614    -1.03628626
  139 Si                  14.0000    -3.03043042     3.50630517     3.34010145
  140 Si                  14.0000    -4.06545223    -0.10358582     0.32032716
  141 H                    1.0000    -2.59556305     8.54248964     1.13962547
  142 H                    1.0000    -0.24531215     9.11017197     1.23367470
  143 Si                  14.0000     2.07084909     3.50280332     4.20901991
  144 Si                  14.0000    -0.39157679    -0.93462253     3.78255492
  145 H                    1.0000     5.31016148     7.44466371     0.72852883
  146 O                    8.0000    -0.03238815    -7.09839751     4.23755785
  147 O                    8.0000     0.82687161    -1.90017869    -2.83055981
  148 H                    1.0000     1.83817261     1.47377020     5.39420827
  149 O                    8.0000     3.44992153    -0.59977370     2.72683666
  150 H                    1.0000    -4.06864660    -2.31268086     1.14452182
  151 H                    1.0000     0.59776340   -10.65387762     4.08350686
  152 H                    1.0000     0.51846633    -9.39930866    -0.98682862
  153 H                    1.0000     0.75513492    -6.79457743    -4.69328698
  154 Hg                  80.0000     6.36544976     2.53162872    -3.80216180

      Atomic Mass 
      ----------- 

      O                 15.994910
      H                  1.007825
      Si                27.976930
      Hg               201.970600


 Effective nuclear repulsion energy (a.u.)   48906.1693643979

            Nuclear Dipole moment (a.u.) 
            ----------------------------
        X                 Y               Z
 ---------------- ---------------- ----------------
     0.0000000000    -0.0000000000     0.0000000000



                                Z-matrix (autoz)
                                -------- 

 Units are Angstrom for bonds and degrees for angles

      Type          Name      I     J     K     L     M      Value
      ----------- --------  ----- ----- ----- ----- ----- ----------
    1 Stretch                  1    10                       1.66054
    2 Stretch                  1    60                       0.96691
    3 Stretch                  2   133                       1.01229
    4 Stretch                  3    56                       0.98607
    5 Stretch                  4   116                       1.65201
    6 Stretch                  4   125                       1.64689
    7 Stretch                  4   128                       1.70160
    8 Stretch                  4   136                       1.65795
    9 Stretch                  5    53                       1.64386
   10 Stretch                  5    81                       1.65517
   11 Stretch                  5   129                       1.68291
   12 Stretch                  5   134                       1.69849
   13 Stretch                  6    57                       1.64575
   14 Stretch                  6    86                       1.67823
   15 Stretch                  6   137                       1.65960
   16 Stretch                  6   138                       1.66036
   17 Stretch                  7    52                       0.99916
   18 Stretch                  8    65                       1.62324
   19 Stretch                  8    74                       1.63577
   20 Stretch                  8    94                       1.70056
   21 Stretch                  8   133                       1.68414
   22 Stretch                  9    33                       1.67965
   23 Stretch                  9    75                       1.64854
   24 Stretch                  9    98                       1.66751
   25 Stretch                  9   108                       1.63118
   26 Stretch                 10    83                       1.64690
   27 Stretch                 10   117                       1.67782
   28 Stretch                 10   149                       1.64046
   29 Stretch                 11    45                       1.00141
   30 Stretch                 12    19                       1.68737
   31 Stretch                 12    35                       1.63314
   32 Stretch                 12   103                       1.64437
   33 Stretch                 12   104                       1.66273
   34 Stretch                 13    23                       1.69423
   35 Stretch                 13   107                       1.63848
   36 Stretch                 13   115                       1.63433
   37 Stretch                 13   147                       1.66209
   38 Stretch                 14    27                       1.68600
   39 Stretch                 14    32                       1.65924
   40 Stretch                 14    54                       1.63648
   41 Stretch                 14   119                       1.64769
   42 Stretch                 15    81                       1.04607
   43 Stretch                 16    43                       1.64726
   44 Stretch                 16    45                       1.68869
   45 Stretch                 16    62                       1.65949
   46 Stretch                 16    80                       1.66842
   47 Stretch                 17    22                       1.65591
   48 Stretch                 17    44                       1.68022
   49 Stretch                 17    52                       1.69005
   50 Stretch                 17    66                       1.65168
   51 Stretch                 18    26                       1.65369
   52 Stretch                 18    56                       1.66886
   53 Stretch                 18    68                       1.65237
   54 Stretch                 18   146                       1.69722
   55 Stretch                 19    30                       1.00325
   56 Stretch                 20    72                       0.96621
   57 Stretch                 20   139                       1.65355
   58 Stretch                 21    73                       0.96621
   59 Stretch                 21   143                       1.65241
   60 Stretch                 22    48                       1.00358
   61 Stretch                 23    99                       1.00426
   62 Stretch                 24    76                       0.99922
   63 Stretch                 24   140                       1.66201
   64 Stretch                 25    77                       0.99956
   65 Stretch                 25   144                       1.68248
   66 Stretch                 26   102                       1.00039
   67 Stretch                 27    40                       0.97154
   68 Stretch                 28    36                       1.65055
   69 Stretch                 28    87                       0.99799
   70 Stretch                 29    37                       1.69047
   71 Stretch                 29    96                       0.99579
   72 Stretch                 31    80                       0.96812
   73 Stretch                 32   118                       1.02500
   74 Stretch                 33    90                       1.00609
   75 Stretch                 34    42                       1.65213
   76 Stretch                 34   100                       0.97227
   77 Stretch                 35   106                       1.65052
   78 Stretch                 36    51                       1.66162
   79 Stretch                 36    92                       1.66281
   80 Stretch                 36    97                       1.64109
   81 Stretch                 37    47                       1.62541
   82 Stretch                 37    79                       1.64284
   83 Stretch                 37    93                       1.65291
   84 Stretch                 38    46                       1.62641
   85 Stretch                 38   139                       1.65572
   86 Stretch                 39    50                       1.64237
   87 Stretch                 39   143                       1.64203
   88 Stretch                 41   128                       1.00254
   89 Stretch                 42    74                       1.65672
   90 Stretch                 42    91                       1.63932
   91 Stretch                 42   136                       1.65570
   92 Stretch                 43   106                       1.63890
   93 Stretch                 44   110                       1.63979
   94 Stretch                 46    53                       1.65772
   95 Stretch                 46    75                       1.64615
   96 Stretch                 46    95                       1.63792
   97 Stretch                 47   110                       1.63965
   98 Stretch                 49    78                       0.97037
   99 Stretch                 50    57                       1.64402
  100 Stretch                 50    83                       1.64472
  101 Stretch                 50   101                       1.65612
  102 Stretch                 51   110                       1.62728
  103 Stretch                 54   114                       1.65221
  104 Stretch                 55   105                       0.96993
  105 Stretch                 55   122                       1.65199
  106 Stretch                 58   116                       0.96664
  107 Stretch                 59   126                       1.62280
  108 Stretch                 59   140                       1.65953
  109 Stretch                 61   147                       1.02186
  110 Stretch                 62   153                       0.98239
  111 Stretch                 63   130                       1.64320
  112 Stretch                 63   144                       1.64940
  113 Stretch                 64    92                       0.96687
  114 Stretch                 65   122                       1.66081
  115 Stretch                 66   152                       0.96826
  116 Stretch                 67    93                       0.96604
  117 Stretch                 68   151                       0.96544
  118 Stretch                 69   101                       0.96618
  119 Stretch                 70   135                       0.96697
  120 Stretch                 71   132                       0.96724
  121 Stretch                 78   114                       1.69596
  122 Stretch                 79   114                       1.62783
  123 Stretch                 82    94                       0.97124
  124 Stretch                 84   113                       1.00146
  125 Stretch                 84   139                       1.66630
  126 Stretch                 85   143                       1.69250
  127 Stretch                 85   148                       0.97558
  128 Stretch                 86   111                       1.00069
  129 Stretch                 88   140                       1.67714
  130 Stretch                 88   150                       1.00545
  131 Stretch                 89   112                       0.99827
  132 Stretch                 89   144                       1.66417
  133 Stretch                 91   139                       1.63631
  134 Stretch                 95   143                       1.63843
  135 Stretch                 97   106                       1.63852
  136 Stretch                 98   123                       1.02177
  137 Stretch                103   122                       1.64094
  138 Stretch                104   120                       0.96737
  139 Stretch                106   132                       1.66066
  140 Stretch                107   126                       1.62662
  141 Stretch                108   126                       1.64013
  142 Stretch                109   122                       1.64249
  143 Stretch                109   140                       1.63735
  144 Stretch                110   115                       1.67087
  145 Stretch                114   146                       1.63354
  146 Stretch                117   131                       1.00982
  147 Stretch                119   130                       1.64607
  148 Stretch                121   134                       0.97321
  149 Stretch                124   154                       2.92302
  150 Stretch                124   138                       0.97008
  151 Stretch                125   141                       0.98084
  152 Stretch                126   127                       1.63303
  153 Stretch                127   144                       1.63801
  154 Stretch                129   142                       0.97102
  155 Stretch                130   135                       1.65832
  156 Stretch                130   149                       1.64215
  157 Stretch                137   145                       0.96740
  158 Bend                     1    10    83               112.12427
  159 Bend                     1    10   117               109.11080
  160 Bend                     1    10   149               106.72258
  161 Bend                     2   133     8               119.57869
  162 Bend                     3    56    18               123.54976
  163 Bend                     4   116    58               130.80551
  164 Bend                     4   125   141               133.02924
  165 Bend                     4   128    41               125.80359
  166 Bend                     4   136    42               148.61408
  167 Bend                     5    53    46               143.39268
  168 Bend                     5    81    15               128.12386
  169 Bend                     5   129   142               127.30815
  170 Bend                     5   134   121               123.26652
  171 Bend                     6    57    50               166.83338
  172 Bend                     6    86   111               123.88645
  173 Bend                     6   137   145               128.72446
  174 Bend                     6   138   124               132.67749
  175 Bend                     7    52    17               127.32314
  176 Bend                     8    65   122               154.90977
  177 Bend                     8    74    42               168.13029
  178 Bend                     8    94    82               124.73187
  179 Bend                     9    33    90               116.65292
  180 Bend                     9    75    46               159.01238
  181 Bend                     9    98   123               122.39581
  182 Bend                     9   108   126               154.76515
  183 Bend                    10     1    60               130.18735
  184 Bend                    10    83    50               161.28508
  185 Bend                    10   117   131               121.13406
  186 Bend                    10   149   130               165.28241
  187 Bend                    11    45    16               122.95289
  188 Bend                    12    19    30               120.66160
  189 Bend                    12    35   106               162.15911
  190 Bend                    12   103   122               169.30723
  191 Bend                    12   104   120               129.13343
  192 Bend                    13    23    99               119.46394
  193 Bend                    13   107   126               157.77919
  194 Bend                    13   115   110               152.09010
  195 Bend                    13   147    61               123.01703
  196 Bend                    14    27    40               123.96344
  197 Bend                    14    32   118               128.35350
  198 Bend                    14    54   114               170.69916
  199 Bend                    14   119   130               158.97816
  200 Bend                    16    43   106               171.17664
  201 Bend                    16    62   153               123.82554
  202 Bend                    16    80    31               126.45672
  203 Bend                    17    22    48               131.73374
  204 Bend                    17    44   110               138.84946
  205 Bend                    17    66   152               128.08018
  206 Bend                    18    26   102               136.78054
  207 Bend                    18    68   151               129.03142
  208 Bend                    18   146   114               138.88872
  209 Bend                    19    12    35               106.72592
  210 Bend                    19    12   103               107.54053
  211 Bend                    19    12   104               110.90382
  212 Bend                    20   139    38               110.21387
  213 Bend                    20   139    84               109.25119
  214 Bend                    20   139    91               112.93993
  215 Bend                    21   143    39               111.14293
  216 Bend                    21   143    85               106.51016
  217 Bend                    21   143    95               113.48552
  218 Bend                    22    17    44               108.12581
  219 Bend                    22    17    52               116.04766
  220 Bend                    22    17    66               108.13345
  221 Bend                    23    13   107               107.58715
  222 Bend                    23    13   115               109.01116
  223 Bend                    23    13   147               110.22582
  224 Bend                    24   140    59               106.62246
  225 Bend                    24   140    88               116.40231
  226 Bend                    24   140   109               112.50799
  227 Bend                    25   144    63               109.50564
  228 Bend                    25   144    89               113.33628
  229 Bend                    25   144   127               106.65202
  230 Bend                    26    18    56               112.72715
  231 Bend                    26    18    68               111.48195
  232 Bend                    26    18   146               109.12610
  233 Bend                    27    14    32               107.40804
  234 Bend                    27    14    54               106.03114
  235 Bend                    27    14   119               111.23074
  236 Bend                    28    36    51               110.34333
  237 Bend                    28    36    92               111.84473
  238 Bend                    28    36    97               111.49982
  239 Bend                    29    37    47               110.45339
  240 Bend                    29    37    79               106.39428
  241 Bend                    29    37    93               109.82368
  242 Bend                    32    14    54               112.40379
  243 Bend                    32    14   119               112.71618
  244 Bend                    33     9    75               108.83247
  245 Bend                    33     9    98               112.35940
  246 Bend                    33     9   108               106.44120
  247 Bend                    34    42    74               112.20425
  248 Bend                    34    42    91               111.18067
  249 Bend                    34    42   136               110.45594
  250 Bend                    35    12   103               111.74527
  251 Bend                    35    12   104               111.84453
  252 Bend                    35   106    43               109.38212
  253 Bend                    35   106    97               107.05213
  254 Bend                    35   106   132               106.06676
  255 Bend                    36    28    87               135.87480
  256 Bend                    36    51   110               170.05241
  257 Bend                    36    92    64               129.00614
  258 Bend                    36    97   106               163.08841
  259 Bend                    37    29    96               119.29282
  260 Bend                    37   110    44               110.93380
  261 Bend                    37   110    51               105.12702
  262 Bend                    37   110   115               111.53443
  263 Bend                    37    79   114               167.62559
  264 Bend                    37    93    67               131.68724
  265 Bend                    38    46    53               111.26673
  266 Bend                    38    46    75               112.51541
  267 Bend                    38    46    95               107.75119
  268 Bend                    38   139    84               109.83718
  269 Bend                    38   139    91               106.71830
  270 Bend                    39    50    57               109.88346
  271 Bend                    39    50    83               109.32259
  272 Bend                    39    50   101               106.63912
  273 Bend                    39   143    85               111.58017
  274 Bend                    39   143    95               108.00999
  275 Bend                    42    34   100               125.50016
  276 Bend                    42    91   139               169.94036
  277 Bend                    43    16    45               107.01158
  278 Bend                    43    16    62               115.99549
  279 Bend                    43    16    80               105.32100
  280 Bend                    43   106    97               110.10052
  281 Bend                    43   106   132               112.10457
  282 Bend                    44    17    52               105.85878
  283 Bend                    44    17    66               110.98353
  284 Bend                    44   110    47               112.24106
  285 Bend                    44   110    51               115.80010
  286 Bend                    44   110   115               102.49382
  287 Bend                    45    16    62               105.07395
  288 Bend                    45    16    80               114.37264
  289 Bend                    46   139    20               112.40326
  290 Bend                    46   139    84               107.68286
  291 Bend                    46   139    91               106.51788
  292 Bend                    46    95   143               168.43735
  293 Bend                    47    37    79               108.43000
  294 Bend                    47    37    93               107.54849
  295 Bend                    47   110    51               106.34762
  296 Bend                    47   110   115               108.72362
  297 Bend                    49    78   114               126.18703
  298 Bend                    50    39   143               173.57578
  299 Bend                    50   101    69               131.27258
  300 Bend                    51    36    92               111.43381
  301 Bend                    51    36    97               105.42160
  302 Bend                    51   110   115               111.13271
  303 Bend                    52    17    66               107.69407
  304 Bend                    53     5    81               114.68670
  305 Bend                    53     5   129               109.07572
  306 Bend                    53     5   134               104.25070
  307 Bend                    53    46    75               101.61079
  308 Bend                    53    46    95               112.89988
  309 Bend                    54    14   119               106.89120
  310 Bend                    54   114    78               107.29527
  311 Bend                    54   114    79               110.62001
  312 Bend                    54   114   146               105.79435
  313 Bend                    55   122    65               108.80003
  314 Bend                    55   122   103               112.92439
  315 Bend                    55   122   109               111.87599
  316 Bend                    56    18    68               110.67023
  317 Bend                    56    18   146               106.74115
  318 Bend                    57     6    86               105.24873
  319 Bend                    57     6   137               112.76755
  320 Bend                    57     6   138               110.60710
  321 Bend                    57    50    83               107.50908
  322 Bend                    57    50   101               111.36439
  323 Bend                    59   126   107               111.47999
  324 Bend                    59   126   108               110.57930
  325 Bend                    59   126   127               109.49448
  326 Bend                    59   140    88               107.14765
  327 Bend                    59   140   109               107.40491
  328 Bend                    62    16    80               109.34959
  329 Bend                    63   130   119               109.69345
  330 Bend                    63   130   135               105.38500
  331 Bend                    63   130   149               110.62719
  332 Bend                    63   144    89               113.18876
  333 Bend                    63   144   127               108.55221
  334 Bend                    65     8    74               113.05609
  335 Bend                    65     8    94               111.13087
  336 Bend                    65     8   133               110.27780
  337 Bend                    65   122   103               105.38142
  338 Bend                    65   122   109               105.70602
  339 Bend                    68    18   146               105.72772
  340 Bend                    70   135   130               130.60690
  341 Bend                    71   132   106               129.02736
  342 Bend                    72    20   139               132.33713
  343 Bend                    73    21   143               132.47097
  344 Bend                    74     8    94               105.41686
  345 Bend                    74     8   133               108.82220
  346 Bend                    74    42    91               109.24087
  347 Bend                    74    42   136               103.81324
  348 Bend                    75     9    98               112.03967
  349 Bend                    75     9   108               107.24716
  350 Bend                    75    46    95               110.82108
  351 Bend                    76    24   140               122.10566
  352 Bend                    77    25   144               119.71114
  353 Bend                    78   114    79               102.36065
  354 Bend                    78   114   146               115.69249
  355 Bend                    79    37    93               114.18922
  356 Bend                    79   114   146               114.91860
  357 Bend                    81     5   129               105.64759
  358 Bend                    81     5   134               108.50255
  359 Bend                    83    10   117               110.15420
  360 Bend                    83    10   149               107.24356
  361 Bend                    83    50   101               112.11548
  362 Bend                    84   139    91               107.80793
  363 Bend                    85   143    95               106.04187
  364 Bend                    86     6   137               108.36699
  365 Bend                    86     6   138               113.14265
  366 Bend                    88   140   109               106.32561
  367 Bend                    89   144   127               105.21089
  368 Bend                    91    42   136               109.68756
  369 Bend                    92    36    97               106.04653
  370 Bend                    94     8   133               107.90243
  371 Bend                    97   106   132               111.90588
  372 Bend                    98     9   108               109.64389
  373 Bend                   103    12   104               108.01779
  374 Bend                   103   122   109               111.63892
  375 Bend                   105    55   122               127.03714
  376 Bend                   107    13   115               106.73656
  377 Bend                   107    13   147               110.78986
  378 Bend                   107   126   108               105.58944
  379 Bend                   107   126   127               110.55131
  380 Bend                   108   126   127               109.06907
  381 Bend                   110    37    29               112.28805
  382 Bend                   110    37    79               109.52972
  383 Bend                   110    37    93               104.75348
  384 Bend                   112    89   144               129.41301
  385 Bend                   113    84   139               123.78728
  386 Bend                   115    13   147               112.31701
  387 Bend                   116     4   125               114.37804
  388 Bend                   116     4   128               109.68983
  389 Bend                   116     4   136               109.72639
  390 Bend                   117    10   149               111.44903
  391 Bend                   119   130   135               113.91959
  392 Bend                   119   130   149               106.31394
  393 Bend                   122   109   140               163.78836
  394 Bend                   125     4   128               104.04940
  395 Bend                   125     4   136               111.29062
  396 Bend                   126    59   140               160.09924
  397 Bend                   126   127   144               163.09615
  398 Bend                   128     4   136               107.34395
  399 Bend                   129     5   134               114.96516
  400 Bend                   130    63   144               160.74938
  401 Bend                   135   130   149               110.95701
  402 Bend                   137     6   138               106.80762
  403 Bend                   138   124   154               168.18624
  404 Bend                   139    46    53               113.01849
  405 Bend                   139    46    75               110.12639
  406 Bend                   139    46    95               108.26046
  407 Bend                   140    88   150               120.97378
  408 Bend                   143    85   148               122.19424
  409 Torsion                  1    10    83    50        -135.46503
  410 Torsion                  1    10   117   131        -139.21978
  411 Torsion                  1    10   149   130         -29.31085
  412 Torsion                  2   133     8    65         175.51580
  413 Torsion                  2   133     8    74         -59.94058
  414 Torsion                  2   133     8    94          53.96688
  415 Torsion                  3    56    18    26          53.64533
  416 Torsion                  3    56    18    68         179.26345
  417 Torsion                  3    56    18   146         -66.15285
  418 Torsion                  4   136    42    34        -138.91437
  419 Torsion                  4   136    42    74         -18.44568
  420 Torsion                  4   136    42    91          98.19521
  421 Torsion                  5    53    46    38        -100.51086
  422 Torsion                  5    53    46    75          19.45403
  423 Torsion                  5    53    46    95         138.18613
  424 Torsion                  6    57    50    39         -30.95318
  425 Torsion                  6    57    50    83          87.93181
  426 Torsion                  6    57    50   101        -148.88624
  427 Torsion                  6   138   124   154          83.63266
  428 Torsion                  7    52    17    22          42.03829
  429 Torsion                  7    52    17    44         -77.88402
  430 Torsion                  7    52    17    66         163.34019
  431 Torsion                  8    65   122    55         145.17541
  432 Torsion                  8    65   122   103         -93.46518
  433 Torsion                  8    65   122   109          24.87113
  434 Torsion                  8    74    42    34          83.53640
  435 Torsion                  8    74    42    91        -152.69723
  436 Torsion                  8    74    42   136         -35.74377
  437 Torsion                  9    75    46    38         -78.87025
  438 Torsion                  9    75    46    53         162.05092
  439 Torsion                  9    75    46    95          41.84284
  440 Torsion                  9   108   126    59         -35.86946
  441 Torsion                  9   108   126   107          84.84975
  442 Torsion                  9   108   126   127        -156.33024
  443 Torsion                 10    83    50    39         -14.74107
  444 Torsion                 10    83    50    57        -133.98546
  445 Torsion                 10    83    50   101         103.29465
  446 Torsion                 10   149   130    63        -132.72936
  447 Torsion                 10   149   130   119         -13.69408
  448 Torsion                 10   149   130   135         110.67274
  449 Torsion                 11    45    16    43         -35.68680
  450 Torsion                 11    45    16    62        -159.54172
  451 Torsion                 11    45    16    80          80.54225
  452 Torsion                 12    35   106    43        -150.24909
  453 Torsion                 12    35   106    97         -30.97584
  454 Torsion                 12    35   106   132          88.65699
  455 Torsion                 12   103   122    55          76.39363
  456 Torsion                 12   103   122    65         -42.24239
  457 Torsion                 12   103   122   109        -156.52132
  458 Torsion                 13   107   126    59         175.76311
  459 Torsion                 13   107   126   108          55.63355
  460 Torsion                 13   107   126   127         -62.19583
  461 Torsion                 13   115   110    44         176.62385
  462 Torsion                 13   115   110    47         -64.39961
  463 Torsion                 13   115   110    51          52.32027
  464 Torsion                 14    54   114    78          90.17533
  465 Torsion                 14    54   114    79        -158.92637
  466 Torsion                 14    54   114   146         -33.87803
  467 Torsion                 14   119   130    63          23.79836
  468 Torsion                 14   119   130   135         141.63916
  469 Torsion                 14   119   130   149         -95.84682
  470 Torsion                 15    81     5    53         104.00790
  471 Torsion                 15    81     5   129         -16.14359
  472 Torsion                 15    81     5   134        -139.91888
  473 Torsion                 16    43   106    35           2.37573
  474 Torsion                 16    43   106    97        -114.99636
  475 Torsion                 16    43   106   132         119.73349
  476 Torsion                 17    44   110    47        -110.50898
  477 Torsion                 17    44   110    51         127.11716
  478 Torsion                 17    44   110   115           5.96740
  479 Torsion                 18   146   114    54         -22.11976
  480 Torsion                 18   146   114    78        -140.73634
  481 Torsion                 18   146   114    79         100.22195
  482 Torsion                 19    12    35   106         126.73364
  483 Torsion                 19    12   103   122         117.32426
  484 Torsion                 19    12   104   120         106.25854
  485 Torsion                 20   139    46    53         -76.18003
  486 Torsion                 20   139    46    75         170.95305
  487 Torsion                 20   139    46    95          49.65027
  488 Torsion                 46    38    20   139        -175.21637
  489 Torsion                 20   139    84   113         -65.73575
  490 Torsion                 20   139    91    42         143.74559
  491 Torsion                 21   143    39    50        -129.24146
  492 Torsion                 21   143    85   148         -63.58254
  493 Torsion                 21   143    95    46        -132.37693
  494 Torsion                 22    17    44   110         -61.22588
  495 Torsion                 22    17    66   152         171.92011
  496 Torsion                 23    13   107   126          10.63399
  497 Torsion                 23    13   115   110         140.46918
  498 Torsion                 23    13   147    61        -114.12195
  499 Torsion                 24   140    59   126         126.90023
  500 Torsion                 24   140    88   150         -65.50112
  501 Torsion                 24   140   109   122         121.29697
  502 Torsion                 25   144    63   130        -129.15062
  503 Torsion                 25   144    89   112        -114.68156
  504 Torsion                 25   144   127   126           8.49691
  505 Torsion                 26    18    68   151          54.20011
  506 Torsion                 26    18   146   114         -47.45679
  507 Torsion                 27    14    32   118        -150.12022
  508 Torsion                 27    14    54   114          14.79155
  509 Torsion                 27    14   119   130        -162.29800
  510 Torsion                 28    36    51   110           3.70068
  511 Torsion                 28    36    92    64         -45.76261
  512 Torsion                 28    36    97   106         107.44709
  513 Torsion                 29    37   110    44         168.37401
  514 Torsion                 29    37   110    51         -65.74329
  515 Torsion                 29    37   110   115          54.79860
  516 Torsion                 37    29    47   110         171.89696
  517 Torsion                 29    37    79   114         -85.99727
  518 Torsion                 29    37    93    67         -59.34035
  519 Torsion                 30    19    12    35        -174.62086
  520 Torsion                 30    19    12   103         -54.57488
  521 Torsion                 30    19    12   104          63.32794
  522 Torsion                 31    80    16    43        -152.93039
  523 Torsion                 31    80    16    45          89.86677
  524 Torsion                 31    80    16    62         -27.62989
  525 Torsion                 32    14    27    40          44.16797
  526 Torsion                 32    14    54   114         131.86586
  527 Torsion                 32    14   119   130          76.99902
  528 Torsion                 33     9    75    46         -82.28153
  529 Torsion                 33     9    98   123        -134.98946
  530 Torsion                 33     9   108   126        -142.28216
  531 Torsion                 34    42    91   139         146.24543
  532 Torsion                 35    12   103   122        -125.86642
  533 Torsion                 35    12   104   120         -12.75469
  534 Torsion                 35   106    97    36         -76.66286
  535 Torsion                 35   106   132    71         177.86505
  536 Torsion                 36    51   110    44         155.75560
  537 Torsion                 36    51   110    47          30.31050
  538 Torsion                 36    51   110   115         -87.85526
  539 Torsion                 36    97   106    43          42.14607
  540 Torsion                 36    97   106   132         167.52952
  541 Torsion                 37    79   114    54          -0.55493
  542 Torsion                 37    79   114    78         113.50184
  543 Torsion                 37    79   114   146        -120.25613
  544 Torsion                 38    46    95   143          54.49141
  545 Torsion                 38   139    20    72          72.47535
  546 Torsion                 38   139    84   113          55.26627
  547 Torsion                 38   139    91    42          22.48826
  548 Torsion                 39    50   101    69         176.21276
  549 Torsion                 39   143    21    73          39.63351
  550 Torsion                 39   143    85   148          57.87069
  551 Torsion                 39   143    95    46         103.92601
  552 Torsion                 40    27    14    54         164.54424
  553 Torsion                 40    27    14   119         -79.60998
  554 Torsion                 41   128     4   116         -63.07103
  555 Torsion                 41   128     4   125         174.14617
  556 Torsion                 41   128     4   136          56.09390
  557 Torsion                 42    74     8    65        -118.01981
  558 Torsion                 42    74     8    94           3.56717
  559 Torsion                 42    74     8   133         119.09076
  560 Torsion                 42    91   139    84         -95.45768
  561 Torsion                 42   136     4   116         136.90775
  562 Torsion                 42   136     4   125         -95.47816
  563 Torsion                 42   136     4   128          17.76630
  564 Torsion                 43    16    62   153        -107.26314
  565 Torsion                 43   106   132    71          58.54231
  566 Torsion                 44    17    22    48          49.31230
  567 Torsion                 44    17    66   152         -69.64100
  568 Torsion                 44   110    37    79          50.40179
  569 Torsion                 44   110    37    93         -72.48598
  570 Torsion                 37    47    44   110         171.56193
  571 Torsion                 45    16    43   106          43.50168
  572 Torsion                 45    16    62   153          10.66938
  573 Torsion                 46    53     5    81          40.61276
  574 Torsion                 46    53     5   129         158.84551
  575 Torsion                 46    53     5   134         -77.88365
  576 Torsion                 46    75     9    98         152.85024
  577 Torsion                 46    75     9   108          32.49012
  578 Torsion                 46    95   143    85         -15.80340
  579 Torsion                 47    37    29    96        -110.49098
  580 Torsion                 47    37    79   114          32.81808
  581 Torsion                 47    37    93    67        -179.57785
  582 Torsion                 48    22    17    52         -69.37567
  583 Torsion                 48    22    17    66         169.55710
  584 Torsion                 49    78   114    54        -102.04872
  585 Torsion                 49    78   114    79         141.47452
  586 Torsion                 49    78   114   146          15.73631
  587 Torsion                 50    39   143    85         112.03221
  588 Torsion                 50    39   143    95          -4.14009
  589 Torsion                 50    57     6    86         -23.54348
  590 Torsion                 50    57     6   137          94.40070
  591 Torsion                 50    57     6   138        -146.07172
  592 Torsion                 50    83    10   117         102.82072
  593 Torsion                 50    83    10   149         -18.63062
  594 Torsion                 51    36    28    87         -12.10335
  595 Torsion                 51    36    92    64          78.27527
  596 Torsion                 51    36    97   106         -12.30569
  597 Torsion                 51   110    37    79         176.28449
  598 Torsion                 51   110    37    93          53.39672
  599 Torsion                 37    47    51   110        -171.91341
  600 Torsion                 52    17    44   110          63.75640
  601 Torsion                 52    17    66   152          45.79911
  602 Torsion                 53     5   129   142          60.86559
  603 Torsion                 53     5   134   121        -177.28568
  604 Torsion                 53    46   139    84         163.43962
  605 Torsion                 53    46   139    91          48.01299
  606 Torsion                 46    53    38   139        -173.00060
  607 Torsion                 53    46    95   143         177.76595
  608 Torsion                 54    14    32   118          93.62919
  609 Torsion                 54    14   119   130         -46.98310
  610 Torsion                 55   122   109   140         159.55782
  611 Torsion                 56    18    26   102         -45.76392
  612 Torsion                 56    18    68   151         -72.11497
  613 Torsion                 56    18   146   114          74.63843
  614 Torsion                 57     6    86   111         129.49033
  615 Torsion                 57     6   137   145          97.20072
  616 Torsion                 57     6   138   124          59.87562
  617 Torsion                 57    50    39   143          35.73949
  618 Torsion                 57    50   101    69         -63.91480
  619 Torsion                 58   116     4   125        -100.16612
  620 Torsion                 58   116     4   128         143.39549
  621 Torsion                 58   116     4   136          25.70634
  622 Torsion                 59   126   127   144         -69.99374
  623 Torsion                 59   140    24    76         -17.23551
  624 Torsion                 59   140    88   150          53.66976
  625 Torsion                 59   140   109   122           4.27025
  626 Torsion                 60     1    10    83         -90.77366
  627 Torsion                 60     1    10   117          31.53597
  628 Torsion                 60     1    10   149         152.07952
  629 Torsion                 61   147    13   107           4.84610
  630 Torsion                 61   147    13   115         124.10852
  631 Torsion                 62    16    43   106         160.35900
  632 Torsion                 63   130   135    70         167.44163
  633 Torsion                 63   144    25    77          18.87097
  634 Torsion                 63   144    89   112          10.79810
  635 Torsion                 63   144   127   126        -109.40765
  636 Torsion                 64    92    36    97        -167.50901
  637 Torsion                 65     8    94    82         -13.07197
  638 Torsion                 65   122    55   105        -170.42096
  639 Torsion                 65   122   109   140         -82.17093
  640 Torsion                 66    17    44   110        -179.66939
  641 Torsion                 67    93    37    79          60.05495
  642 Torsion                 68    18    26   102        -170.94181
  643 Torsion                 68    18   146   114        -167.47927
  644 Torsion                 69   101    50    83          56.59441
  645 Torsion                 70   135   130   119          47.15017
  646 Torsion                 70   135   130   149         -72.77972
  647 Torsion                 71   132   106    97         -65.72942
  648 Torsion                 72    20   139    84        -166.75216
  649 Torsion                 72    20   139    91         -46.78049
  650 Torsion                 73    21   143    85         161.36481
  651 Torsion                 73    21   143    95         -82.33666
  652 Torsion                 74     8    65   122         -49.19345
  653 Torsion                 74     8    94    82        -135.89966
  654 Torsion                 74    42    34   100          72.96303
  655 Torsion                 74    42    91   139          21.87690
  656 Torsion                 75     9    33    90         -37.21045
  657 Torsion                 75     9    98   123         -12.09547
  658 Torsion                 75     9   108   126         101.35690
  659 Torsion                 75    46   139    84          50.57270
  660 Torsion                 75    46   139    91         -64.85392
  661 Torsion                 46    75    38   139        -177.17213
  662 Torsion                 75    46    95   143         -69.00646
  663 Torsion                 76    24   140    88         102.21930
  664 Torsion                 76    24   140   109        -134.72691
  665 Torsion                 77    25   144    89         146.29972
  666 Torsion                 77    25   144   127         -98.40432
  667 Torsion                 79    37    29    96           6.98940
  668 Torsion                 79    37   110   115         -63.17362
  669 Torsion                 37    79    47   110        -170.69331
  670 Torsion                 80    16    43   106         -78.58986
  671 Torsion                 80    16    62   153         133.86790
  672 Torsion                 81     5   129   142        -175.36909
  673 Torsion                 81     5   134   121          60.07165
  674 Torsion                 82    94     8   133         107.94630
  675 Torsion                 83    10   117   131         -15.73254
  676 Torsion                 83    10   149   130        -149.64272
  677 Torsion                 83    50    39   143         -82.02517
  678 Torsion                 84   139    46    95         -70.73008
  679 Torsion                 46    38    84   139        -175.94331
  680 Torsion                 86     6   137   145        -146.70238
  681 Torsion                 86     6   138   124         -57.91841
  682 Torsion                 87    28    36    92         112.54365
  683 Torsion                 87    28    36    97        -128.90275
  684 Torsion                 88   140    59   126           1.60657
  685 Torsion                 88   140   109   122        -110.17240
  686 Torsion                 89   144    63   130         103.33790
  687 Torsion                 89   144   127   126         129.14761
  688 Torsion                 90    33     9    98          87.46988
  689 Torsion                 90    33     9   108        -152.50461
  690 Torsion                 91    42    34   100         -49.71286
  691 Torsion                 91   139    46    95         173.84329
  692 Torsion                 46    38    91   139         171.62189
  693 Torsion                 91   139    84   113         171.18424
  694 Torsion                 92    36    51   110        -121.18118
  695 Torsion                 92    36    97   106        -130.58594
  696 Torsion                 93    37    29    96         131.05077
  697 Torsion                 93    37   110   115         173.93861
  698 Torsion                 37    93    47   110         178.42825
  699 Torsion                 93    37    79   114         152.69190
  700 Torsion                 94     8    65   122        -167.50373
  701 Torsion                 46    95    38   139         171.47475
  702 Torsion                 95   143    85   148         175.23775
  703 Torsion                 97    36    51   110         124.21514
  704 Torsion                 98     9   108   126         -20.51436
  705 Torsion                 99    23    13   107         -62.44968
  706 Torsion                 99    23    13   115        -177.83675
  707 Torsion                 99    23    13   147          58.45419
  708 Torsion                100    34    42   136        -171.72846
  709 Torsion                101    50    39   143         156.56391
  710 Torsion                102    26    18   146          72.64764
  711 Torsion                103    12    35   106           9.43262
  712 Torsion                103    12   104   120        -136.12943
  713 Torsion                103   122    55   105          72.95125
  714 Torsion                103   122   109   140          31.90690
  715 Torsion                104    12    35   106        -111.81004
  716 Torsion                104    12   103   122          -2.43151
  717 Torsion                105    55   122   109         -54.00834
  718 Torsion                107    13   115   110          24.53532
  719 Torsion                107   126    59   140          50.24477
  720 Torsion                107   126   127   144         166.80605
  721 Torsion                108     9    98   123         106.86063
  722 Torsion                108   126    59   140         167.38911
  723 Torsion                108   126   127   144          51.13092
  724 Torsion                109   140    59   126        -112.28519
  725 Torsion                109   140    88   150         168.28772
  726 Torsion                110   115    13   147         -97.07146
  727 Torsion                111    86     6   137           8.61605
  728 Torsion                111    86     6   138        -109.62959
  729 Torsion                112    89   144   127         129.16856
  730 Torsion                114    54    14   119        -103.96017
  731 Torsion                115    13   107   126         127.51620
  732 Torsion                 37    47   115   110         179.13153
  733 Torsion                116     4   125   141        -107.61125
  734 Torsion                117    10   149   130          89.72325
  735 Torsion                118    32    14   119         -27.25398
  736 Torsion                119   130    63   144         -61.76513
  737 Torsion                121   134     5   129         -57.93250
  738 Torsion                122    65     8   133          72.88410
  739 Torsion                124   138     6   137        -177.06701
  740 Torsion                126   107    13   147        -109.91493
  741 Torsion                127   126    59   140         -72.40446
  742 Torsion                127   144    63   130         -13.07533
  743 Torsion                128     4   125   141          12.03971
  744 Torsion                131   117    10   149         103.17922
  745 Torsion                134     5   129   142         -55.76969
  746 Torsion                135   130    63   144         175.20091
  747 Torsion                136     4   125   141         127.33779
  748 Torsion                136    42    91   139         -91.29380
  749 Torsion                138     6   137   145         -24.50162
  750 Torsion                144    63   130   149          55.20436
  751 Torsion                146    18    68   151         172.66566


            XYZ format geometry
            -------------------
   154
 geometry
 O                     5.54872476    -1.03518016     1.17069803
 H                    -1.80000384     5.03697295    -1.56231127
 H                     3.04296083    -7.27219640     4.00616936
 Si                   -4.68875567     7.56532780     0.40307311
 Si                   -0.34330378     6.95565578     0.18275826
 Si                    4.58220478     5.24247385     0.16347916
 H                     2.10084155    -5.92777734     0.26044044
 Si                   -3.87593499     3.98374294    -1.91638031
 Si                    0.50797958     2.38124363    -0.38642649
 Si                    4.25765804    -0.02143275     1.42138687
 H                     1.29730855    -3.22635628    -3.74446208
 Si                   -1.74187727     0.16883287    -4.45833494
 Si                    0.60934888    -2.42997104    -1.27025865
 Si                    2.53881316    -4.53411402     2.67508889
 H                    -2.48480886     6.90030253    -0.99306792
 Si                    0.57914377    -4.61091187    -5.55040846
 Si                    0.85249097    -7.09746544    -1.46458378
 Si                    0.96655454    -8.34051648     3.65461680
 O                    -0.37211183     0.30230175    -3.48204628
 O                    -3.24605983     4.10277153     4.86717880
 O                     2.29231714     4.47310068     5.52808831
 O                     1.52089782    -6.46035360    -2.83912085
 O                     2.08960189    -2.44866030    -0.44630110
 O                    -4.75805493     0.83300821     1.50581348
 O                    -0.86153281     0.55980049     4.39622679
 O                     0.92291856    -8.34013491     2.00150004
 O                     3.57285643    -5.77102585     3.16845564
 O                    -4.62171279    -2.80386954    -2.08338859
 O                    -3.14270924    -3.13541096     2.29662002
 H                    -0.21387121     1.12659065    -2.93248956
 H                     2.01102056    -4.63552909    -7.44503349
 O                     2.59078953    -4.47510553     1.01771709
 O                     2.17884763     2.35164702    -0.55537857
 O                    -6.66675224     3.83034515     1.18100063
 O                    -1.73318815    -1.34289554    -5.07619485
 Si                   -3.85008210    -3.98327762    -2.94239967
 Si                   -2.70897073    -4.72322232     1.91138129
 O                    -1.58890950     4.03271887     2.71856173
 O                     3.49237788     3.21760780     3.43818966
 H                     4.46091992    -5.91476852     2.80161087
 H                    -4.31519737     6.72071614    -1.84271974
 Si                   -5.15171100     4.47787479     1.05899109
 O                    -0.87636254    -3.83967893    -5.56358201
 O                    -0.67581545    -6.42767893    -1.26758492
 O                     1.37177817    -4.14604919    -4.13361735
 Si                   -0.16971197     4.42942565     2.03030301
 O                    -1.98630530    -4.77753432     0.45646791
 H                     1.61245789    -5.51415032    -3.16083087
 H                    -0.39683021    -4.81569946     6.25758344
 Si                    4.82874122     2.98382056     2.51252957
 O                    -2.54691218    -4.56095604    -2.08858081
 O                     1.68121604    -6.78864479    -0.02440067
 O                    -0.17206008     6.00411986     1.51224881
 O                     1.05528295    -4.93347850     3.23876307
 O                    -5.79746779     0.56394616    -3.56527564
 O                     2.49500359    -8.05193478     4.25931569
 O                     4.89357127     4.12085136     1.32688074
 H                    -6.84268020     8.61080419     0.53804929
 O                    -2.42257652     0.07163596     0.47616196
 H                     6.02226008    -1.25271926     0.35622560
 H                     0.43624095    -1.02310341    -3.18033307
 O                     0.52353727    -6.26836855    -5.48987268
 O                     1.20510434    -1.18710825     4.11023824
 H                    -5.54367092    -5.66978279    -2.83727510
 O                    -4.27921559     2.58427307    -2.63313912
 O                     0.76073436    -8.73619558    -1.64948847
 H                    -4.73970492    -5.87801936     2.48744931
 O                     0.34836819    -9.74127648     4.27593220
 H                     7.07771233     2.96789240     3.36641456
 H                     4.38819418    -1.49406871     5.69495551
 H                    -3.30995319    -3.42332312    -7.54227218
 H                    -3.45309009     4.98694705     5.19721816
 H                     2.85089153     5.24613406     5.68293888
 O                    -4.42168258     4.09638919    -0.37845379
 O                     0.09701345     3.61807681     0.62304490
 H                    -4.23888105     1.16230706     2.29351289
 H                    -0.16834378     1.24660745     4.61280297
 O                    -0.59341147    -4.56562306     5.34082727
 O                    -1.62222108    -5.19605022     3.04907077
 O                     1.34328441    -4.13436592    -6.95490964
 O                    -1.53692132     6.47836590    -0.85985655
 H                    -4.95661292     5.26844180    -3.61899663
 O                     4.73479781     1.51282681     1.78284161
 O                    -3.04891692     1.84094975     3.39306998
 O                     1.37271914     2.06975389     4.77783937
 O                     3.03386368     4.89423274    -0.38225955
 H                    -4.59127378    -2.46464015    -1.14531459
 O                    -4.39536707    -1.74685987     0.38029722
 O                    -1.36833990    -2.18750423     4.27821042
 H                     2.64498854     3.24262437    -0.58829643
 O                    -4.19620725     3.98678721     2.29721735
 O                    -4.88492871    -5.21054921    -3.37579662
 O                    -4.06142640    -5.67013310     1.83173382
 O                    -4.55539610     5.31012880    -2.73548284
 O                     1.01631922     4.11742253     3.11601460
 H                    -2.65952205    -2.66200658     3.02738411
 O                    -3.22870064    -3.39770016    -4.34388852
 O                    -0.27629809     2.48471054    -1.85434708
 H                     2.61736464    -1.59868638    -0.35945265
 H                    -6.86906217     2.89049712     1.32613162
 O                     6.13336521     3.09457145     3.52663915
 H                     1.28091518    -7.76820713     1.26290727
 O                    -3.05664527     0.43015735    -3.50593696
 O                    -1.73402774     1.32545737    -5.65283657
 H                    -6.20121136    -0.31199571    -3.66765163
 Si                   -2.19564743    -2.86935239    -5.50078053
 O                    -0.39992624    -1.43142454    -0.45240891
 O                     0.09465067     0.99063102     0.35930755
 O                    -4.47013428     0.39239912    -1.18670428
 Si                   -1.35876327    -4.95311499    -1.04812802
 H                     2.30364909     5.57402233    -0.46004390
 H                    -1.14933243    -2.97150483     4.85606175
 H                    -2.35261032     1.29074254     3.85712378
 Si                   -0.31245640    -5.51275706     3.96232261
 O                    -0.05328450    -3.92266058    -1.20838143
 O                    -5.97010002     8.57005583     0.12413081
 O                     3.28808473    -0.01784107     0.05207754
 H                     2.45906604    -3.66346693     0.40574605
 O                     2.94712918    -3.09990606     3.37595655
 H                    -1.55990743     1.22474968    -6.59906570
 H                     1.36466181     7.32349340    -1.42752154
 Si                   -4.41645804     0.93240707    -2.73696091
 H                    -1.05749493     3.12370985    -2.01379063
 H                     6.00296212     4.46844029    -1.64312689
 O                    -3.50117214     8.22136268     1.33661349
 Si                   -0.85544788    -0.31632737     0.64072546
 O                    -0.58413485    -0.85643171     2.15778090
 O                    -3.90917496     7.20878287    -1.06682043
 O                    -0.76146865     8.51128034     0.66994442
 Si                    2.79444384    -1.54623891     3.89782896
 H                     2.87674055     0.83693225    -0.29417301
 O                    -2.93964013    -2.72976843    -6.97888183
 O                    -2.20302520     4.17790018    -1.91488109
 O                     1.15084905     6.83172063    -0.61537244
 O                     3.51091104    -1.25629063     5.36501126
 O                    -5.22933705     6.13159782     1.03629766
 O                     4.59338296     6.79530530     0.74902172
 O                     5.72789179     5.17351614    -1.03628626
 Si                   -3.03043042     3.50630517     3.34010145
 Si                   -4.06545223    -0.10358582     0.32032716
 H                    -2.59556305     8.54248964     1.13962547
 H                    -0.24531215     9.11017197     1.23367470
 Si                    2.07084909     3.50280332     4.20901991
 Si                   -0.39157679    -0.93462253     3.78255492
 H                     5.31016148     7.44466371     0.72852883
 O                    -0.03238815    -7.09839751     4.23755785
 O                     0.82687161    -1.90017869    -2.83055981
 H                     1.83817261     1.47377020     5.39420827
 O                     3.44992153    -0.59977370     2.72683666
[...]
  501            502            503            504            505         
  506            507            508            509            510         
  511            512            513            514            515         
  516            517            518            519            520         
  521            522            523            524            525         
  526            527            528            529            530         
  531            532            533            534            535         
  536            537            538            539            540         
  541            542            543            544            545         
  546            547            548            549            550         
  551            552            553            554            555         
  556            557            558            559            560         
  561            562            563            564            565         
  566            567            568            569            570         
  571            572            573            574            575         
  576            577            578            579            580         
  581            582            583            584            585         
  586            587            588            589            590         
  591            592            593            594            595         
  596            597            598            599            600         
  601            602            603            604            605         
  606            607            608            609            610         
  611            612            613            614            615         
  616            617            618            619            620         
  621            622            623            624            625         
  626            627            628            629            630         
  631            632            633            634            635         
  636            637            638            639            640         
  641            642            643            644            645         
  646            647            648            649            650         
  651            652            653            654            655         
  656            657            658            659            660         
  661            662            663            664            665         
  666            667            668            669            670         
  671            672            673            674            675         
  676            677            678            679            680         
  681            682            683            684            685         
  686            687            688            689            690         
  691            692            693            694            695         
  696            697            698            699            700         
  701            702            703            704            705         
  706            707            708            709            710         
  711            712            713            714            715         
  716            717            718            719            720         
  721            722            723            724            725         
  726            727            728            729            730         
  731            732            733            734            735         
  736            737            738            739            740         
  741            742            743            744            745         
  746            747            748            749            750         
  751         

 Variables with the same non-blank name are constrained to be equal


 Using diagonal initial Hessian 
 Scaling for Hessian diagonals: bonds = 1.00  angles = 0.25  torsions = 0.10

          --------
          Step   0
          --------

                                 NWChem DFT Module
                                 -----------------


                                   Hg@Quartz ecp


                      Basis "ao basis" -> "ao basis" (cartesian)
                      -----
  O (Oxygen)
  ----------
            Exponent  Coefficients 
       -------------- ---------------------------------------------------------
  1 S  7.81700000E+03  0.001176
  1 S  1.17600000E+03  0.008968
  1 S  2.73200000E+02  0.042868
  1 S  8.11700000E+01  0.143930
  1 S  2.71800000E+01  0.355630
  1 S  9.53200000E+00  0.461248
  1 S  3.41400000E+00  0.140206

  2 S  9.53200000E+00 -0.154153
  2 S  9.39800000E-01  1.056914

  3 S  2.84600000E-01  1.000000

  4 P  3.51800000E+01  0.019580
  4 P  7.90400000E+00  0.124200
  4 P  2.30500000E+00  0.394714
  4 P  7.17100000E-01  0.627376

  5 P  2.13700000E-01  1.000000

  H (Hydrogen)
  ------------
            Exponent  Coefficients 
       -------------- ---------------------------------------------------------
  1 S  1.92384000E+01  0.032828
  1 S  2.89870000E+00  0.231204
  1 S  6.53500000E-01  0.817226

  2 S  1.77600000E-01  1.000000

  Si (Silicon)
  ------------
            Exponent  Coefficients 
       -------------- ---------------------------------------------------------
  1 S  1.22200000E+00 -0.570734
  1 S  2.59500000E-01  1.282383

  2 S  9.31000000E-02  1.000000

  3 P  2.58000000E+00 -0.077725
  3 P  2.98400000E-01  1.019787

  4 P  8.85000000E-02  1.000000

  Hg (Mercury)
  ------------
            Exponent  Coefficients 
       -------------- ---------------------------------------------------------
  1 S  5.27500000E-01 -0.491168
  1 S  2.33400000E-01  0.604407

  2 S  6.86100000E-02  1.000000

  3 P  6.50300000E-01 -0.067227
  3 P  1.36800000E-01  0.497902

  4 P  4.25600000E-02  1.000000

  5 D  1.48400000E+00  0.489993
  5 D  5.60500000E-01  0.493271

  6 D  1.92300000E-01  1.000000



 Summary of "ao basis" -> "ao basis" (cartesian)
 ------------------------------------------------------------------------------
       Tag                 Description            Shells   Functions and Types
 ---------------- ------------------------------  ------  ---------------------
 O                        lanl2dz ecp                5        9   3s2p
 H                        lanl2dz ecp                2        2   2s
 Si                       lanl2dz ecp                4        8   2s2p
 Hg                       lanl2dz ecp                6       20   2s2p2d



  Caching 1-el integrals 
  vdw 4: scaling factors not available                   0
 ------------------------------------------------------------------------
 ------------------------------------------------------------------------
  current input line : 
     0: 
 ------------------------------------------------------------------------
 ------------------------------------------------------------------------
 This error has not yet been assigned to a category
 ------------------------------------------------------------------------
 For more information see the NWChem manual at https://nwchemgit.github.io


 For further details see manual section: No section for this category                                                                                                                                                                                                                                   
  vdw 4: scaling factors not available                   0
 ------------------------------------------------------------------------
 ------------------------------------------------------------------------
  current input line : 
     0: 
 ------------------------------------------------------------------------
 ------------------------------------------------------------------------
 This error has not yet been assigned to a category
 ------------------------------------------------------------------------
 For more information see the NWChem manual at https://nwchemgit.github.io


 For further details see manual section: No section for this category                                                                                                                                                                                                                                   
  vdw 4: scaling factors not available                   0
 ------------------------------------------------------------------------
 ------------------------------------------------------------------------
  current input line : 
     0: 
 ------------------------------------------------------------------------
 ------------------------------------------------------------------------
 This error has not yet been assigned to a category
 ------------------------------------------------------------------------
 For more information see the NWChem manual at https://nwchemgit.github.io


 For further details see manual section: No section for this category                                                                                                                                                                                                                                   
  vdw 4: scaling factors not available                   0
 ------------------------------------------------------------------------
 ------------------------------------------------------------------------
  current input line : 
     0: 
 ------------------------------------------------------------------------
 ------------------------------------------------------------------------
 This error has not yet been assigned to a category
 ------------------------------------------------------------------------
 For more information see the NWChem manual at https://nwchemgit.github.io


 For further details see manual section: No section for this category                                                                                                                                                                                                                                   
  vdw 4: scaling factors not available                   0
 ------------------------------------------------------------------------
 ------------------------------------------------------------------------
  current input line : 
     0: 
 ------------------------------------------------------------------------
 ------------------------------------------------------------------------
 This error has not yet been assigned to a category
 ------------------------------------------------------------------------
 For more information see the NWChem manual at https://nwchemgit.github.io


 For further details see manual section: No section for this category                                                                                                                                                                                                                                   
  vdw 4: scaling factors not available                   0
 ------------------------------------------------------------------------
 ------------------------------------------------------------------------
  current input line : 
     0: 
 ------------------------------------------------------------------------
 ------------------------------------------------------------------------
 This error has not yet been assigned to a category
 ------------------------------------------------------------------------
 For more information see the NWChem manual at https://nwchemgit.github.io


 For further details see manual section: No section for this category                                                                                                                                                                                                                                   
  vdw 4: scaling factors not available                   0
 ------------------------------------------------------------------------
 ------------------------------------------------------------------------
  current input line : 
     0: 
 ------------------------------------------------------------------------
 ------------------------------------------------------------------------
 This error has not yet been assigned to a category
 ------------------------------------------------------------------------
 For more information see the NWChem manual at https://nwchemgit.github.io


 For further details see manual section: No section for this category                                                                                                                                                                                                                                   
 ------------------------------------------------------------------------
  vdw 4: scaling factors not available                   0
 ------------------------------------------------------------------------
 ------------------------------------------------------------------------
  current input line : 
    34: task dft optimize
 ------------------------------------------------------------------------
 ------------------------------------------------------------------------
 This error has not yet been assigned to a category
 ------------------------------------------------------------------------
 For more information see the NWChem manual at https://nwchemgit.github.io


 For further details see manual section: No section for this category                                                                                                                                                                                                                                   
  vdw 4: scaling factors not available                   0
 ------------------------------------------------------------------------
 ------------------------------------------------------------------------
  current input line : 
     0: 
 ------------------------------------------------------------------------
 ------------------------------------------------------------------------
 This error has not yet been assigned to a category
 ------------------------------------------------------------------------
 For more information see the NWChem manual at https://nwchemgit.github.io


 For further details see manual section: No section for this category                                                                                                                                                                                                                                   
  vdw 4: scaling factors not available                   0
 ------------------------------------------------------------------------
 ------------------------------------------------------------------------
  current input line : 
     0: 
 ------------------------------------------------------------------------
 ------------------------------------------------------------------------
 This error has not yet been assigned to a category
 ------------------------------------------------------------------------
 For more information see the NWChem manual at https://nwchemgit.github.io


 For further details see manual section: No section for this category                                                                                                                                                                                                                                   
  vdw 4: scaling factors not available                   0
 ------------------------------------------------------------------------
 ------------------------------------------------------------------------
  current input line : 
     0: 
 ------------------------------------------------------------------------
 ------------------------------------------------------------------------
 This error has not yet been assigned to a category
 ------------------------------------------------------------------------
 For more information see the NWChem manual at https://nwchemgit.github.io


 For further details see manual section: No section for this category                                                                                                                                                                                                                                   
  vdw 4: scaling factors not available                   0
 ------------------------------------------------------------------------
 ------------------------------------------------------------------------
  current input line : 
     0: 
 ------------------------------------------------------------------------
 ------------------------------------------------------------------------
 This error has not yet been assigned to a category
 ------------------------------------------------------------------------
 For more information see the NWChem manual at https://nwchemgit.github.io


 For further details see manual section: No section for this category                                                                                                                                                                                                                                   
  vdw 4: scaling factors not available                   0
 ------------------------------------------------------------------------
 ------------------------------------------------------------------------
  current input line : 
     0: 
 ------------------------------------------------------------------------
 ------------------------------------------------------------------------
 This error has not yet been assigned to a category
 ------------------------------------------------------------------------
 For more information see the NWChem manual at https://nwchemgit.github.io


 For further details see manual section: No section for this category                                                                                                                                                                                                                                   
  vdw 4: scaling factors not available                   0
 ------------------------------------------------------------------------
 ------------------------------------------------------------------------
  current input line : 
     0: 
 ------------------------------------------------------------------------
 ------------------------------------------------------------------------
 This error has not yet been assigned to a category
 ------------------------------------------------------------------------
 For more information see the NWChem manual at https://nwchemgit.github.io


 For further details see manual section: No section for this category                                                                                                                                                                                                                                   
  vdw 4: scaling factors not available                   0
 ------------------------------------------------------------------------
 ------------------------------------------------------------------------
  current input line : 
     0: 
 ------------------------------------------------------------------------
 ------------------------------------------------------------------------
 This error has not yet been assigned to a category
 ------------------------------------------------------------------------
 For more information see the NWChem manual at https://nwchemgit.github.io


 For further details see manual section: No section for this category                                                                                                                                                                                                                                   
