 argument  1 = /lustre/ukt/milias/work/projects/open-collection/theoretical_chemistry/projects/adsorbate_on_surface/on_quartz/quartz/nwchem/Quartz-G_molecular_slab_153atoms/ecp/Hg_on_quartz/HgQ.geopt_ecp_b3lyp.nw



============================== echo of input deck ==============================
echo

start molecule

print low

title "Hg@Quartz ecp"
charge 0

geometry units angstroms print xyz autosym
  load format xyz HgQgeom.xyz
end

basis
 * library lanl2dz_ecp
end

ecp
  Si library lanl2dz_ecp
  Hg library lanl2dz_ecp
end

dft
  xc b3lyp
  maxiter 100
end

driver
  maxiter 999
  xyz HgQgeomconv
end

task dft optimize

#task dft frequencies

================================================================================


                                         
                                         


             Northwest Computational Chemistry Package (NWChem) 7.2.0
             --------------------------------------------------------


                    Environmental Molecular Sciences Laboratory
                       Pacific Northwest National Laboratory
                                Richland, WA 99352

                              Copyright (c) 1994-2022
                       Pacific Northwest National Laboratory
                            Battelle Memorial Institute

             NWChem is an open-source computational chemistry package
                        distributed under the terms of the
                      Educational Community License (ECL) 2.0
             A copy of the license is included with this distribution
                              in the LICENSE.TXT file

                                  ACKNOWLEDGMENT
                                  --------------

            This software and its documentation were developed at the
            EMSL at Pacific Northwest National Laboratory, a multiprogram
            national laboratory, operated for the U.S. Department of Energy
            by Battelle under Contract Number DE-AC05-76RL01830. Support
            for this work was provided by the Department of Energy Office
            of Biological and Environmental Research, Office of Basic
            Energy Sciences, and the Office of Advanced Scientific Computing.


           Job information
           ---------------

    hostname        = lxbk1175
    program         = /lustre/ukt/milias/work/software/nwchem/nwchem-7.2.0_gnu_openmpi_openblas/bin/LINUX64/nwchem
    date            = Thu Aug 10 10:28:50 2023

    compiled        = Sun_Jul_02_11:55:06_2023
    source          = /lustre/ukt/milias/work/software/nwchem/nwchem-7.2.0_gnu_openmpi_openblas
    nwchem branch   = 7.2.0
    nwchem revision = v7.2.0-beta1-192-gd0d141fdfb
    ga revision     = 5.8.0
    use scalapack   = F
    input           = /lustre/ukt/milias/work/projects/open-collection/theoretical_chemistry/projects/adsorbate_on_surface/on_quartz/quartz/nwchem/Quartz-G_molecular_slab_153atoms/ecp/Hg_on_quartz/HgQ.geopt_ecp_b3lyp.nw
    prefix          = molecule.
    data base       = ./molecule.db
    status          = startup
    nproc           =      140
    time left       =     -1s



           Memory information
           ------------------

    heap     =   26214400 doubles =    200.0 Mbytes
    stack    =   26214397 doubles =    200.0 Mbytes
    global   =   52428800 doubles =    400.0 Mbytes (distinct from heap & stack)
    total    =  104857597 doubles =    800.0 Mbytes
    verify   = yes
    hardfail = no 


           Directory information
           ---------------------

  0 permanent = .
  0 scratch   = .




                                NWChem Input Module
                                -------------------


                                   Hg@Quartz ecp
                                   -------------

 Scaling coordinates for geometry "geometry" by  1.889725989
 (inverse scale =  0.529177249)


          ------
          auto-z
          ------
  autoz: The atoms group into disjoint clusters
 cluster   1:    1    2    3    4    5    6    7    8    9   10   11
                12   13   14   15   16   17   18   19   20   21   22
                23   24   25   26   27   28   29   30   31   32   33
                34   35   36   37   38   39   40   41   42   43   44
                45   46   47   48   49   50   51   52   53   54   55
                56   57   58   59   60   61   62   63   64   65   66
                67   68   69   70   71   72   73   74   75   76   77
                78   79   80   81   82   83   84   85   86   87   88
                89   90   91   92   93   94   95   96   97   98   99
               100  101  102  103  104  105  106  107  108  109  110
               111  112  113  114  115  116  117  118  119  120  121
               122  123  124  125  126  127  128  129  130  131  132
               133  134  135  136  137  138  139  140  141  142  143
               144  145  146  147  148  149  150  151  152  153
 cluster   2:  154
 Connecting clusters   1   2 via atoms  124  154 r = 3.29
  autoz: regenerating connections with new bonds
  no constraints, skipping    0.0000000000000000     
  no constraints, skipping    0.0000000000000000     


                             Geometry "geometry" -> ""
                             -------------------------

 Output coordinates in angstroms (scale by  1.889725989 to convert to a.u.)

  No.       Tag          Charge          X              Y              Z
 ---- ---------------- ---------- -------------- -------------- --------------
    1 O                    8.0000     5.38824505    -1.02515473     1.70764588
    2 H                    1.0000    -1.67978144     5.03673036    -1.69486040
    3 H                    1.0000     2.63990661    -7.26959896     4.27744924
    4 Si                  14.0000    -4.73811284     7.56565300    -0.01014439
    5 Si                  14.0000    -0.39348125     6.95488636     0.18071920
    6 Si                  14.0000     4.50369395     5.26709221     0.64925425
    7 H                    1.0000     2.05799296    -5.91910746     0.45892349
    8 Si                  14.0000    -3.71248393     3.98743349    -2.24946500
    9 Si                  14.0000     0.51639833     2.38866563    -0.31220964
   10 Si                  14.0000     4.07778590    -0.01375766     1.83718586
   11 H                    1.0000     1.62963052    -3.20497089    -3.59432227
   12 Si                  14.0000    -1.33353547     0.18870208    -4.58455087
   13 Si                  14.0000     0.70905224    -2.42031905    -1.19600735
   14 Si                  14.0000     2.25951882    -4.53035288     2.90995769
   15 H                    1.0000    -2.41559862     6.90083069    -1.19164521
   16 Si                  14.0000     1.09147799    -4.58278060    -5.46661324
   17 Si                  14.0000     0.98147364    -7.08449875    -1.38068712
   18 Si                  14.0000     0.60968880    -8.34185907     3.72562567
   19 O                    8.0000    -0.06516228     0.31816549    -3.47948711
   20 O                    8.0000    -3.72664433     4.08987611     4.56300651
   21 O                    8.0000     1.71820185     4.45862597     5.75423287
   22 O                    8.0000     1.77558433    -6.43949896    -2.68250366
   23 O                    8.0000     2.10372341    -2.43904964    -0.23434040
   24 O                    8.0000    -4.90331411     0.82523227     1.06565341
   25 O                    8.0000    -1.30537521     0.55086545     4.31109238
   26 O                    8.0000     0.72619840    -8.33729267     2.07609436
   27 O                    8.0000     3.24488919    -5.76603129     3.49707069
   28 O                    8.0000    -4.41810047    -2.80053285    -2.50269507
   29 O                    8.0000    -3.36504026    -3.14350548     1.99244319
   30 H                    1.0000     0.04088174     1.14115084    -2.91536410
   31 H                    1.0000     2.70127502    -4.59307664    -7.21319782
   32 O                    8.0000     2.47024968    -4.46588629     1.26572542
   33 O                    8.0000     2.19561689     2.36158822    -0.32121107
   34 O                    8.0000    -6.78355558     3.83413276     0.57328842
   35 O                    8.0000    -1.26333012    -1.32014303    -5.20538845
   36 Si                  14.0000    -3.56641013    -3.97423682    -3.29077464
   37 Si                  14.0000    -2.89306800    -4.72959366     1.64671970
   38 O                    8.0000    -1.87117343     4.02947995     2.58274067
   39 O                    8.0000     3.11873663     3.21379129     3.78531634
   40 H                    1.0000     4.16423443    -5.90677447     3.21646742
   41 H                    1.0000    -4.15428499     6.72252956    -2.21205719
   42 Si                  14.0000    -5.26223687     4.47783298     0.59389108
   43 O                    8.0000    -0.35759026    -3.81383851    -5.61621084
   44 O                    8.0000    -0.56111130    -6.42036235    -1.32665110
   45 O                    8.0000     1.74292566    -4.12322940    -3.97786836
   46 Si                  14.0000    -0.39263529     4.42851670     2.03488244
   47 O                    8.0000    -2.03697777    -4.77884163     0.26615367
   48 H                    1.0000     1.89350361    -5.49224970    -2.99275678
   49 H                    1.0000    -1.00461423    -4.82684247     6.19278689
   50 Si                  14.0000     4.53726366     2.98703179     2.98931743
   51 O                    8.0000    -2.34921752    -4.55476179    -2.31994183
   52 O                    8.0000     1.66838935    -6.77946886     0.13322497
   53 O                    8.0000    -0.34645376     6.00462102     1.52161281
   54 O                    8.0000     0.72995798    -4.93508074     3.32811094
   55 O                    8.0000    -5.45802144     0.56369954    -4.08315405
   56 O                    8.0000     2.07125277    -8.05012347     4.47641999
   57 O                    8.0000     4.70907878     4.13239543     1.82252007
   58 H                    1.0000    -6.89425799     8.61337624    -0.07676637
   59 O                    8.0000    -2.47984461     0.07262531     0.25857619
   60 H                    1.0000     5.93223355    -1.24608270     0.93952201
   61 H                    1.0000     0.71601129    -1.00732499    -3.10978280
   62 O                    8.0000     1.03415712    -6.24063247    -5.41837784
   63 O                    8.0000     0.78421605    -1.18958632     4.21980463
   64 H                    1.0000    -5.26084968    -5.66198583    -3.35599914
   65 O                    8.0000    -4.04865146     2.59021443    -3.00428161
   66 O                    8.0000     0.91315934    -8.72246980    -1.58052514
   67 H                    1.0000    -4.96602870    -5.89027419     2.02738648
   68 O                    8.0000    -0.06112247    -9.74606814     4.28091928
   69 H                    1.0000     6.69430759     2.95576739     4.05389824
   70 H                    1.0000     3.79730531    -1.49504928     6.10509089
   71 H                    1.0000    -2.59875318    -3.39572188    -7.81362113
   72 H                    1.0000    -3.96691791     4.97232532     4.87429747
   73 H                    1.0000     2.25177183     5.23577170     5.96534855
   74 O                    8.0000    -4.40279245     4.09963803    -0.77078931
   75 O                    8.0000     0.00770579     3.62152876     0.65689772
   76 H                    1.0000    -4.46144365     1.15474913     1.89898366
   77 H                    1.0000    -0.63691895     1.23775448     4.59493781
   78 O                    8.0000    -1.11445847    -4.57510967     5.26215321
   79 O                    8.0000    -1.91648080    -5.20139849     2.88066817
   80 O                    8.0000     1.98571266    -4.09813994    -6.78896500
   81 O                    8.0000    -1.48449523     6.47848231    -0.96913311
   82 H                    1.0000    -4.62027973     5.27810090    -4.04579251
   83 O                    8.0000     4.51710187     1.52037342     2.24500348
   84 O                    8.0000    -3.38562105     1.83316806     3.10803543
   85 O                    8.0000     0.88276574     2.05656529     4.90600853
   86 O                    8.0000     3.02772166     4.90643364    -0.06265493
   87 H                    1.0000    -4.47634413    -2.46450905    -1.56474235
   88 O                    8.0000    -4.43060585    -1.74999550    -0.02914766
   89 O                    8.0000    -1.79071061    -2.19757051     4.13842903
   90 H                    1.0000     2.66308081     3.25215207    -0.30848079
   91 O                    8.0000    -4.42606252     3.98163347     1.91367034
   92 O                    8.0000    -4.55330347    -5.20067672    -3.82625377
   93 O                    8.0000    -4.22929065    -5.68001747     1.43914175
   94 O                    8.0000    -4.30749313     5.31688813    -3.12717626
   95 O                    8.0000     0.68394894     4.11413504     3.22873902
   96 H                    1.0000    -2.95586130    -2.67156792     2.76785204
   97 O                    8.0000    -2.81583822    -3.38121861    -4.62421493
   98 O                    8.0000    -0.12443663     2.49637603    -1.84796563
   99 H                    1.0000     2.61852837    -1.58789093    -0.09446956
  100 H                    1.0000    -7.00294038     2.89493305     0.69402260
  101 O                    8.0000     5.74063292     3.09421348     4.12193303
  102 H                    1.0000     1.14913594    -7.76188716     1.37560579
  103 O                    8.0000    -2.73517170     0.44486407    -3.76363339
  104 O                    8.0000    -1.21136142     1.35136991    -5.76684214
  105 H                    1.0000    -5.84876126    -0.31334471    -4.22004677
  106 Si                  14.0000    -1.67908834    -2.84639045    -5.67628265
  107 O                    8.0000    -0.37488611    -1.42472395    -0.47594643
  108 O                    8.0000     0.03560522     0.99544684     0.38673161
  109 O                    8.0000    -4.36215449     0.39352598    -1.58920715
  110 Si                  14.0000    -1.26610870    -4.94800726    -1.17102415
  111 H                    1.0000     2.30340103     5.58153045    -0.21189462
  112 H                    1.0000    -1.62582966    -2.98377331     4.73149502
  113 H                    1.0000    -2.73649811     1.28191583     3.63541750
  114 Si                  14.0000    -0.70010997    -5.51847351     3.91474514
  115 O                    8.0000     0.04605497    -3.91404599    -1.20050928
  116 O                    8.0000    -5.98720200     8.57085818    -0.40785727
  117 O                    8.0000     3.24133380    -0.00869073     0.38285309
  118 H                    1.0000     2.39438420    -3.65345222     0.64472243
  119 O                    8.0000     2.59457083    -3.09736801     3.65179703
  120 H                    1.0000    -0.94217313     1.25629887    -6.69100843
  121 H                    1.0000     1.44808136     7.31572075    -1.27396293
  122 Si                  14.0000    -4.16449790     0.93777800    -3.12617791
  123 H                    1.0000    -0.89209771     3.13045826    -2.07799175
  124 H                    1.0000     6.10556702     4.56810420    -1.03845266
  125 O                    8.0000    -3.64297453     8.22083526     1.03102677
  126 Si                  14.0000    -0.93512929    -0.31366051     0.57158831
  127 O                    8.0000    -0.81023172    -0.85804599     2.10607067
  128 O                    8.0000    -3.82401730     7.20928221    -1.40034673
  129 O                    8.0000    -0.85249029     8.51126528     0.62626744
  130 Si                  14.0000     2.38740625    -1.54548036     4.15990257
  131 H                    1.0000     2.86546297     0.84707158     0.00034431
  132 O                    8.0000    -2.27956280    -2.70385741    -7.21796907
  133 O                    8.0000    -2.04695612     4.17849898    -2.08633822
  134 O                    8.0000     1.16718298     6.82941068    -0.47915563
  135 O                    8.0000     2.95781095    -1.25513065     5.68978625
  136 O                    8.0000    -5.33564776     6.13175084     0.56891714
  137 O                    8.0000     4.42918452     6.80951173     1.25682598
  138 O                    8.0000     5.77227911     5.23612796    -0.42114110
  139 Si                  14.0000    -3.36478649     3.49864873     3.06172482
  140 Si                  14.0000    -4.10031683    -0.10590659    -0.05218048
  141 H                    1.0000    -2.72374154     8.54376431     0.91959279
  142 H                    1.0000    -0.39179818     9.10787524     1.23828272
  143 Si                  14.0000     1.62865021     3.49425892     4.41581930
  144 Si                  14.0000    -0.77499882    -0.94095715     3.74150132
  145 H                    1.0000     5.13415414     7.46772415     1.32909733
  146 O                    8.0000    -0.44546911    -7.10443615     4.21193520
  147 O                    8.0000     1.07297294    -1.88521584    -2.72693759
  148 H                    1.0000     1.29452288     1.44938931     5.54911292
  149 O                    8.0000     3.15085875    -0.59425896     3.06015784
  150 H                    1.0000    -4.17778788    -2.31791108     0.76120908
  151 H                    1.0000     0.20857023   -10.65738224     4.11174013
  152 H                    1.0000     0.61264681    -9.39032537    -0.94737735
  153 H                    1.0000     1.18981052    -6.76974091    -4.60563997
  154 Hg                  80.0000     7.00288030     2.46504200    -3.40133049

      Atomic Mass 
      ----------- 

      O                 15.994910
      H                  1.007825
      Si                27.976930
      Hg               201.970600


 Effective nuclear repulsion energy (a.u.)   48743.6559745008

            Nuclear Dipole moment (a.u.) 
            ----------------------------
        X                 Y               Z
 ---------------- ---------------- ----------------
    -0.0000000000     0.0000000000    -0.0000000000



                                Z-matrix (autoz)
                                -------- 

 Units are Angstrom for bonds and degrees for angles

      Type          Name      I     J     K     L     M      Value
      ----------- --------  ----- ----- ----- ----- ----- ----------
    1 Stretch                  1    10                       1.66042
    2 Stretch                  1    60                       0.96682
    3 Stretch                  2   133                       1.01224
    4 Stretch                  3    56                       0.98599
    5 Stretch                  4   116                       1.65192
    6 Stretch                  4   125                       1.64701
    7 Stretch                  4   128                       1.70154
    8 Stretch                  4   136                       1.65784
    9 Stretch                  5    53                       1.64414
   10 Stretch                  5    81                       1.65512
   11 Stretch                  5   129                       1.68271
   12 Stretch                  5   134                       1.69907
   13 Stretch                  6    57                       1.64508
   14 Stretch                  6    86                       1.67791
   15 Stretch                  6   137                       1.65944
   16 Stretch                  6   138                       1.66012
   17 Stretch                  7    52                       0.99905
   18 Stretch                  8    65                       1.62326
   19 Stretch                  8    74                       1.63573
   20 Stretch                  8    94                       1.70055
   21 Stretch                  8   133                       1.68437
   22 Stretch                  9    33                       1.67946
   23 Stretch                  9    75                       1.64860
   24 Stretch                  9    98                       1.66758
   25 Stretch                  9   108                       1.63118
   26 Stretch                 10    83                       1.64708
   27 Stretch                 10   117                       1.67773
   28 Stretch                 10   149                       1.64068
   29 Stretch                 11    45                       1.00157
   30 Stretch                 12    19                       1.68722
   31 Stretch                 12    35                       1.63309
   32 Stretch                 12   103                       1.64442
   33 Stretch                 12   104                       1.66269
   34 Stretch                 13    23                       1.69418
   35 Stretch                 13   107                       1.63848
   36 Stretch                 13   115                       1.63426
   37 Stretch                 13   147                       1.66208
   38 Stretch                 14    27                       1.68599
   39 Stretch                 14    32                       1.65893
   40 Stretch                 14    54                       1.63652
   41 Stretch                 14   119                       1.64804
   42 Stretch                 15    81                       1.04635
   43 Stretch                 16    43                       1.64726
   44 Stretch                 16    45                       1.68877
   45 Stretch                 16    62                       1.65954
   46 Stretch                 16    80                       1.66828
   47 Stretch                 17    22                       1.65571
   48 Stretch                 17    44                       1.68035
   49 Stretch                 17    52                       1.69021
   50 Stretch                 17    66                       1.65153
   51 Stretch                 18    26                       1.65365
   52 Stretch                 18    56                       1.66882
   53 Stretch                 18    68                       1.65231
   54 Stretch                 18   146                       1.69737
   55 Stretch                 19    30                       1.00339
   56 Stretch                 20    72                       0.96610
   57 Stretch                 20   139                       1.65358
   58 Stretch                 21    73                       0.96603
   59 Stretch                 21   143                       1.65208
   60 Stretch                 22    48                       1.00371
   61 Stretch                 23    99                       1.00452
   62 Stretch                 24    76                       0.99913
   63 Stretch                 24   140                       1.66174
   64 Stretch                 25    77                       0.99961
   65 Stretch                 25   144                       1.68264
   66 Stretch                 26   102                       1.00033
   67 Stretch                 27    40                       0.97146
   68 Stretch                 28    36                       1.65046
   69 Stretch                 28    87                       0.99803
   70 Stretch                 29    37                       1.69055
   71 Stretch                 29    96                       0.99570
   72 Stretch                 31    80                       0.96797
   73 Stretch                 32   118                       1.02540
   74 Stretch                 33    90                       1.00588
   75 Stretch                 34    42                       1.65202
   76 Stretch                 34   100                       0.97201
   77 Stretch                 35   106                       1.65046
   78 Stretch                 36    51                       1.66165
   79 Stretch                 36    92                       1.66278
   80 Stretch                 36    97                       1.64106
   81 Stretch                 37    47                       1.62520
   82 Stretch                 37    79                       1.64285
   83 Stretch                 37    93                       1.65284
   84 Stretch                 38    46                       1.62649
   85 Stretch                 38   139                       1.65592
   86 Stretch                 39    50                       1.64233
   87 Stretch                 39   143                       1.64212
   88 Stretch                 41   128                       1.00244
   89 Stretch                 42    74                       1.65651
   90 Stretch                 42    91                       1.63927
   91 Stretch                 42   136                       1.65573
   92 Stretch                 43   106                       1.63888
   93 Stretch                 44   110                       1.63984
   94 Stretch                 46    53                       1.65822
   95 Stretch                 46    75                       1.64631
   96 Stretch                 46    95                       1.63804
   97 Stretch                 47   110                       1.63961
   98 Stretch                 49    78                       0.97032
   99 Stretch                 50    57                       1.64402
  100 Stretch                 50    83                       1.64484
  101 Stretch                 50   101                       1.65602
  102 Stretch                 51   110                       1.62720
  103 Stretch                 54   114                       1.65214
  104 Stretch                 55   105                       0.96986
  105 Stretch                 55   122                       1.65195
  106 Stretch                 58   116                       0.96653
  107 Stretch                 59   126                       1.62276
  108 Stretch                 59   140                       1.65963
  109 Stretch                 61   147                       1.02210
  110 Stretch                 62   153                       0.98220
  111 Stretch                 63   130                       1.64331
  112 Stretch                 63   144                       1.64977
  113 Stretch                 64    92                       0.96673
  114 Stretch                 65   122                       1.66097
  115 Stretch                 66   152                       0.96810
  116 Stretch                 67    93                       0.96593
  117 Stretch                 68   151                       0.96532
  118 Stretch                 69   101                       0.96607
  119 Stretch                 70   135                       0.96685
  120 Stretch                 71   132                       0.96714
  121 Stretch                 78   114                       1.69621
  122 Stretch                 79   114                       1.62770
  123 Stretch                 82    94                       0.97118
  124 Stretch                 84   113                       1.00168
  125 Stretch                 84   139                       1.66625
  126 Stretch                 85   143                       1.69222
  127 Stretch                 85   148                       0.97560
  128 Stretch                 86   111                       1.00133
  129 Stretch                 88   140                       1.67710
  130 Stretch                 88   150                       1.00554
  131 Stretch                 89   112                       0.99851
  132 Stretch                 89   144                       1.66382
  133 Stretch                 91   139                       1.63634
  134 Stretch                 95   143                       1.63886
  135 Stretch                 97   106                       1.63862
  136 Stretch                 98   123                       1.02190
  137 Stretch                103   122                       1.64082
  138 Stretch                104   120                       0.96726
  139 Stretch                106   132                       1.66063
  140 Stretch                107   126                       1.62655
  141 Stretch                108   126                       1.64020
  142 Stretch                109   122                       1.64242
  143 Stretch                109   140                       1.63721
  144 Stretch                110   115                       1.67084
  145 Stretch                114   146                       1.63354
  146 Stretch                117   131                       1.00991
  147 Stretch                119   130                       1.64604
  148 Stretch                121   134                       0.97320
  149 Stretch                124   154                       3.28804
  150 Stretch                124   138                       0.96872
  151 Stretch                125   141                       0.98066
  152 Stretch                126   127                       1.63297
  153 Stretch                127   144                       1.63791
  154 Stretch                129   142                       0.97095
  155 Stretch                130   135                       1.65838
  156 Stretch                130   149                       1.64229
  157 Stretch                137   145                       0.96719
  158 Bend                     1    10    83               112.09596
  159 Bend                     1    10   117               109.12883
  160 Bend                     1    10   149               106.76965
  161 Bend                     2   133     8               119.49236
  162 Bend                     3    56    18               123.55281
  163 Bend                     4   116    58               130.83717
  164 Bend                     4   125   141               133.03461
  165 Bend                     4   128    41               125.89353
  166 Bend                     4   136    42               148.56808
  167 Bend                     5    53    46               143.22501
  168 Bend                     5    81    15               128.17953
  169 Bend                     5   129   142               127.28637
  170 Bend                     5   134   121               123.05202
  171 Bend                     6    57    50               166.82224
  172 Bend                     6    86   111               123.68452
  173 Bend                     6   137   145               128.84259
  174 Bend                     6   138   124               133.36520
  175 Bend                     7    52    17               127.29431
  176 Bend                     8    65   122               154.80912
  177 Bend                     8    74    42               168.33524
  178 Bend                     8    94    82               124.72682
  179 Bend                     9    33    90               116.76443
  180 Bend                     9    75    46               159.00752
  181 Bend                     9    98   123               122.41615
  182 Bend                     9   108   126               154.74834
  183 Bend                    10     1    60               130.18349
  184 Bend                    10    83    50               161.05636
  185 Bend                    10   117   131               121.09364
  186 Bend                    10   149   130               165.17702
  187 Bend                    11    45    16               122.91809
  188 Bend                    12    19    30               120.70505
  189 Bend                    12    35   106               162.17956
  190 Bend                    12   103   122               169.49414
  191 Bend                    12   104   120               129.13231
  192 Bend                    13    23    99               119.44290
  193 Bend                    13   107   126               157.81235
  194 Bend                    13   115   110               152.14845
  195 Bend                    13   147    61               123.02922
  196 Bend                    14    27    40               123.96514
  197 Bend                    14    32   118               128.43620
  198 Bend                    14    54   114               170.77349
  199 Bend                    14   119   130               158.92919
  200 Bend                    16    43   106               171.19550
  201 Bend                    16    62   153               123.82942
  202 Bend                    16    80    31               126.52008
  203 Bend                    17    22    48               131.83830
  204 Bend                    17    44   110               138.81563
  205 Bend                    17    66   152               128.16316
  206 Bend                    18    26   102               136.87757
  207 Bend                    18    68   151               129.04816
  208 Bend                    18   146   114               138.81354
  209 Bend                    19    12    35               106.71244
  210 Bend                    19    12   103               107.56852
  211 Bend                    19    12   104               110.90567
  212 Bend                    20   139    38               110.20501
  213 Bend                    20   139    84               109.23281
  214 Bend                    20   139    91               112.92453
  215 Bend                    21   143    39               111.19663
  216 Bend                    21   143    85               106.56773
  217 Bend                    21   143    95               113.40749
  218 Bend                    22    17    44               108.15653
  219 Bend                    22    17    52               116.04154
  220 Bend                    22    17    66               108.12335
  221 Bend                    23    13   107               107.56929
  222 Bend                    23    13   115               108.99127
  223 Bend                    23    13   147               110.25207
  224 Bend                    24   140    59               106.59415
  225 Bend                    24   140    88               116.41734
  226 Bend                    24   140   109               112.53904
  227 Bend                    25   144    63               109.47390
  228 Bend                    25   144    89               113.35519
  229 Bend                    25   144   127               106.63887
  230 Bend                    26    18    56               112.74224
  231 Bend                    26    18    68               111.48050
  232 Bend                    26    18   146               109.12194
  233 Bend                    27    14    32               107.42065
  234 Bend                    27    14    54               106.02245
  235 Bend                    27    14   119               111.20473
  236 Bend                    28    36    51               110.33283
  237 Bend                    28    36    92               111.84007
  238 Bend                    28    36    97               111.53206
  239 Bend                    29    37    47               110.43918
  240 Bend                    29    37    79               106.36752
  241 Bend                    29    37    93               109.84480
  242 Bend                    32    14    54               112.43185
  243 Bend                    32    14   119               112.73881
  244 Bend                    33     9    75               108.88822
  245 Bend                    33     9    98               112.35479
  246 Bend                    33     9   108               106.45341
  247 Bend                    34    42    74               112.24367
  248 Bend                    34    42    91               111.21253
  249 Bend                    34    42   136               110.37715
  250 Bend                    35    12   103               111.73720
  251 Bend                    35    12   104               111.87535
  252 Bend                    35   106    43               109.40873
  253 Bend                    35   106    97               107.06126
  254 Bend                    35   106   132               106.05688
  255 Bend                    36    28    87               135.91381
  256 Bend                    36    51   110               169.91344
  257 Bend                    36    92    64               129.02841
  258 Bend                    36    97   106               163.12127
  259 Bend                    37    29    96               119.28929
  260 Bend                    37   110    44               110.89331
  261 Bend                    37   110    51               105.17785
  262 Bend                    37   110   115               111.44504
  263 Bend                    37    79   114               167.78106
  264 Bend                    37    93    67               131.70537
  265 Bend                    38    46    53               111.27017
  266 Bend                    38    46    75               112.50300
  267 Bend                    38    46    95               107.75056
  268 Bend                    38   139    84               109.86063
  269 Bend                    38   139    91               106.70450
  270 Bend                    39    50    57               109.75877
  271 Bend                    39    50    83               109.38114
  272 Bend                    39    50   101               106.69125
  273 Bend                    39   143    85               111.47410
  274 Bend                    39   143    95               108.03260
  275 Bend                    42    34   100               125.64681
  276 Bend                    42    91   139               170.07268
  277 Bend                    43    16    45               107.00018
  278 Bend                    43    16    62               116.01339
  279 Bend                    43    16    80               105.30394
  280 Bend                    43   106    97               110.07035
  281 Bend                    43   106   132               112.10255
  282 Bend                    44    17    52               105.84031
  283 Bend                    44    17    66               110.97195
  284 Bend                    44   110    47               112.20678
  285 Bend                    44   110    51               115.85813
  286 Bend                    44   110   115               102.49296
  287 Bend                    45    16    62               105.04313
  288 Bend                    45    16    80               114.38948
  289 Bend                    46   139    20               112.41171
  290 Bend                    46   139    84               107.66648
  291 Bend                    46   139    91               106.52589
  292 Bend                    46    95   143               168.34155
  293 Bend                    47    37    79               108.43382
  294 Bend                    47    37    93               107.56240
  295 Bend                    47   110    51               106.32074
  296 Bend                    47   110   115               108.71411
  297 Bend                    49    78   114               126.15253
  298 Bend                    50    39   143               173.43260
  299 Bend                    50   101    69               131.29213
  300 Bend                    51    36    92               111.42180
  301 Bend                    51    36    97               105.42355
  302 Bend                    51   110   115               111.14477
  303 Bend                    52    17    66               107.70869
  304 Bend                    53     5    81               114.77653
  305 Bend                    53     5   129               109.05263
  306 Bend                    53     5   134               104.34647
  307 Bend                    53    46    75               101.54001
  308 Bend                    53    46    95               112.93674
  309 Bend                    54    14   119               106.86023
  310 Bend                    54   114    78               107.28441
  311 Bend                    54   114    79               110.63909
  312 Bend                    54   114   146               105.81295
  313 Bend                    55   122    65               108.80875
  314 Bend                    55   122   103               112.89330
  315 Bend                    55   122   109               111.89058
  316 Bend                    56    18    68               110.66672
  317 Bend                    56    18   146               106.74395
  318 Bend                    57     6    86               105.31715
  319 Bend                    57     6   137               112.68066
  320 Bend                    57     6   138               110.58398
  321 Bend                    57    50    83               107.53790
  322 Bend                    57    50   101               111.36897
  323 Bend                    59   126   107               111.48450
  324 Bend                    59   126   108               110.58800
  325 Bend                    59   126   127               109.47642
  326 Bend                    59   140    88               107.16827
  327 Bend                    59   140   109               107.40523
  328 Bend                    62    16    80               109.37567
  329 Bend                    63   130   119               109.76845
  330 Bend                    63   130   135               105.30822
  331 Bend                    63   130   149               110.63980
  332 Bend                    63   144    89               113.20206
  333 Bend                    63   144   127               108.50825
  334 Bend                    65     8    74               113.07904
  335 Bend                    65     8    94               111.12800
  336 Bend                    65     8   133               110.33142
  337 Bend                    65   122   103               105.46316
  338 Bend                    65   122   109               105.62770
  339 Bend                    68    18   146               105.71741
  340 Bend                    70   135   130               130.65239
  341 Bend                    71   132   106               129.02915
  342 Bend                    72    20   139               132.34135
  343 Bend                    73    21   143               132.57678
  344 Bend                    74     8    94               105.38421
  345 Bend                    74     8   133               108.78205
  346 Bend                    74    42    91               109.23893
  347 Bend                    74    42   136               103.80599
  348 Bend                    75     9    98               111.99267
  349 Bend                    75     9   108               107.21151
  350 Bend                    75    46    95               110.86340
  351 Bend                    76    24   140               122.15087
  352 Bend                    77    25   144               119.64149
  353 Bend                    78   114    79               102.34343
  354 Bend                    78   114   146               115.69132
  355 Bend                    79    37    93               114.19010
  356 Bend                    79   114   146               114.91018
  357 Bend                    81     5   129               105.68604
  358 Bend                    81     5   134               108.32508
  359 Bend                    83    10   117               110.16945
  360 Bend                    83    10   149               107.19839
  361 Bend                    83    50   101               112.09296
  362 Bend                    84   139    91               107.84329
  363 Bend                    85   143    95               106.08644
  364 Bend                    86     6   137               108.39905
  365 Bend                    86     6   138               113.24171
  366 Bend                    88   140   109               106.28675
  367 Bend                    89   144   127               105.26610
  368 Bend                    91    42   136               109.70163
  369 Bend                    92    36    97               106.04074
  370 Bend                    94     8   133               107.89564
  371 Bend                    97   106   132               111.91468
  372 Bend                    98     9   108               109.66466
  373 Bend                   103    12   104               107.97963
  374 Bend                   103   122   109               111.64414
  375 Bend                   105    55   122               127.01413
  376 Bend                   107    13   115               106.75081
  377 Bend                   107    13   147               110.73305
  378 Bend                   107   126   108               105.59036
  379 Bend                   107   126   127               110.55564
  380 Bend                   108   126   127               109.06957
  381 Bend                   110    37    29               112.26114
  382 Bend                   110    37    79               109.46256
  383 Bend                   110    37    93               104.85107
  384 Bend                   112    89   144               129.46155
  385 Bend                   113    84   139               123.82098
  386 Bend                   115    13   147               112.36788
  387 Bend                   116     4   125               114.38793
  388 Bend                   116     4   128               109.69139
  389 Bend                   116     4   136               109.74704
  390 Bend                   117    10   149               111.44148
  391 Bend                   119   130   135               113.98795
  392 Bend                   119   130   149               106.31154
  393 Bend                   122   109   140               163.81616
  394 Bend                   125     4   128               104.03988
  395 Bend                   125     4   136               111.27974
  396 Bend                   126    59   140               160.04462
  397 Bend                   126   127   144               163.09460
  398 Bend                   128     4   136               107.32887
  399 Bend                   129     5   134               114.94176
  400 Bend                   130    63   144               160.75307
  401 Bend                   135   130   149               110.88265
  402 Bend                   137     6   138               106.72125
  403 Bend                   138   124   154               173.17229
  404 Bend                   139    46    53               113.06029
  405 Bend                   139    46    75               110.09111
  406 Bend                   139    46    95               108.24353
  407 Bend                   140    88   150               120.99415
  408 Bend                   143    85   148               122.25400
  409 Torsion                  1    10    83    50        -135.07685
  410 Torsion                  1    10   117   131        -139.05507
  411 Torsion                  1    10   149   130         -29.78499
  412 Torsion                  2   133     8    65         175.51242
  413 Torsion                  2   133     8    74         -59.90669
  414 Torsion                  2   133     8    94          53.93882
  415 Torsion                  3    56    18    26          53.44314
  416 Torsion                  3    56    18    68         179.06811
  417 Torsion                  3    56    18   146         -66.36060
  418 Torsion                  4   136    42    34        -138.73693
  419 Torsion                  4   136    42    74         -18.26563
  420 Torsion                  4   136    42    91          98.37562
  421 Torsion                  5    53    46    38        -100.31871
  422 Torsion                  5    53    46    75          19.59312
  423 Torsion                  5    53    46    95         138.35030
  424 Torsion                  6    57    50    39         -29.59574
  425 Torsion                  6    57    50    83          89.30669
  426 Torsion                  6    57    50   101        -147.51711
  427 Torsion                  6   138   124   154          91.35214
  428 Torsion                  7    52    17    22          41.87673
  429 Torsion                  7    52    17    44         -78.06739
  430 Torsion                  7    52    17    66         163.17258
  431 Torsion                  8    65   122    55         146.17246
  432 Torsion                  8    65   122   103         -92.45391
  433 Torsion                  8    65   122   109          25.89014
  434 Torsion                  8    74    42    34          83.83416
  435 Torsion                  8    74    42    91        -152.33264
  436 Torsion                  8    74    42   136         -35.36759
  437 Torsion                  9    75    46    38         -79.15008
  438 Torsion                  9    75    46    53         161.81442
  439 Torsion                  9    75    46    95          41.58363
  440 Torsion                  9   108   126    59         -35.91366
  441 Torsion                  9   108   126   107          84.81628
  442 Torsion                  9   108   126   127        -156.35785
  443 Torsion                 10    83    50    39         -15.11658
  444 Torsion                 10    83    50    57        -134.26096
  445 Torsion                 10    83    50   101         103.00798
  446 Torsion                 10   149   130    63        -132.24422
  447 Torsion                 10   149   130   119         -13.11355
  448 Torsion                 10   149   130   135         111.29029
  449 Torsion                 11    45    16    43         -35.73949
  450 Torsion                 11    45    16    62        -159.59245
  451 Torsion                 11    45    16    80          80.47052
  452 Torsion                 12    35   106    43        -149.91933
  453 Torsion                 12    35   106    97         -30.66222
  454 Torsion                 12    35   106   132          88.98035
  455 Torsion                 12   103   122    55          76.38392
  456 Torsion                 12   103   122    65         -42.29741
  457 Torsion                 12   103   122   109        -156.53227
  458 Torsion                 13   107   126    59         175.85042
  459 Torsion                 13   107   126   108          55.70730
  460 Torsion                 13   107   126   127         -62.12543
  461 Torsion                 13   115   110    44         176.44799
  462 Torsion                 13   115   110    47         -64.61932
  463 Torsion                 13   115   110    51          52.06906
  464 Torsion                 14    54   114    78          90.17534
  465 Torsion                 14    54   114    79        -158.94307
  466 Torsion                 14    54   114   146         -33.88120
  467 Torsion                 14   119   130    63          23.94045
  468 Torsion                 14   119   130   135         141.77956
  469 Torsion                 14   119   130   149         -95.75896
  470 Torsion                 15    81     5    53         104.03876
  471 Torsion                 15    81     5   129         -16.16383
  472 Torsion                 15    81     5   134        -139.83450
  473 Torsion                 16    43   106    35           2.51218
  474 Torsion                 16    43   106    97        -114.86915
  475 Torsion                 16    43   106   132         119.87349
  476 Torsion                 17    44   110    47        -110.76398
  477 Torsion                 17    44   110    51         126.88145
  478 Torsion                 17    44   110   115           5.68532
  479 Torsion                 18   146   114    54         -21.99866
  480 Torsion                 18   146   114    78        -140.61401
  481 Torsion                 18   146   114    79         100.37554
  482 Torsion                 19    12    35   106         126.27578
  483 Torsion                 19    12   103   122         117.61253
  484 Torsion                 19    12   104   120         105.93245
  485 Torsion                 20   139    46    53         -76.25792
  486 Torsion                 20   139    46    75         170.95985
  487 Torsion                 20   139    46    95          49.63727
  488 Torsion                 46    38    20   139        -175.06798
  489 Torsion                 20   139    84   113         -65.70173
  490 Torsion                 20   139    91    42         143.36202
  491 Torsion                 21   143    39    50        -129.08849
  492 Torsion                 21   143    85   148         -64.74769
  493 Torsion                 21   143    95    46        -132.37068
  494 Torsion                 22    17    44   110         -60.98617
  495 Torsion                 22    17    66   152         171.81849
  496 Torsion                 23    13   107   126          10.51773
  497 Torsion                 23    13   115   110         140.71236
  498 Torsion                 23    13   147    61        -114.08086
  499 Torsion                 24   140    59   126         126.63608
  500 Torsion                 24   140    88   150         -65.37615
  501 Torsion                 24   140   109   122         121.32816
  502 Torsion                 25   144    63   130        -129.36523
  503 Torsion                 25   144    89   112        -114.78348
  504 Torsion                 25   144   127   126           8.51566
  505 Torsion                 26    18    68   151          54.21467
  506 Torsion                 26    18   146   114         -47.57918
  507 Torsion                 27    14    32   118        -150.22654
  508 Torsion                 27    14    54   114          14.78979
  509 Torsion                 27    14   119   130        -162.42539
  510 Torsion                 28    36    51   110           3.59833
  511 Torsion                 28    36    92    64         -45.56025
  512 Torsion                 28    36    97   106         107.50402
  513 Torsion                 29    37   110    44         168.32247
  514 Torsion                 29    37   110    51         -65.71408
  515 Torsion                 29    37   110   115          54.82482
  516 Torsion                 37    29    47   110         172.23607
  517 Torsion                 29    37    79   114         -86.06356
  518 Torsion                 29    37    93    67         -59.24441
  519 Torsion                 30    19    12    35        -174.84579
  520 Torsion                 30    19    12   103         -54.80175
  521 Torsion                 30    19    12   104          63.07279
  522 Torsion                 31    80    16    43        -153.23617
  523 Torsion                 31    80    16    45          89.57693
  524 Torsion                 31    80    16    62         -27.90941
  525 Torsion                 32    14    27    40          44.11538
  526 Torsion                 32    14    54   114         131.88897
  527 Torsion                 32    14   119   130          76.85819
  528 Torsion                 33     9    75    46         -82.07940
  529 Torsion                 33     9    98   123        -135.41149
  530 Torsion                 33     9   108   126        -142.21048
  531 Torsion                 34    42    91   139         146.86604
  532 Torsion                 35    12   103   122        -125.58201
  533 Torsion                 35    12   104   120         -13.08532
  534 Torsion                 35   106    97    36         -76.83793
  535 Torsion                 35   106   132    71         178.36235
  536 Torsion                 36    51   110    44         155.80529
  537 Torsion                 36    51   110    47          30.38599
  538 Torsion                 36    51   110   115         -87.75885
  539 Torsion                 36    97   106    43          41.99164
  540 Torsion                 36    97   106   132         167.35620
  541 Torsion                 37    79   114    54          -0.43923
  542 Torsion                 37    79   114    78         113.60413
  543 Torsion                 37    79   114   146        -120.17314
  544 Torsion                 38    46    95   143          54.64773
  545 Torsion                 38   139    20    72          72.55876
  546 Torsion                 38   139    84   113          55.29241
  547 Torsion                 38   139    91    42          22.13442
  548 Torsion                 39    50   101    69         175.06809
  549 Torsion                 39   143    21    73          40.18342
  550 Torsion                 39   143    85   148          56.74594
  551 Torsion                 39   143    95    46         103.89966
  552 Torsion                 40    27    14    54         164.52634
  553 Torsion                 40    27    14   119         -79.68276
  554 Torsion                 41   128     4   116         -63.01038
  555 Torsion                 41   128     4   125         174.19984
  556 Torsion                 41   128     4   136          56.17138
  557 Torsion                 42    74     8    65        -118.32208
  558 Torsion                 42    74     8    94           3.25294
  559 Torsion                 42    74     8   133         118.73329
  560 Torsion                 42    91   139    84         -95.84975
  561 Torsion                 42   136     4   116         136.61548
  562 Torsion                 42   136     4   125         -95.74978
  563 Torsion                 42   136     4   128          17.46946
  564 Torsion                 43    16    62   153        -107.28770
  565 Torsion                 43   106   132    71          59.01460
  566 Torsion                 44    17    22    48          49.14769
  567 Torsion                 44    17    66   152         -69.71812
  568 Torsion                 44   110    37    79          50.44393
  569 Torsion                 44   110    37    93         -72.46621
  570 Torsion                 37    47    44   110         171.86655
  571 Torsion                 45    16    43   106          43.48467
  572 Torsion                 45    16    62   153          10.61926
  573 Torsion                 46    53     5    81          40.62121
  574 Torsion                 46    53     5   129         158.94406
  575 Torsion                 46    53     5   134         -77.76946
  576 Torsion                 46    75     9    98         153.05036
  577 Torsion                 46    75     9   108          32.71584
  578 Torsion                 46    95   143    85         -15.74117
  579 Torsion                 47    37    29    96        -110.67819
  580 Torsion                 47    37    79   114          32.72257
  581 Torsion                 47    37    93    67        -179.48527
  582 Torsion                 48    22    17    52         -69.53524
  583 Torsion                 48    22    17    66         169.39039
  584 Torsion                 49    78   114    54        -101.89351
  585 Torsion                 49    78   114    79         141.62054
  586 Torsion                 49    78   114   146          15.90664
  587 Torsion                 50    39   143    85         112.14685
  588 Torsion                 50    39   143    95          -4.03393
  589 Torsion                 50    57     6    86         -25.91631
  590 Torsion                 50    57     6   137          92.06277
  591 Torsion                 50    57     6   138        -148.59367
  592 Torsion                 50    83    10   117         103.19446
  593 Torsion                 50    83    10   149         -18.22865
  594 Torsion                 51    36    28    87         -11.92849
  595 Torsion                 51    36    92    64          78.45142
  596 Torsion                 51    36    97   106         -12.25482
  597 Torsion                 51   110    37    79         176.40737
  598 Torsion                 51   110    37    93          53.49724
  599 Torsion                 37    47    51   110        -172.03933
  600 Torsion                 52    17    44   110          63.99539
  601 Torsion                 52    17    66   152          45.70210
  602 Torsion                 53     5   129   142          60.50564
  603 Torsion                 53     5   134   121        -177.86771
  604 Torsion                 53    46   139    84         163.39028
  605 Torsion                 53    46   139    91          47.92675
  606 Torsion                 46    53    38   139        -172.94960
  607 Torsion                 53    46    95   143         177.95053
  608 Torsion                 54    14    32   118          93.51016
  609 Torsion                 54    14   119   130         -47.15208
  610 Torsion                 55   122   109   140         159.31032
  611 Torsion                 56    18    26   102         -45.99396
  612 Torsion                 56    18    68   151         -72.11646
  613 Torsion                 56    18   146   114          74.53349
  614 Torsion                 57     6    86   111         129.93106
  615 Torsion                 57     6   137   145          96.65440
  616 Torsion                 57     6   138   124          63.32486
  617 Torsion                 57    50    39   143          35.62163
  618 Torsion                 57    50   101    69         -65.17594
  619 Torsion                 58   116     4   125        -100.02524
  620 Torsion                 58   116     4   128         143.54113
  621 Torsion                 58   116     4   136          25.85716
  622 Torsion                 59   126   127   144         -69.97298
  623 Torsion                 59   140    24    76         -17.11783
  624 Torsion                 59   140    88   150          53.78317
  625 Torsion                 59   140   109   122           4.31830
  626 Torsion                 60     1    10    83         -91.35730
  627 Torsion                 60     1    10   117          30.96542
  628 Torsion                 60     1    10   149         151.53724
  629 Torsion                 61   147    13   107           4.84589
  630 Torsion                 61   147    13   115         124.12139
  631 Torsion                 62    16    43   106         160.30573
  632 Torsion                 63   130   135    70         167.05909
  633 Torsion                 63   144    25    77          18.80924
  634 Torsion                 63   144    89   112          10.67953
  635 Torsion                 63   144   127   126        -109.32193
  636 Torsion                 64    92    36    97        -167.33970
  637 Torsion                 65     8    94    82         -13.24259
  638 Torsion                 65   122    55   105        -169.85002
  639 Torsion                 65   122   109   140         -82.44767
  640 Torsion                 66    17    44   110        -179.42950
  641 Torsion                 67    93    37    79          60.13232
  642 Torsion                 68    18    26   102        -171.17775
  643 Torsion                 68    18   146   114        -167.59195
  644 Torsion                 69   101    50    83          55.35783
  645 Torsion                 70   135   130   119          46.68715
  646 Torsion                 70   135   130   149         -73.23278
  647 Torsion                 71   132   106    97         -65.22245
  648 Torsion                 72    20   139    84        -166.65699
  649 Torsion                 72    20   139    91         -46.66328
  650 Torsion                 73    21   143    85         161.85334
  651 Torsion                 73    21   143    95         -81.80007
  652 Torsion                 74     8    65   122         -50.40537
  653 Torsion                 74     8    94    82        -136.07575
  654 Torsion                 74    42    34   100          72.85045
  655 Torsion                 74    42    91   139          22.42672
  656 Torsion                 75     9    33    90         -37.31009
  657 Torsion                 75     9    98   123         -12.48297
  658 Torsion                 75     9   108   126         101.37550
  659 Torsion                 75    46   139    84          50.60805
  660 Torsion                 75    46   139    91         -64.85548
  661 Torsion                 46    75    38   139        -177.06357
  662 Torsion                 75    46    95   143         -68.86119
  663 Torsion                 76    24   140    88         102.35177
  664 Torsion                 76    24   140   109        -134.60914
  665 Torsion                 77    25   144    89         146.24461
  666 Torsion                 77    25   144   127         -98.39044
  667 Torsion                 79    37    29    96           6.78393
  668 Torsion                 79    37   110   115         -63.05372
  669 Torsion                 37    79    47   110        -170.91190
  670 Torsion                 80    16    43   106         -78.61154
  671 Torsion                 80    16    62   153         133.83392
  672 Torsion                 81     5   129   142        -175.61104
  673 Torsion                 81     5   134   121          59.42229
  674 Torsion                 82    94     8   133         107.83568
  675 Torsion                 83    10   117   131         -15.58116
  676 Torsion                 83    10   149   130        -150.08490
  677 Torsion                 83    50    39   143         -82.13954
  678 Torsion                 84   139    46    95         -70.71453
  679 Torsion                 46    38    84   139        -175.95725
  680 Torsion                 86     6   137   145        -147.19454
  681 Torsion                 86     6   138   124         -54.60469
  682 Torsion                 87    28    36    92         112.69170
  683 Torsion                 87    28    36    97        -128.74351
  684 Torsion                 88   140    59   126           1.32907
  685 Torsion                 88   140   109   122        -110.12958
  686 Torsion                 89   144    63   130         103.11348
  687 Torsion                 89   144   127   126         129.20982
  688 Torsion                 90    33     9    98          87.34752
  689 Torsion                 90    33     9   108        -152.59627
  690 Torsion                 91    42    34   100         -49.87482
  691 Torsion                 91   139    46    95         173.82194
  692 Torsion                 46    38    91   139         171.49867
  693 Torsion                 91   139    84   113         171.22619
  694 Torsion                 92    36    51   110        -121.26104
  695 Torsion                 92    36    97   106        -130.51958
  696 Torsion                 93    37    29    96         130.84205
  697 Torsion                 93    37   110   115         174.03615
  698 Torsion                 37    93    47   110         178.33132
  699 Torsion                 93    37    79   114         152.61735
  700 Torsion                 94     8    65   122        -168.68734
  701 Torsion                 46    95    38   139         171.35406
  702 Torsion                 95   143    85   148         174.11048
  703 Torsion                 97    36    51   110         124.14682
  704 Torsion                 98     9   108   126         -20.42908
  705 Torsion                 99    23    13   107         -62.34068
  706 Torsion                 99    23    13   115        -177.72480
  707 Torsion                 99    23    13   147          58.49842
  708 Torsion                100    34    42   136        -171.87564
  709 Torsion                101    50    39   143         156.41248
  710 Torsion                102    26    18   146          72.42770
  711 Torsion                103    12    35   106           8.95355
  712 Torsion                103    12   104   120        -136.44352
  713 Torsion                103   122    55   105          73.43390
  714 Torsion                103   122   109   140          31.68526
  715 Torsion                104    12    35   106        -112.25601
  716 Torsion                104    12   103   122          -2.13998
  717 Torsion                105    55   122   109         -53.51941
  718 Torsion                107    13   115   110          24.80186
  719 Torsion                107   126    59   140          50.49571
  720 Torsion                107   126   127   144         166.83051
  721 Torsion                108     9    98   123         106.41258
  722 Torsion                108   126    59   140         167.64953
  723 Torsion                108   126   127   144          51.15153
  724 Torsion                109   140    59   126        -112.52800
  725 Torsion                109   140    88   150         168.39266
  726 Torsion                110   115    13   147         -96.77486
  727 Torsion                111    86     6   137           9.10454
  728 Torsion                111    86     6   138        -109.11497
  729 Torsion                112    89   144   127         129.03879
  730 Torsion                114    54    14   119        -103.91220
  731 Torsion                115    13   107   126         127.37519
  732 Torsion                 37    47   115   110         178.96631
  733 Torsion                116     4   125   141        -107.41607
  734 Torsion                117    10   149   130          89.29575
  735 Torsion                118    32    14   119         -27.36968
  736 Torsion                119   130    63   144         -61.55146
  737 Torsion                121   134     5   129         -58.49113
  738 Torsion                122    65     8   133          71.67572
  739 Torsion                124   138     6   137        -173.79386
  740 Torsion                126   107    13   147        -110.01847
  741 Torsion                127   126    59   140         -72.14951
  742 Torsion                127   144    63   130         -13.34746
  743 Torsion                128     4   125   141          12.23588
  744 Torsion                131   117    10   149         103.27933
  745 Torsion                134     5   129   142         -56.22029
  746 Torsion                135   130    63   144         175.33695
  747 Torsion                136     4   125   141         127.50612
  748 Torsion                136    42    91   139         -90.74182
  749 Torsion                138     6   137   145         -24.90749
  750 Torsion                144    63   130   149          55.46800
  751 Torsion                146    18    68   151         172.66826


            XYZ format geometry
            -------------------
   154
 geometry
 O                     5.38824505    -1.02515473     1.70764588
 H                    -1.67978144     5.03673036    -1.69486040
 H                     2.63990661    -7.26959896     4.27744924
 Si                   -4.73811284     7.56565300    -0.01014439
 Si                   -0.39348125     6.95488636     0.18071920
 Si                    4.50369395     5.26709221     0.64925425
 H                     2.05799296    -5.91910746     0.45892349
 Si                   -3.71248393     3.98743349    -2.24946500
 Si                    0.51639833     2.38866563    -0.31220964
 Si                    4.07778590    -0.01375766     1.83718586
 H                     1.62963052    -3.20497089    -3.59432227
 Si                   -1.33353547     0.18870208    -4.58455087
 Si                    0.70905224    -2.42031905    -1.19600735
 Si                    2.25951882    -4.53035288     2.90995769
 H                    -2.41559862     6.90083069    -1.19164521
 Si                    1.09147799    -4.58278060    -5.46661324
 Si                    0.98147364    -7.08449875    -1.38068712
 Si                    0.60968880    -8.34185907     3.72562567
 O                    -0.06516228     0.31816549    -3.47948711
 O                    -3.72664433     4.08987611     4.56300651
 O                     1.71820185     4.45862597     5.75423287
 O                     1.77558433    -6.43949896    -2.68250366
 O                     2.10372341    -2.43904964    -0.23434040
 O                    -4.90331411     0.82523227     1.06565341
 O                    -1.30537521     0.55086545     4.31109238
 O                     0.72619840    -8.33729267     2.07609436
 O                     3.24488919    -5.76603129     3.49707069
 O                    -4.41810047    -2.80053285    -2.50269507
 O                    -3.36504026    -3.14350548     1.99244319
 H                     0.04088174     1.14115084    -2.91536410
 H                     2.70127502    -4.59307664    -7.21319782
 O                     2.47024968    -4.46588629     1.26572542
 O                     2.19561689     2.36158822    -0.32121107
 O                    -6.78355558     3.83413276     0.57328842
 O                    -1.26333012    -1.32014303    -5.20538845
 Si                   -3.56641013    -3.97423682    -3.29077464
 Si                   -2.89306800    -4.72959366     1.64671970
 O                    -1.87117343     4.02947995     2.58274067
 O                     3.11873663     3.21379129     3.78531634
 H                     4.16423443    -5.90677447     3.21646742
 H                    -4.15428499     6.72252956    -2.21205719
 Si                   -5.26223687     4.47783298     0.59389108
 O                    -0.35759026    -3.81383851    -5.61621084
 O                    -0.56111130    -6.42036235    -1.32665110
 O                     1.74292566    -4.12322940    -3.97786836
 Si                   -0.39263529     4.42851670     2.03488244
 O                    -2.03697777    -4.77884163     0.26615367
 H                     1.89350361    -5.49224970    -2.99275678
 H                    -1.00461423    -4.82684247     6.19278689
 Si                    4.53726366     2.98703179     2.98931743
 O                    -2.34921752    -4.55476179    -2.31994183
 O                     1.66838935    -6.77946886     0.13322497
 O                    -0.34645376     6.00462102     1.52161281
 O                     0.72995798    -4.93508074     3.32811094
 O                    -5.45802144     0.56369954    -4.08315405
 O                     2.07125277    -8.05012347     4.47641999
 O                     4.70907878     4.13239543     1.82252007
 H                    -6.89425799     8.61337624    -0.07676637
 O                    -2.47984461     0.07262531     0.25857619
 H                     5.93223355    -1.24608270     0.93952201
 H                     0.71601129    -1.00732499    -3.10978280
 O                     1.03415712    -6.24063247    -5.41837784
 O                     0.78421605    -1.18958632     4.21980463
 H                    -5.26084968    -5.66198583    -3.35599914
 O                    -4.04865146     2.59021443    -3.00428161
 O                     0.91315934    -8.72246980    -1.58052514
 H                    -4.96602870    -5.89027419     2.02738648
 O                    -0.06112247    -9.74606814     4.28091928
 H                     6.69430759     2.95576739     4.05389824
 H                     3.79730531    -1.49504928     6.10509089
 H                    -2.59875318    -3.39572188    -7.81362113
 H                    -3.96691791     4.97232532     4.87429747
 H                     2.25177183     5.23577170     5.96534855
 O                    -4.40279245     4.09963803    -0.77078931
 O                     0.00770579     3.62152876     0.65689772
 H                    -4.46144365     1.15474913     1.89898366
 H                    -0.63691895     1.23775448     4.59493781
 O                    -1.11445847    -4.57510967     5.26215321
 O                    -1.91648080    -5.20139849     2.88066817
 O                     1.98571266    -4.09813994    -6.78896500
 O                    -1.48449523     6.47848231    -0.96913311
 H                    -4.62027973     5.27810090    -4.04579251
 O                     4.51710187     1.52037342     2.24500348
 O                    -3.38562105     1.83316806     3.10803543
 O                     0.88276574     2.05656529     4.90600853
 O                     3.02772166     4.90643364    -0.06265493
 H                    -4.47634413    -2.46450905    -1.56474235
 O                    -4.43060585    -1.74999550    -0.02914766
 O                    -1.79071061    -2.19757051     4.13842903
 H                     2.66308081     3.25215207    -0.30848079
 O                    -4.42606252     3.98163347     1.91367034
 O                    -4.55330347    -5.20067672    -3.82625377
 O                    -4.22929065    -5.68001747     1.43914175
 O                    -4.30749313     5.31688813    -3.12717626
 O                     0.68394894     4.11413504     3.22873902
 H                    -2.95586130    -2.67156792     2.76785204
 O                    -2.81583822    -3.38121861    -4.62421493
 O                    -0.12443663     2.49637603    -1.84796563
 H                     2.61852837    -1.58789093    -0.09446956
 H                    -7.00294038     2.89493305     0.69402260
 O                     5.74063292     3.09421348     4.12193303
 H                     1.14913594    -7.76188716     1.37560579
 O                    -2.73517170     0.44486407    -3.76363339
 O                    -1.21136142     1.35136991    -5.76684214
 H                    -5.84876126    -0.31334471    -4.22004677
 Si                   -1.67908834    -2.84639045    -5.67628265
 O                    -0.37488611    -1.42472395    -0.47594643
 O                     0.03560522     0.99544684     0.38673161
 O                    -4.36215449     0.39352598    -1.58920715
 Si                   -1.26610870    -4.94800726    -1.17102415
 H                     2.30340103     5.58153045    -0.21189462
 H                    -1.62582966    -2.98377331     4.73149502
 H                    -2.73649811     1.28191583     3.63541750
 Si                   -0.70010997    -5.51847351     3.91474514
 O                     0.04605497    -3.91404599    -1.20050928
 O                    -5.98720200     8.57085818    -0.40785727
 O                     3.24133380    -0.00869073     0.38285309
 H                     2.39438420    -3.65345222     0.64472243
 O                     2.59457083    -3.09736801     3.65179703
 H                    -0.94217313     1.25629887    -6.69100843
 H                     1.44808136     7.31572075    -1.27396293
 Si                   -4.16449790     0.93777800    -3.12617791
 H                    -0.89209771     3.13045826    -2.07799175
 H                     6.10556702     4.56810420    -1.03845266
 O                    -3.64297453     8.22083526     1.03102677
 Si                   -0.93512929    -0.31366051     0.57158831
 O                    -0.81023172    -0.85804599     2.10607067
 O                    -3.82401730     7.20928221    -1.40034673
 O                    -0.85249029     8.51126528     0.62626744
 Si                    2.38740625    -1.54548036     4.15990257
 H                     2.86546297     0.84707158     0.00034431
 O                    -2.27956280    -2.70385741    -7.21796907
 O                    -2.04695612     4.17849898    -2.08633822
 O                     1.16718298     6.82941068    -0.47915563
 O                     2.95781095    -1.25513065     5.68978625
 O                    -5.33564776     6.13175084     0.56891714
 O                     4.42918452     6.80951173     1.25682598
 O                     5.77227911     5.23612796    -0.42114110
 Si                   -3.36478649     3.49864873     3.06172482
 Si                   -4.10031683    -0.10590659    -0.05218048
 H                    -2.72374154     8.54376431     0.91959279
 H                    -0.39179818     9.10787524     1.23828272
 Si                    1.62865021     3.49425892     4.41581930
 Si                   -0.77499882    -0.94095715     3.74150132
 H                     5.13415414     7.46772415     1.32909733
 O                    -0.44546911    -7.10443615     4.21193520
 O                     1.07297294    -1.88521584    -2.72693759
 H                     1.29452288     1.44938931     5.54911292
 O                     3.15085875    -0.59425896     3.06015784
 H                    -4.17778788    -2.31791108     0.76120908
[...]
  550 Torsion                 39   143    85   148          57.87300    1.12706
  551 Torsion                 39   143    95    46         103.92598    0.02632
  552 Torsion                 40    27    14    54         164.54448    0.01814
  553 Torsion                 40    27    14   119         -79.60980    0.07296
  554 Torsion                 41   128     4   116         -63.07116   -0.06078
  555 Torsion                 41   128     4   125         174.14610   -0.05375
  556 Torsion                 41   128     4   136          56.09376   -0.07762
  557 Torsion                 42    74     8    65        -118.01923    0.30285
  558 Torsion                 42    74     8    94           3.56810    0.31516
  559 Torsion                 42    74     8   133         119.09181    0.35852
  560 Torsion                 42    91   139    84         -95.45612    0.39362
  561 Torsion                 42   136     4   116         136.90897    0.29349
  562 Torsion                 42   136     4   125         -95.47700    0.27277
  563 Torsion                 42   136     4   128          17.76755    0.29809
  564 Torsion                 43    16    62   153        -107.26251    0.02519
  565 Torsion                 43   106   132    71          58.54094   -0.47366
  566 Torsion                 44    17    22    48          49.31248    0.16478
  567 Torsion                 44    17    66   152         -69.64094    0.07717
  568 Torsion                 44   110    37    79          50.40221   -0.04172
  569 Torsion                 44   110    37    93         -72.48581   -0.01961
  570 Torsion                 37    47    44   110         171.56175   -0.30480
  571 Torsion                 45    16    43   106          43.50188    0.01721
  572 Torsion                 45    16    62   153          10.66965    0.05038
  573 Torsion                 46    53     5    81          40.61289   -0.00833
  574 Torsion                 46    53     5   129         158.84556   -0.09850
  575 Torsion                 46    53     5   134         -77.88361   -0.11414
  576 Torsion                 46    75     9    98         152.85030   -0.20006
  577 Torsion                 46    75     9   108          32.48998   -0.22585
  578 Torsion                 46    95   143    85         -15.80358   -0.06241
  579 Torsion                 47    37    29    96        -110.49105    0.18714
  580 Torsion                 47    37    79   114          32.81815    0.09558
  581 Torsion                 47    37    93    67        -179.57792   -0.09265
  582 Torsion                 48    22    17    52         -69.37585    0.15939
  583 Torsion                 48    22    17    66         169.55706    0.16667
  584 Torsion                 49    78   114    54        -102.04891   -0.15540
  585 Torsion                 49    78   114    79         141.47452   -0.14602
  586 Torsion                 49    78   114   146          15.73599   -0.17065
  587 Torsion                 50    39   143    85         112.03181   -0.11504
  588 Torsion                 50    39   143    95          -4.14032   -0.10638
  589 Torsion                 50    57     6    86         -23.53659    2.37972
  590 Torsion                 50    57     6   137          94.40783    2.34506
  591 Torsion                 50    57     6   138        -146.06462    2.52905
  592 Torsion                 50    83    10   117         102.81973   -0.37473
  593 Torsion                 50    83    10   149         -18.63155   -0.40290
  594 Torsion                 51    36    28    87         -12.10347   -0.17498
  595 Torsion                 51    36    92    64          78.27492   -0.17650
  596 Torsion                 51    36    97   106         -12.30589   -0.05107
  597 Torsion                 51   110    37    79         176.28450   -0.12287
  598 Torsion                 51   110    37    93          53.39648   -0.10076
  599 Torsion                 37    47    51   110        -171.91401    0.12532
  600 Torsion                 52    17    44   110          63.75622   -0.23917
  601 Torsion                 52    17    66   152          45.79953    0.09743
  602 Torsion                 53     5   129   142          60.86649    0.36085
  603 Torsion                 53     5   134   121        -177.28435    0.58336
  604 Torsion                 53    46   139    84         163.43942    0.04914
  605 Torsion                 53    46   139    91          48.01283    0.08607
  606 Torsion                 46    53    38   139        -173.00074   -0.05113
  607 Torsion                 53    46    95   143         177.76525   -0.18528
  608 Torsion                 54    14    32   118          93.62945    0.11929
  609 Torsion                 54    14   119   130         -46.98255    0.16953
  610 Torsion                 55   122   109   140         159.55828    0.24796
  611 Torsion                 56    18    26   102         -45.76381    0.23015
  612 Torsion                 56    18    68   151         -72.11491    0.00156
  613 Torsion                 56    18   146   114          74.63833    0.10484
  614 Torsion                 57     6    86   111         129.48995   -0.44112
  615 Torsion                 57     6   137   145          97.20159    0.54719
  616 Torsion                 57     6   138   124          59.86815   -3.45671
  617 Torsion                 57    50    39   143          35.73992    0.11830
  618 Torsion                 57    50   101    69         -63.91142    1.26453
  619 Torsion                 58   116     4   125        -100.16637   -0.14113
  620 Torsion                 58   116     4   128         143.39524   -0.14589
  621 Torsion                 58   116     4   136          25.70606   -0.15110
  622 Torsion                 59   126   127   144         -69.99347   -0.02049
  623 Torsion                 59   140    24    76         -17.23634   -0.11851
  624 Torsion                 59   140    88   150          53.66939   -0.11378
  625 Torsion                 59   140   109   122           4.27018   -0.04812
  626 Torsion                 60     1    10    83         -90.77237    0.58494
  627 Torsion                 60     1    10   117          31.53743    0.57201
  628 Torsion                 60     1    10   149         152.08069    0.54346
  629 Torsion                 61   147    13   107           4.84656    0.00067
  630 Torsion                 61   147    13   115         124.10912   -0.01228
  631 Torsion                 62    16    43   106         160.35912    0.05339
  632 Torsion                 63   130   135    70         167.44245    0.38336
  633 Torsion                 63   144    25    77          18.87112    0.06188
  634 Torsion                 63   144    89   112          10.79896    0.11943
  635 Torsion                 63   144   127   126        -109.40781   -0.08587
  636 Torsion                 64    92    36    97        -167.50916   -0.16946
  637 Torsion                 65     8    94    82         -13.07124    0.17134
  638 Torsion                 65   122    55   105        -170.42205   -0.57203
  639 Torsion                 65   122   109   140         -82.17021    0.27745
  640 Torsion                 66    17    44   110        -179.66938   -0.23988
  641 Torsion                 67    93    37    79          60.05461   -0.07771
  642 Torsion                 68    18    26   102        -170.94183    0.23592
  643 Torsion                 68    18   146   114        -167.47914    0.11281
  644 Torsion                 69   101    50    83          56.59795    1.24012
  645 Torsion                 70   135   130   119          47.15106    0.46391
  646 Torsion                 70   135   130   149         -72.77855    0.45423
  647 Torsion                 71   132   106    97         -65.73080   -0.50834
  648 Torsion                 72    20   139    84        -166.75240   -0.09541
  649 Torsion                 72    20   139    91         -46.78068   -0.11740
  650 Torsion                 73    21   143    85         161.36336   -0.48998
  651 Torsion                 73    21   143    95         -82.33836   -0.53829
  652 Torsion                 74     8    65   122         -49.19107    1.21429
  653 Torsion                 74     8    94    82        -135.89932    0.17643
  654 Torsion                 74    42    34   100          72.96285    0.11240
  655 Torsion                 74    42    91   139          21.87556   -0.55116
  656 Torsion                 75     9    33    90         -37.20975    0.10034
  657 Torsion                 75     9    98   123         -12.09530    0.38767
  658 Torsion                 75     9   108   126         101.35681   -0.01870
  659 Torsion                 75    46   139    84          50.57226   -0.03578
  660 Torsion                 75    46   139    91         -64.85433    0.00115
  661 Torsion                 46    75    38   139        -177.17259   -0.10902
  662 Torsion                 75    46    95   143         -69.00668   -0.14549
  663 Torsion                 76    24   140    88         102.21853   -0.13324
  664 Torsion                 76    24   140   109        -134.72785   -0.11871
  665 Torsion                 77    25   144    89         146.29981    0.05520
  666 Torsion                 77    25   144   127         -98.40420   -0.01376
  667 Torsion                 79    37    29    96           6.98938    0.20545
  668 Torsion                 79    37   110   115         -63.17339   -0.11967
  669 Torsion                 37    79    47   110        -170.69376    0.21813
  670 Torsion                 80    16    43   106         -78.58960    0.02194
  671 Torsion                 80    16    62   153         133.86829    0.03438
  672 Torsion                 81     5   129   142        -175.36838    0.24266
  673 Torsion                 81     5   134   121          60.07312    0.65083
  674 Torsion                 82    94     8   133         107.94659    0.11091
  675 Torsion                 83    10   117   131         -15.73290   -0.15173
  676 Torsion                 83    10   149   130        -149.64117    0.44372
  677 Torsion                 83    50    39   143         -82.02500    0.11453
  678 Torsion                 84   139    46    95         -70.73063   -0.01610
  679 Torsion                 46    38    84   139        -175.94323    0.01402
  680 Torsion                 86     6   137   145        -146.70134    0.49320
  681 Torsion                 86     6   138   124         -57.92573   -3.32105
  682 Torsion                 87    28    36    92         112.54358   -0.14813
  683 Torsion                 87    28    36    97        -128.90290   -0.15938
  684 Torsion                 88   140    59   126           1.60721    0.27814
  685 Torsion                 88   140   109   122        -110.17274   -0.04316
  686 Torsion                 89   144    63   130         103.33845    0.22498
  687 Torsion                 89   144   127   126         129.14750   -0.06232
  688 Torsion                 90    33     9    98          87.47041    0.12288
  689 Torsion                 90    33     9   108        -152.50403    0.09224
  690 Torsion                 91    42    34   100         -49.71287    0.16196
  691 Torsion                 91   139    46    95         173.84277    0.02083
  692 Torsion                 46    38    91   139         171.62235    0.12368
  693 Torsion                 91   139    84   113         171.18376   -0.04244
  694 Torsion                 92    36    51   110        -121.18067    0.08038
  695 Torsion                 92    36    97   106        -130.58633   -0.06674
  696 Torsion                 93    37    29    96         131.05067    0.20862
  697 Torsion                 93    37   110   115         173.93859   -0.09755
  698 Torsion                 37    93    47   110         178.42893    0.09760
  699 Torsion                 93    37    79   114         152.69212    0.07477
  700 Torsion                 94     8    65   122        -167.50173    1.18562
  701 Torsion                 46    95    38   139         171.47521    0.12115
  702 Torsion                 95   143    85   148         175.24001    1.12953
  703 Torsion                 97    36    51   110         124.21550    0.06869
  704 Torsion                 98     9   108   126         -20.51455   -0.08547
  705 Torsion                 99    23    13   107         -62.45031   -0.10963
  706 Torsion                 99    23    13   115        -177.83714   -0.11234
  707 Torsion                 99    23    13   147          58.45364   -0.04477
  708 Torsion                100    34    42   136        -171.72840    0.14724
  709 Torsion                101    50    39   143         156.56414    0.15166
  710 Torsion                102    26    18   146          72.64760    0.21990
  711 Torsion                103    12    35   106           9.43366    0.48011
  712 Torsion                103    12   104   120        -136.12861    0.31491
  713 Torsion                103   122    55   105          72.95050   -0.48340
  714 Torsion                103   122   109   140          31.90712    0.22186
  715 Torsion                104    12    35   106        -111.80919    0.44683
  716 Torsion                104    12   103   122          -2.43213   -0.29216
  717 Torsion                105    55   122   109         -54.00890   -0.48949
  718 Torsion                107    13   115   110          24.53439   -0.26747
  719 Torsion                107   126    59   140          50.24418   -0.25153
  720 Torsion                107   126   127   144         166.80608   -0.02444
  721 Torsion                108     9    98   123         106.86095    0.44837
  722 Torsion                108   126    59   140         167.38831   -0.26122
  723 Torsion                108   126   127   144          51.13142   -0.02011
  724 Torsion                109   140    59   126        -112.28461    0.24339
  725 Torsion                109   140    88   150         168.28767   -0.10498
  726 Torsion                110   115    13   147         -97.07272   -0.29786
  727 Torsion                111    86     6   137           8.61533   -0.48921
  728 Torsion                111    86     6   138        -109.63012   -0.51515
  729 Torsion                112    89   144   127         129.16941    0.13062
  730 Torsion                114    54    14   119        -103.96003   -0.04783
  731 Torsion                115    13   107   126         127.51657    0.14138
  732 Torsion                 37    47   115   110         179.13238    0.16607
  733 Torsion                116     4   125   141        -107.61154   -0.19547
  734 Torsion                117    10   149   130          89.72458    0.42884
  735 Torsion                118    32    14   119         -27.25357    0.11611
  736 Torsion                119   130    63   144         -61.76617   -0.21471
  737 Torsion                121   134     5   129         -57.93114    0.55999
  738 Torsion                122    65     8   133          72.88623    1.21051
  739 Torsion                124   138     6   137        -177.07429   -3.28043
  740 Torsion                126   107    13   147        -109.91411    0.10436
  741 Torsion                127   126    59   140         -72.40488   -0.25537
  742 Torsion                127   144    63   130         -13.07473    0.27273
  743 Torsion                128     4   125   141          12.03937   -0.19652
  744 Torsion                131   117    10   149         103.17901   -0.10032
  745 Torsion                134     5   129   142         -55.76880    0.45149
  746 Torsion                135   130    63   144         175.19984   -0.13711
  747 Torsion                136     4   125   141         127.33753   -0.16858
  748 Torsion                136    42    91   139         -91.29504   -0.55322
  749 Torsion                138     6   137   145         -24.50075    0.40673
  750 Torsion                144    63   130   149          55.20303   -0.26497
  751 Torsion                146    18    68   151         172.66557   -0.00269



                                NWChem Input Module
                                -------------------




                                     CITATION
                                     --------
                Please cite the following reference when publishing
                           results obtained with NWChem:

          E. Apra, E. J. Bylaska, W. A. de Jong, N. Govind, K. Kowalski,
       T. P. Straatsma, M. Valiev, H. J. J. van Dam, Y. Alexeev, J. Anchell,
       V. Anisimov, F. W. Aquino, R. Atta-Fynn, J. Autschbach, N. P. Bauman,
     J. C. Becca, D. E. Bernholdt, K. Bhaskaran-Nair, S. Bogatko, P. Borowski,
         J. Boschen, J. Brabec, A. Bruner, E. Cauet, Y. Chen, G. N. Chuev,
      C. J. Cramer, J. Daily, M. J. O. Deegan, T. H. Dunning Jr., M. Dupuis,
   K. G. Dyall, G. I. Fann, S. A. Fischer, A. Fonari, H. Fruchtl, L. Gagliardi,
      J. Garza, N. Gawande, S. Ghosh, K. Glaesemann, A. W. Gotz, J. Hammond,
       V. Helms, E. D. Hermes, K. Hirao, S. Hirata, M. Jacquelin, L. Jensen,
   B. G. Johnson, H. Jonsson, R. A. Kendall, M. Klemm, R. Kobayashi, V. Konkov,
      S. Krishnamoorthy, M. Krishnan, Z. Lin, R. D. Lins, R. J. Littlefield,
      A. J. Logsdail, K. Lopata, W. Ma, A. V. Marenich, J. Martin del Campo,
   D. Mejia-Rodriguez, J. E. Moore, J. M. Mullin, T. Nakajima, D. R. Nascimento,
    J. A. Nichols, P. J. Nichols, J. Nieplocha, A. Otero-de-la-Roza, B. Palmer,
    A. Panyala, T. Pirojsirikul, B. Peng, R. Peverati, J. Pittner, L. Pollack,
   R. M. Richard, P. Sadayappan, G. C. Schatz, W. A. Shelton, D. W. Silverstein,
   D. M. A. Smith, T. A. Soares, D. Song, M. Swart, H. L. Taylor, G. S. Thomas,
            V. Tipparaju, D. G. Truhlar, K. Tsemekhman, T. Van Voorhis,
      A. Vazquez-Mayagoitia, P. Verma, O. Villa, A. Vishnu, K. D. Vogiatzis,
        D. Wang, J. H. Weare, M. J. Williamson, T. L. Windus, K. Wolinski,
        A. T. Wong, Q. Wu, C. Yang, Q. Yu, M. Zacharias, Z. Zhang, Y. Zhao,
                                and R. J. Harrison
                        "NWChem: Past, present, and future
                         J. Chem. Phys. 152, 184102 (2020)
                               doi:10.1063/5.0004997

                                      AUTHORS
                                      -------
  E. Apra, E. J. Bylaska, N. Govind, K. Kowalski, M. Valiev, D. Mejia-Rodriguez,
       A. Kunitsa, N. P. Bauman, A. Panyala, W. A. de Jong, T. P. Straatsma,
   H. J. J. van Dam, D. Wang, T. L. Windus, J. Hammond, J. Autschbach, A. Woods,
    K. Bhaskaran-Nair, J. Brabec, K. Lopata, S. A. Fischer, S. Krishnamoorthy,
     M. Jacquelin, W. Ma, M. Klemm, O. Villa, Y. Chen, V. Anisimov, F. Aquino,
     S. Hirata, M. T. Hackler, E. Hermes, L. Jensen, J. E. Moore, J. C. Becca,
      V. Konjkov, T. Risthaus, M. Malagoli, A. Marenich, A. Otero-de-la-Roza,
        J. Mullin, P. Nichols, R. Peverati, J. Pittner, Y. Zhao, P.-D. Fan,
        A. Fonari, M. J. Williamson, R. J. Harrison, J. R. Rehr, M. Dupuis,
     D. Silverstein, D. M. A. Smith, J. Nieplocha, V. Tipparaju, M. Krishnan,
     B. E. Van Kuiken, A. Vazquez-Mayagoitia, M. Swart, Q. Wu, T. Van Voorhis,
     A. A. Auer, M. Nooijen, L. D. Crosby, E. Brown, G. Cisneros, G. I. Fann,
   H. Fruchtl, J. Garza, K. Hirao, R. A. Kendall, J. A. Nichols, K. Tsemekhman,
    K. Wolinski, J. Anchell, D. E. Bernholdt, P. Borowski, T. Clark, D. Clerc,
   H. Dachsel, M. J. O. Deegan, K. Dyall, D. Elwood, E. Glendening, M. Gutowski,
   A. C. Hess, J. Jaffe, B. G. Johnson, J. Ju, R. Kobayashi, R. Kutteh, Z. Lin,
   R. Littlefield, X. Long, B. Meng, T. Nakajima, S. Niu, L. Pollack, M. Rosing,
   K. Glaesemann, G. Sandrone, M. Stave, H. Taylor, G. Thomas, J. H. van Lenthe,
                               A. T. Wong, Z. Zhang.

 Total times  cpu:     4819.9s     wall:     5315.9s
