
     Program PWSCF v.7.5 starts on  7Apr2026 at  8:44:26 
        Git branch: develop
        Last git commit: 3e5a71a67d2fb1ae1be6b5fa85d1ffd600d0d4d8
        Last git commit date: Sun Apr 5 15:29:59 2026 +0000
        Last git commit subject: Merge branch 'bugfix' into 'develop'

     This program is part of the open-source Quantum ESPRESSO suite
     for quantum simulation of materials; please cite
         "P. Giannozzi et al., J. Phys.:Condens. Matter 21 395502 (2009);
         "P. Giannozzi et al., J. Phys.:Condens. Matter 29 465901 (2017);
         "P. Giannozzi et al., J. Chem. Phys. 152 154105 (2020);
          URL http://www.quantum-espresso.org", 
     in publications or presentations arising from this work. More details at
     http://www.quantum-espresso.org/quote

     Parallel version (MPI), running on    40 processors

     MPI processes distributed on     2 nodes
     2027324 MiB available memory on the printing compute node when the environment starts
 
     Waiting for input...
     Reading input from standard input
Warning: card &CELL ignored

     Current dimensions of program PWSCF are:
     Max number of different atomic species (ntypx) = 10
     Max number of k-points (npk) =  40000
     Max angular momentum in pseudopotentials (lmaxx) =  4

     Exact exchange band parallelism type set to band_pairs

 
     K-points division:     npool     =       2
     R & G space division:  proc/nbgrp/npool/nimage =      20
     Subspace diagonalization in iterative solution of the eigenvalue problem:
     one sub-group per band group will be used
     scalapack distributed-memory algorithm (size of sub-group:  4*  4 procs)

 
     Parallelization info
     --------------------
     sticks:   dense  smooth     PW     G-vecs:    dense   smooth      PW
     Min         898     898    232               112628   112628   14886
     Max         899     899    233               112631   112631   14893
     Sum       17979   17979   4657              2252595  2252595  297815
 
     Using Slab Decomposition
 


     bravais-lattice index     =            0
     lattice parameter (alat)  =      24.6592  a.u.
     unit-cell volume          =   23302.3946 (a.u.)^3
     number of atoms/cell      =           55
     number of atomic types    =            2
     number of electrons       =       886.00
     number of Kohn-Sham states=         1064
     kinetic-energy cutoff     =      80.0000  Ry
     charge density cutoff     =     320.0000  Ry
     scf convergence threshold =      1.0E-09
     mixing beta               =       0.2000
     number of iterations used =            8  plain     mixing
     energy convergence thresh.=      1.0E-08
     force convergence thresh. =      1.0E-04
     Exchange-correlation= PBE
                           (   1   4   3   4   0   0   0)
     nstep                     =          250

     Non magnetic calculation with spin-orbit


     celldm(1)=  24.659173  celldm(2)=   0.000000  celldm(3)=   0.000000
     celldm(4)=   0.000000  celldm(5)=   0.000000  celldm(6)=   0.000000

     crystal axes: (cart. coord. in units of alat)
               a(1) = (   1.000000   0.000000   0.000000 )  
               a(2) = (   0.000000   1.159736   0.000000 )  
               a(3) = (   0.000000   0.000000   1.340003 )  

     reciprocal axes: (cart. coord. in units 2 pi/alat)
               b(1) = (  1.000000 -0.000000  0.000000 )  
               b(2) = ( -0.000000  0.862265  0.000000 )  
               b(3) = (  0.000000  0.000000  0.746267 )  


     PseudoPot. # 1 for Se read from file:
     ./Se_r.upf
     MD5 check sum: cb2cefba1335ec1a0ef320de5a6fd81a
     Pseudo is Norm-conserving + core correction, Zval = 16.0
     Generated using ONCVPSP code by D. R. Hamann
     Using radial grid of 1214 points, 10 beta functions with: 
                l(1) =   0
                l(2) =   0
                l(3) =   1
                l(4) =   1
                l(5) =   1
                l(6) =   1
                l(7) =   2
                l(8) =   2
                l(9) =   2
               l(10) =   2

     PseudoPot. # 2 for Fl read from file:
     ./Fl-6spd_r.upf
     MD5 check sum: b85b9b71a88d70a023db0b659bf16840
     Pseudo is Norm-conserving + core correction, Zval = 22.0
     Generated using ONCVPSP code by D. R. Hamann
     Using radial grid of 2000 points, 12 beta functions with: 
                l(1) =   0
                l(2) =   0
                l(3) =   1
                l(4) =   1
                l(5) =   1
                l(6) =   1
                l(7) =   2
                l(8) =   2
                l(9) =   2
               l(10) =   2
               l(11) =   3
               l(12) =   3

     atomic species   valence    mass     pseudopotential
     Se               16.00    78.96000     Se( 1.00)
     Fl               22.00   289.00000     Fl( 1.00)

     No symmetry found


                                    s                        frac. trans.

      isym =  1     identity                                     

 cryst.   s( 1) = (     1          0          0      )
                  (     0          1          0      )
                  (     0          0          1      )

 cart.    s( 1) = (  1.0000000  0.0000000  0.0000000 )
                  (  0.0000000  1.0000000  0.0000000 )
                  (  0.0000000  0.0000000  1.0000000 )


   Cartesian axes

     site n.     atom                  positions (alat units)
         1        Se     tau(   1) = (   0.1265139   0.1290319   0.2899348  )
         2        Se     tau(   2) = (   0.2973158   0.1280496   0.5687483  )
         3        Se     tau(   3) = (   0.2424917   0.2574301   0.2214487  )
         4        Se     tau(   4) = (   0.0760817   0.2584016   0.5063187  )
         5        Se     tau(   5) = (   0.1310203   0.0010567   0.1588305  )
         6        Se     tau(   6) = (   0.2921905   0.0002726   0.4375454  )
         7        Se     tau(   7) = (   0.4598471   0.1290321   0.2899346  )
         8        Se     tau(   8) = (   0.6299803   0.1283228   0.5689520  )
         9        Se     tau(   9) = (   0.5758247   0.2574302   0.2214482  )
        10        Se     tau(  10) = (   0.4098437   0.2575206   0.5053950  )
        11        Se     tau(  11) = (   0.4643531   0.0010568   0.1588304  )
        12        Se     tau(  12) = (   0.6242380   0.0085819   0.4313932  )
        13        Se     tau(  13) = (   0.7931807   0.1290319   0.2899341  )
        14        Se     tau(  14) = (   0.9656268   0.1276518   0.5688908  )
        15        Se     tau(  15) = (   0.9091586   0.2574301   0.2214482  )
        16        Se     tau(  16) = (   0.7458318   0.2524867   0.5046476  )
        17        Se     tau(  17) = (   0.7976871   0.0010567   0.1588299  )
        18        Se     tau(  18) = (   0.9625903   0.0016803   0.4353056  )
        19        Se     tau(  19) = (   0.1264983   0.5155936   0.2899296  )
        20        Se     tau(  20) = (   0.2969726   0.5136271   0.5681790  )
        21        Se     tau(  21) = (   0.2424688   0.6440249   0.2214632  )
        22        Se     tau(  22) = (   0.0752292   0.6448320   0.5058441  )
        23        Se     tau(  23) = (   0.1310206   0.3876536   0.1587981  )
        24        Se     tau(  24) = (   0.2934719   0.3854065   0.4368159  )
        25        Se     tau(  25) = (   0.4598315   0.5155937   0.2899294  )
        26        Se     tau(  26) = (   0.6462999   0.5109060   0.5402579  )
        27        Se     tau(  27) = (   0.5758018   0.6440250   0.2214627  )
        28        Se     tau(  28) = (   0.4061699   0.6436013   0.5027792  )
        29        Se     tau(  29) = (   0.4643534   0.3876537   0.1587979  )
        30        Se     tau(  30) = (   0.6278084   0.3699494   0.4224306  )
        31        Se     tau(  31) = (   0.7931651   0.5155936   0.2899289  )
        32        Se     tau(  32) = (   0.9632030   0.5139081   0.5666913  )
        33        Se     tau(  33) = (   0.9091357   0.6440249   0.2214627  )
        34        Se     tau(  34) = (   0.7529417   0.6375283   0.4642193  )
        35        Se     tau(  35) = (   0.7976875   0.3876535   0.1587975  )
        36        Se     tau(  36) = (   0.9602072   0.3856663   0.4355035  )
        37        Se     tau(  37) = (   0.1264959   0.9021877   0.2899756  )
        38        Se     tau(  38) = (   0.2975291   0.9016391   0.5683027  )
        39        Se     tau(  39) = (   0.2424890   1.0305767   0.2214989  )
        40        Se     tau(  40) = (   0.0756686   1.0312589   0.5055182  )
        41        Se     tau(  41) = (   0.1310011   0.7742540   0.1588314  )
        42        Se     tau(  42) = (   0.2909525   0.7738330   0.4363150  )
        43        Se     tau(  43) = (   0.4598291   0.9021878   0.2899754  )
        44        Se     tau(  44) = (   0.6377429   0.9105047   0.5432327  )
        45        Se     tau(  45) = (   0.5758220   1.0305769   0.2214984  )
        46        Se     tau(  46) = (   0.4092338   1.0316718   0.5054364  )
        47        Se     tau(  47) = (   0.4643340   0.7742541   0.1588312  )
        48        Se     tau(  48) = (   0.6372967   0.7735268   0.4122773  )
        49        Se     tau(  49) = (   0.7931627   0.9021876   0.2899749  )
        50        Se     tau(  50) = (   0.9642211   0.9009061   0.5681755  )
        51        Se     tau(  51) = (   0.9091559   1.0305767   0.2214984  )
        52        Se     tau(  52) = (   0.7501550   1.0478910   0.4941099  )
        53        Se     tau(  53) = (   0.7976680   0.7742539   0.1588308  )
        54        Se     tau(  54) = (   0.9603153   0.7733207   0.4355144  )
        55        Fl     tau(  55) = (   0.5835190   0.7125450   0.6574096  )

     Fixed atoms
     site n.  direction
         1    0   0   0
         2    1   1   1
         3    0   0   0
         4    1   1   1
         5    0   0   0
         6    1   1   1
         7    0   0   0
         8    1   1   1
         9    0   0   0
        10    1   1   1
        11    0   0   0
        12    1   1   1
        13    0   0   0
        14    1   1   1
        15    0   0   0
        16    1   1   1
        17    0   0   0
        18    1   1   1
        19    0   0   0
        20    1   1   1
        21    0   0   0
        22    1   1   1
        23    0   0   0
        24    1   1   1
        25    0   0   0
        26    1   1   1
        27    0   0   0
        28    1   1   1
        29    0   0   0
        30    1   1   1
        31    0   0   0
        32    1   1   1
        33    0   0   0
        34    1   1   1
        35    0   0   0
        36    1   1   1
        37    0   0   0
        38    1   1   1
        39    0   0   0
        40    1   1   1
        41    0   0   0
        42    1   1   1
        43    0   0   0
        44    1   1   1
        45    0   0   0
        46    1   1   1
        47    0   0   0
        48    1   1   1
        49    0   0   0
        50    1   1   1
        51    0   0   0
        52    1   1   1
        53    0   0   0
        54    1   1   1
        55    1   1   1

   Crystallographic axes

     site n.     atom                  positions (cryst. coord.)
         1        Se     tau(   1) = (  0.1265139  0.1112597  0.2163687  )
         2        Se     tau(   2) = (  0.2973158  0.1104127  0.4244380  )
         3        Se     tau(   3) = (  0.2424917  0.2219730  0.1652598  )
         4        Se     tau(   4) = (  0.0760817  0.2228107  0.3778489  )
         5        Se     tau(   5) = (  0.1310203  0.0009112  0.1185300  )
         6        Se     tau(   6) = (  0.2921905  0.0002351  0.3265257  )
         7        Se     tau(   7) = (  0.4598471  0.1112598  0.2163686  )
         8        Se     tau(   8) = (  0.6299803  0.1106483  0.4245900  )
         9        Se     tau(   9) = (  0.5758247  0.2219731  0.1652594  )
        10        Se     tau(  10) = (  0.4098437  0.2220510  0.3771595  )
        11        Se     tau(  11) = (  0.4643531  0.0009112  0.1185298  )
        12        Se     tau(  12) = (  0.6242380  0.0073998  0.3219344  )
        13        Se     tau(  13) = (  0.7931807  0.1112596  0.2163682  )
        14        Se     tau(  14) = (  0.9656268  0.1100696  0.4245443  )
        15        Se     tau(  15) = (  0.9091586  0.2219729  0.1652594  )
        16        Se     tau(  16) = (  0.7458318  0.2177104  0.3766018  )
        17        Se     tau(  17) = (  0.7976871  0.0009111  0.1185295  )
        18        Se     tau(  18) = (  0.9625903  0.0014488  0.3248541  )
        19        Se     tau(  19) = (  0.1264983  0.4445784  0.2163648  )
        20        Se     tau(  20) = (  0.2969726  0.4428827  0.4240131  )
        21        Se     tau(  21) = (  0.2424688  0.5553202  0.1652706  )
        22        Se     tau(  22) = (  0.0752292  0.5560162  0.3774947  )
        23        Se     tau(  23) = (  0.1310206  0.3342602  0.1185057  )
        24        Se     tau(  24) = (  0.2934719  0.3323226  0.3259812  )
        25        Se     tau(  25) = (  0.4598315  0.4445785  0.2163647  )
        26        Se     tau(  26) = (  0.6462999  0.4405364  0.4031766  )
        27        Se     tau(  27) = (  0.5758018  0.5553203  0.1652703  )
        28        Se     tau(  28) = (  0.4061698  0.5549550  0.3752074  )
        29        Se     tau(  29) = (  0.4643534  0.3342602  0.1185056  )
        30        Se     tau(  30) = (  0.6278084  0.3189945  0.3152460  )
        31        Se     tau(  31) = (  0.7931651  0.4445783  0.2163643  )
        32        Se     tau(  32) = (  0.9632030  0.4431250  0.4229029  )
        33        Se     tau(  33) = (  0.9091357  0.5553201  0.1652702  )
        34        Se     tau(  34) = (  0.7529416  0.5497184  0.3464315  )
        35        Se     tau(  35) = (  0.7976875  0.3342601  0.1185053  )
        36        Se     tau(  36) = (  0.9602072  0.3325465  0.3250018  )
        37        Se     tau(  37) = (  0.1264959  0.7779250  0.2163992  )
        38        Se     tau(  38) = (  0.2975290  0.7774520  0.4241055  )
        39        Se     tau(  39) = (  0.2424890  0.8886304  0.1652973  )
        40        Se     tau(  40) = (  0.0756686  0.8892186  0.3772515  )
        41        Se     tau(  41) = (  0.1310011  0.6676122  0.1185306  )
        42        Se     tau(  42) = (  0.2909525  0.6672492  0.3256074  )
        43        Se     tau(  43) = (  0.4598290  0.7779251  0.2163991  )
        44        Se     tau(  44) = (  0.6377429  0.7850964  0.4053966  )
        45        Se     tau(  45) = (  0.5758219  0.8886305  0.1652969  )
        46        Se     tau(  46) = (  0.4092338  0.8895746  0.3771904  )
        47        Se     tau(  47) = (  0.4643339  0.6676123  0.1185305  )
        48        Se     tau(  48) = (  0.6372967  0.6669851  0.3076689  )
        49        Se     tau(  49) = (  0.7931626  0.7779249  0.2163987  )
        50        Se     tau(  50) = (  0.9642211  0.7768199  0.4240105  )
        51        Se     tau(  51) = (  0.9091558  0.8886303  0.1652969  )
        52        Se     tau(  52) = (  0.7501549  0.9035599  0.3687378  )
        53        Se     tau(  53) = (  0.7976680  0.6676121  0.1185301  )
        54        Se     tau(  54) = (  0.9603153  0.6668074  0.3250099  )
        55        Fl     tau(  55) = (  0.5835190  0.6144027  0.4906030  )

     number of k points=    20  Gaussian smearing, width (Ry)=  0.0200
                       cart. coord. in units 2pi/alat
        k(    1) = (   0.0000000   0.0000000   0.0000000), wk =   0.0277778
        k(    2) = (  -0.0000000   0.1437109   0.0000000), wk =   0.0555556
        k(    3) = (  -0.0000000   0.2874217   0.0000000), wk =   0.0555556
        k(    4) = (   0.0000000  -0.4311326   0.0000000), wk =   0.0277778
        k(    5) = (   0.1666667  -0.0000000   0.0000000), wk =   0.0555556
        k(    6) = (   0.1666667   0.1437109   0.0000000), wk =   0.0555556
        k(    7) = (   0.1666666   0.2874217   0.0000000), wk =   0.0555556
        k(    8) = (   0.1666667  -0.4311326   0.0000000), wk =   0.0555556
        k(    9) = (   0.3333333  -0.0000000   0.0000000), wk =   0.0555556
        k(   10) = (   0.3333333   0.1437108   0.0000000), wk =   0.0555556
        k(   11) = (   0.3333333   0.2874217   0.0000000), wk =   0.0555556
        k(   12) = (   0.3333334  -0.4311326   0.0000000), wk =   0.0555556
        k(   13) = (  -0.5000000   0.0000000   0.0000000), wk =   0.0277778
        k(   14) = (  -0.5000000   0.1437109   0.0000000), wk =   0.0555556
        k(   15) = (  -0.5000000   0.2874217   0.0000000), wk =   0.0555556
        k(   16) = (  -0.5000000  -0.4311326   0.0000000), wk =   0.0277778
        k(   17) = (  -0.1666667   0.1437109   0.0000000), wk =   0.0555556
        k(   18) = (  -0.1666667   0.2874217   0.0000000), wk =   0.0555556
        k(   19) = (  -0.3333333   0.1437109   0.0000000), wk =   0.0555556
        k(   20) = (  -0.3333334   0.2874217   0.0000000), wk =   0.0555556

                       cryst. coord.
        k(    1) = (   0.0000000   0.0000000   0.0000000), wk =   0.0277778
        k(    2) = (   0.0000000   0.1666667   0.0000000), wk =   0.0555556
        k(    3) = (   0.0000000   0.3333333   0.0000000), wk =   0.0555556
        k(    4) = (   0.0000000  -0.5000000   0.0000000), wk =   0.0277778
        k(    5) = (   0.1666667   0.0000000   0.0000000), wk =   0.0555556
        k(    6) = (   0.1666667   0.1666667   0.0000000), wk =   0.0555556
        k(    7) = (   0.1666667   0.3333333   0.0000000), wk =   0.0555556
        k(    8) = (   0.1666667  -0.5000000   0.0000000), wk =   0.0555556
        k(    9) = (   0.3333333   0.0000000   0.0000000), wk =   0.0555556
        k(   10) = (   0.3333333   0.1666667   0.0000000), wk =   0.0555556
        k(   11) = (   0.3333333   0.3333333   0.0000000), wk =   0.0555556
        k(   12) = (   0.3333333  -0.5000000   0.0000000), wk =   0.0555556
        k(   13) = (  -0.5000000   0.0000000   0.0000000), wk =   0.0277778
        k(   14) = (  -0.5000000   0.1666667   0.0000000), wk =   0.0555556
        k(   15) = (  -0.5000000   0.3333333   0.0000000), wk =   0.0555556
        k(   16) = (  -0.5000000  -0.5000000   0.0000000), wk =   0.0277778
        k(   17) = (  -0.1666667   0.1666667   0.0000000), wk =   0.0555556
        k(   18) = (  -0.1666667   0.3333333   0.0000000), wk =   0.0555556
        k(   19) = (  -0.3333333   0.1666667   0.0000000), wk =   0.0555556
        k(   20) = (  -0.3333333   0.3333333   0.0000000), wk =   0.0555556

     Dense  grid:  2252595 G-vectors     FFT dimensions: ( 144, 180, 192)

     Dynamical RAM for                 wfc:     457.12 MB

     Dynamical RAM for     wfc (w. buffer):    5028.35 MB

     Dynamical RAM for           str. fact:       3.44 MB

     Dynamical RAM for           local pot:       0.00 MB

     Dynamical RAM for          nlocal pot:     404.71 MB

     Dynamical RAM for                qrad:      14.93 MB

     Dynamical RAM for          rho,v,vnew:      44.35 MB

     Dynamical RAM for               rhoin:      14.78 MB

     Dynamical RAM for            rho*nmix:     109.99 MB

     Dynamical RAM for           G-vectors:       7.30 MB

     Dynamical RAM for          h,s,v(r/c):      12.96 MB

     Dynamical RAM for          <psi|beta>:      61.17 MB

     Dynamical RAM for                 phi:    1828.49 MB

     Dynamical RAM for                hphi:    1828.49 MB

     Dynamical RAM for                hpsi:     457.12 MB

     Dynamical RAM for                kpsi:     457.12 MB

     Dynamical RAM for               hkpsi:     457.12 MB

     Dynamical RAM for      wfcinit/wfcrot:     711.60 MB

     Estimated static dynamical RAM per process >       5.41 GB

     Estimated max dynamical RAM per process >      10.50 GB

     Estimated total dynamical RAM >     417.82 GB
 ----2D----2D----2D----2D----2D----2D----2D----2D----2D----2D----2D----2D
  The code is running with the 2D cutoff
  Please refer to:
  Sohier, T., Calandra, M., & Mauri, F. (2017), 
  Density functional perturbation theory for gated two-dimensional heterostructu
 res:
  Theoretical developments and application to flexural phonons in graphene.
  Physical Review B, 96(7), 75448. https://doi.org/10.1103/PhysRevB.96.075448
 ----2D----2D----2D----2D----2D----2D----2D----2D----2D----2D----2D----2D

     Initial potential from superposition of free atoms

     starting charge     885.9890, renormalised to     886.0000

     negative rho (up, down):  1.161E-04 0.000E+00
     Starting wfcs are  998 randomized atomic wfcs +   66 random wfcs

     total cpu time spent up to now is      837.6 secs

     per-process dynamical memory:  5754.6 Mb

     Self-consistent Calculation

     iteration #  1     ecut=    80.00 Ry     beta= 0.20
     Davidson diagonalization with overlap

---- Real-time Memory Report at c_bands before calling an iterative solver
          6193 MiB given to the printing process from OS
          5619 MiB allocation reported by mallinfo(arena+hblkhd)
       1915604 MiB available memory on the node where the printing process lives
------------------
     ethr =  1.00E-02,  avg # of iterations =  7.7

     Threshold (ethr) on eigenvalues was too large:
     Diagonalizing with lowered threshold

     Davidson diagonalization with overlap

---- Real-time Memory Report at c_bands before calling an iterative solver
          7640 MiB given to the printing process from OS
          5656 MiB allocation reported by mallinfo(arena+hblkhd)
       1914703 MiB available memory on the node where the printing process lives
------------------
     ethr =  8.25E-05,  avg # of iterations = 10.2

     negative rho (up, down):  9.055E-05 0.000E+00

     total cpu time spent up to now is     8304.8 secs

     total energy              =  -13476.08518002 Ry
     estimated scf accuracy    <       0.70830568 Ry

     iteration #  2     ecut=    80.00 Ry     beta= 0.20
     Davidson diagonalization with overlap

---- Real-time Memory Report at c_bands before calling an iterative solver
          7694 MiB given to the printing process from OS
          5756 MiB allocation reported by mallinfo(arena+hblkhd)
       1912702 MiB available memory on the node where the printing process lives
------------------
     ethr =  7.99E-05,  avg # of iterations =  2.0

     negative rho (up, down):  5.362E-05 0.000E+00

     total cpu time spent up to now is    10926.0 secs

     total energy              =  -13476.01942222 Ry
     estimated scf accuracy    <       0.36349632 Ry

     iteration #  3     ecut=    80.00 Ry     beta= 0.20
     RMM-DIIS diagonalization

---- Real-time Memory Report at c_bands before calling an iterative solver
          7694 MiB given to the printing process from OS
          5770 MiB allocation reported by mallinfo(arena+hblkhd)
       1912394 MiB available memory on the node where the printing process lives
------------------
     ethr =  4.10E-05,  avg # of iterations =  2.5

     negative rho (up, down):  2.503E-05 0.000E+00

     total cpu time spent up to now is    13264.7 secs

     total energy              =  -13476.00462950 Ry
     estimated scf accuracy    <       0.15843825 Ry

     iteration #  4     ecut=    80.00 Ry     beta= 0.20
     RMM-DIIS diagonalization

---- Real-time Memory Report at c_bands before calling an iterative solver
         10830 MiB given to the printing process from OS
          5784 MiB allocation reported by mallinfo(arena+hblkhd)
       1912004 MiB available memory on the node where the printing process lives
------------------
     ethr =  1.79E-05,  avg # of iterations =  2.6

     negative rho (up, down):  8.512E-06 0.000E+00

     total cpu time spent up to now is    15684.6 secs

     total energy              =  -13476.01734397 Ry
     estimated scf accuracy    <       0.02810210 Ry

     iteration #  5     ecut=    80.00 Ry     beta= 0.20
     Davidson diagonalization with overlap

---- Real-time Memory Report at c_bands before calling an iterative solver
         10844 MiB given to the printing process from OS
          5798 MiB allocation reported by mallinfo(arena+hblkhd)
       1911801 MiB available memory on the node where the printing process lives
------------------
     ethr =  3.17E-06,  avg # of iterations = 15.3

     negative rho (up, down):  4.370E-06 0.000E+00

     total cpu time spent up to now is    19443.6 secs

     total energy              =  -13476.02093999 Ry
     estimated scf accuracy    <       0.00566239 Ry

     iteration #  6     ecut=    80.00 Ry     beta= 0.20
     RMM-DIIS diagonalization

---- Real-time Memory Report at c_bands before calling an iterative solver
         10844 MiB given to the printing process from OS
          5811 MiB allocation reported by mallinfo(arena+hblkhd)
       1911346 MiB available memory on the node where the printing process lives
------------------
     ethr =  6.39E-07,  avg # of iterations =  2.5

     negative rho (up, down):  1.230E-06 0.000E+00

     total cpu time spent up to now is    21868.6 secs

     total energy              =  -13476.02129262 Ry
     estimated scf accuracy    <       0.00161838 Ry

     iteration #  7     ecut=    80.00 Ry     beta= 0.20
     RMM-DIIS diagonalization

---- Real-time Memory Report at c_bands before calling an iterative solver
         10872 MiB given to the printing process from OS
          5825 MiB allocation reported by mallinfo(arena+hblkhd)
       1911052 MiB available memory on the node where the printing process lives
------------------
     ethr =  1.83E-07,  avg # of iterations =  2.8

     negative rho (up, down):  3.124E-07 0.000E+00

     total cpu time spent up to now is    24368.7 secs

     total energy              =  -13476.02148181 Ry
     estimated scf accuracy    <       0.00047965 Ry

     iteration #  8     ecut=    80.00 Ry     beta= 0.20
     RMM-DIIS diagonalization

---- Real-time Memory Report at c_bands before calling an iterative solver
         10887 MiB given to the printing process from OS
          5839 MiB allocation reported by mallinfo(arena+hblkhd)
       1910722 MiB available memory on the node where the printing process lives
------------------
