

 Parallel Execution: Process Information
 ==============================================================================
 Rank   Node Name                              NodeID   MyNodeRank  NodeMaster
    0   lxir125                                   0          0          0
    1   lxir125                                   0          1         -1
    2   lxir125                                   0          2         -1
    3   lxir125                                   0          3         -1
    4   lxir125                                   0          4         -1
    5   lxir125                                   0          5         -1
    6   lxir125                                   0          6         -1
    7   lxir125                                   0          7         -1
    8   lxir125                                   0          8         -1
    9   lxir125                                   0          9         -1
   10   lxir125                                   1          0          1
   11   lxir125                                   1          1         -1
   12   lxir125                                   1          2         -1
   13   lxir125                                   1          3         -1
   14   lxir125                                   1          4         -1
   15   lxir125                                   1          5         -1
   16   lxir125                                   1          6         -1
   17   lxir125                                   1          7         -1
   18   lxir125                                   1          8         -1
   19   lxir125                                   1          9         -1
 ==============================================================================


May use up to 61431MB of RAM as shared memory on node 0
May use up to 61512MB of RAM as shared memory on node 1

 *******************************************************************************
 *                                                                             *
 *  --------------------------------                                           *
 *   Amsterdam Modeling Suite (AMS)              2022.104                      *
 *  --------------------------------                                           *
 *                                               r105446 2022-07-07            *
 *                                                                             *
 *                                                                             *
 *                              =================                              *
 *                              |               |                              *
 *                              |     A M S     |                              *
 *                              |               |                              *
 *                              =================                              *
 *                                                                             *
 *                                                                             *
 *   Online information and documentation:  https://www.scm.com/support/       *
 *   E-mail:  support@scm.com   info@scm.com                                   *
 *                                                                             *
 *   Scientific publications using AMS results must be properly referenced     *
 *   See the User Manuals (or the web site) for recommended citations          *
 *   The terms and conditions of the End User License Agreement apply to       *
 *   the use of AMS, https://www.scm.com/license-terms/                        *
 *                                                                             *
 **********************  x86_64_linux_intel / intelmpi  ************************
 
 Licensed to: Dr. Valeria Pershina / GSI Helmholtzzentrum f?r Schwerionenforschung GmbH / Darmstadt / Germany 2022-06-03 12:03:23
 SCM User ID: u15059
  
 AMS 2022.104  RunTime: Jul08-2022 13:18:42  ShM Nodes: 2  Procs: 20

 AMS jobname: ams
 AMS jobid  : 2033579054

 Start   directory: /data.local1/milias/work/projects/open-collection/theoretical_chemistry/software_runs/ams/servers/lxir124-126_gsi_de/sozora_test/tmp.milias.15098.0.noindex/
 Results directory: /data.local1/milias/work/projects/open-collection/theoretical_chemistry/software_runs/ams/servers/lxir124-126_gsi_de/sozora_test/TlOH_on_QuartzOH_slab001_4x4_fromSi7.sozora-step_revpbe-d3bj_tzp_sc.results/
 Scratch directory: /data.local1/milias/scratch/amstmp_ams_kid0.2033579054/


 Communication costs MPI_COMM_WORLD:      1.451 usec per message,   0.0089 usec per 8-byte item
 Communication costs for intra-node:      0.829 usec per message,   0.0066 usec per 8-byte item

 RNG seed: -1328421050 -862701673 -2014236212 1713544721 606852152 -548741089 486526197 2031583902
       ****************************
       * SINGLE POINT CALCULATION *
       ****************************
 
--------
Geometry
--------
Formula: H17O193Si96Tl
Atoms
  Index Symbol   x (angstrom)   y (angstrom)   z (angstrom)
      1     Si    10.02455108     4.08451422    -7.18274035
      2     Si    12.48109462     8.31405239    -7.15805890
      3     Si   -14.42628292    -8.51762396    -9.01408003
      4     Si   -11.92608522    -4.23059919    -9.01052193
      5     Si    -9.54231267     0.05540803    -9.03667610
      6     Si    -7.08715967     4.32320571    -8.98650492
      7     Si    -9.51916679    -8.45318309    -9.04684950
      8     Si    -7.02882611    -4.17861789    -9.05235375
      9     Si    -4.54789674     0.40836268    -8.94239003
     10     Si    -2.18327484     4.34342653    -9.04026797
     11     Si    -4.61093965    -8.44748073    -9.03458018
     12     Si    -2.12155566    -4.08706209    -9.02983657
     13     Si     0.18288006    -0.23349796    -8.98481090
     14     Si     2.72608024     4.24543590    -9.00490838
     15     Si     0.28510149    -8.41137459    -9.00096914
     16     Si     2.77199571    -4.35571326    -9.02338375
     17     Si     5.12642497     0.06347319    -9.08874267
     18     Si     7.61946088     4.26710816    -9.02087421
     19      O   -11.94697250    -5.15968197    -4.80678073
     20      O    -9.47711482    -0.91241894    -4.82914796
     21      O    -7.06070817     3.30847738    -4.75876256
     22      O    -4.62183101     7.55379139    -4.75684087
     23      O    -7.04484756    -5.16575996    -4.81733755
     24      O    -4.68559224    -0.95247985    -4.73746903
     25      O    -2.13640027     3.29568127    -4.74324364
     26      O     0.23885144     7.53161026    -4.79866821
     27      O    -2.17251071    -5.17771507    -4.78544695
     28      O     0.25581300    -0.95030483    -4.76522630
     29      O     2.68765223     3.30045270    -4.78787102
     30      O     5.15683070     7.54050546    -4.79122301
     31      O     2.73711027    -5.17347844    -4.80199473
     32      O     5.10321993    -0.96616310    -4.82200134
     33      O     7.58120962     3.29533482    -4.78758346
     34      O    10.03143811     7.53341488    -4.77118745
     35      O   -10.08445386    -5.71206407    -1.28201887
     36      O    -7.66076041    -1.46484294    -1.22393126
     37      O    -5.19628343     2.75941713    -1.21189942
     38      O    -2.71763053     6.98231455    -1.20113197
     39      O    -5.20689946    -5.75016080    -1.24257753
     40      O    -2.72774513    -1.52384928    -1.19220320
     41      O    -0.29522928     2.74473668    -1.20385741
     42      O     2.17131245     6.97519984    -1.25366079
     43      O    -0.28419009    -5.73990747    -1.26751912
     44      O     2.18906471    -1.54922085    -1.19196828
     45      O     4.58661286     2.74042729    -1.24613144
     46      O     7.02761651     6.98436529    -1.23222881
     47      O     4.59518728    -5.73129844    -1.25754126
     48      O     7.04911867    -1.51361726    -1.27443530
     49      O     9.48716451     2.73334593    -1.23321280
     50      O    11.94015220     6.97325475    -1.20099850
     51      O   -12.81938286    -8.03197628    -3.04145600
     52      O   -10.39207153    -3.74297569    -3.09554877
     53      O    -7.94576347     0.47388876    -3.06780375
     54      O    -5.49850268     4.71408976    -3.03753555
     55      O    -7.93107168    -8.04733931    -3.10459448
     56      O    -5.48024891    -3.79164642    -3.07141883
     57      O    -3.04990790     0.41060690    -3.03387460
     58      O    -0.59773581     4.71003343    -3.02524563
     59      O    -3.03278133    -8.02891664    -3.07870463
     60      O    -0.61697600    -3.76582517    -3.06684372
     61      O     1.87520538     0.37447176    -3.04777973
     62      O     4.28089199     4.68504996    -3.08321313
     63      O     1.85146231    -8.05468264    -3.05428693
     64      O     4.29981170    -3.76652480    -3.08316404
     65      O     6.71934058     0.41795234    -3.12639964
     66      O     9.17938760     4.67309163    -3.07158195
     67      O   -11.90473182    -7.45905832    -0.58557753
     68      O    -9.49402923    -3.21951010    -0.61847017
     69      O    -7.08084365     1.04940855    -0.58910140
     70      O    -4.58751998     5.26232009    -0.57013003
     71      O    -7.07508619    -7.46517229    -0.62342092
     72      O    -4.59824279    -3.24999801    -0.59477153
     73      O    -2.14136121     0.99473708    -0.57696402
     74      O     0.32927070     5.24492826    -0.56228179
     75      O    -2.15265072    -7.46006899    -0.60332633
     76      O     0.30046614    -3.25009835    -0.59150832
     77      O     2.77178212     0.97168968    -0.58790325
     78      O     5.16660112     5.25289840    -0.60904153
     79      O     2.74105676    -7.46012520    -0.59144108
     80      O     5.19646617    -3.23522945    -0.60602542
     81      O     7.61309923     1.00141511    -0.66060153
     82      O    10.05856488     5.24961357    -0.59827164
     83      O   -10.06998905    -6.88825719    -4.15271114
     84      O    -7.56422195    -2.61766402    -4.20613502
     85      O    -5.14622435     1.60211300    -4.13756602
     86      O    -2.71052175     5.84371979    -4.13591782
     87      O    -5.13800660    -6.86756649    -4.19651631
     88      O    -2.78099294    -2.66398285    -4.11904490
     89      O    -0.20193074     1.60963876    -4.07388769
     90      O     2.13562833     5.82391741    -4.16143284
     91      O    -0.27891819    -6.89016833    -4.12929612
     92      O     2.21808661    -2.61535030    -4.22764422
     93      O     4.53223413     1.53927404    -4.15890522
     94      O     7.06222346     5.83497476    -4.16443741
     95      O     4.61705562    -6.87490361    -4.09936638
     96      O     7.03985154    -2.63415276    -4.19455544
     97      O     9.49209088     1.59946612    -4.17186237
     98      O    11.93997294     5.83887510    -4.13876957
     99      O    -7.92782730    -4.56524605    -2.37164678
    100      O    -5.48941240    -0.32786508    -2.27824607
    101      O    -3.03437091     3.88969640    -2.30553833
    102      O    -0.56772796     8.11331877    -2.31801615
    103      O    -3.02999793    -4.63640796    -2.31276404
    104      O    -0.57687985    -0.38519520    -2.29531065
    105      O     1.86238754     3.87295090    -2.31473733
    106      O     4.31832919     8.14886841    -2.33727465
    107      O     1.86028030    -4.56058211    -2.36769588
    108      O     4.33291019    -0.41454319    -2.31510249
    109      O     6.74457613     3.88623127    -2.32700423
    110      O     9.20311600     8.10752706    -2.30249081
    111      O     6.75828607    -4.58873247    -2.35042375
    112      O     9.19334044    -0.37692996    -2.37329846
    113      O    11.64571368     3.88516296    -2.30583250
    114      O    14.10316549     8.10735112    -2.28875079
    115     Si   -11.36595619    -5.92939698    -0.20565646
    116     Si    -8.95869828    -1.70667453    -0.17247928
    117     Si    -6.48355655     2.53788839    -0.14056291
    118     Si    -3.99815945     6.75453998    -0.12272168
    119     Si    -6.48479848    -5.97733813    -0.16248200
    120     Si    -4.00038592    -1.77249046    -0.11087327
    121     Si    -1.58603537     2.50325786    -0.14147078
    122     Si     0.90595872     6.75396674    -0.15764296
    123     Si    -1.56369940    -5.95935706    -0.18638411
    124     Si     0.92476311    -1.78826704    -0.09555195
    125     Si     3.29633905     2.50080534    -0.18494081
    126     Si     5.74035802     6.75277668    -0.16429826
    127     Si     3.31689498    -5.95341099    -0.17623217
    128     Si     5.77302258    -1.72950044    -0.19149916
    129     Si     8.20682011     2.47513021    -0.16374582
    130     Si    10.65106871     6.73588728    -0.13586859
    131     Si    -9.46579832    -4.29910191    -1.86850157
    132     Si    -7.03962112    -0.05791844    -1.81443327
    133     Si    -4.57404442     4.16570859    -1.80588246
    134     Si    -2.10542792     8.38586289    -1.81001297
    135     Si    -4.57532505    -4.34660573    -1.82897257
    136     Si    -2.11940903    -0.11808555    -1.79904127
    137     Si     0.32648579     4.14984672    -1.80001890
    138     Si     2.76903605     8.39067315    -1.85524516
    139     Si     0.32332574    -4.31982391    -1.84999378
    140     Si     2.79407141    -0.14610902    -1.80419724
    141     Si     5.19979388     4.15166862    -1.84011337
    142     Si     7.65520348     8.38620963    -1.82867993
    143     Si     5.21552792    -4.32304692    -1.85025689
    144     Si     7.64897389    -0.10471291    -1.88618849
    145     Si    10.09640167     4.14448877    -1.82621294
    146     Si    12.55481514     8.37670546    -1.80832168
    147     Si   -14.34995432    -8.28999940    -3.57076125
    148     Si   -11.91427445    -4.03132295    -3.63666957
    149     Si    -9.45940513     0.19453159    -3.63736798
    150     Si    -7.01937405     4.43678183    -3.58751739
    151     Si    -9.46753231    -8.30174632    -3.62066042
    152     Si    -6.99824892    -4.03697278    -3.64518325
    153     Si    -4.58242501     0.18385055    -3.57190947
    154     Si    -2.11722278     4.43632383    -3.58120211
    155     Si    -4.55905687    -8.27756939    -3.62871459
    156     Si    -2.13999933    -4.06455664    -3.59916260
    157     Si     0.33823704     0.15559269    -3.57171559
    158     Si     2.74953459     4.42228180    -3.61184007
    159     Si     0.32083674    -8.30327548    -3.59009889
    160     Si     2.78026156    -4.02708884    -3.64706103
    161     Si     5.18210738     0.14435872    -3.63459187
    162     Si     7.65138117     4.42216666    -3.61421103
    163      O   -11.89889037    -5.54247976   -10.00084810
    164      O    -9.39735636    -1.24158741   -10.03029358
    165      O    -6.93104978     3.06351777   -10.04159698
    166      O    -4.53170256     7.12593642    -9.99955072
    167      O    -6.97015204    -5.47577648   -10.05863905
    168      O    -4.31455182    -0.69306222   -10.18630070
    169      O    -2.22062382     3.11934547   -10.15052750
    170      O     0.35392946     7.20431760   -10.04918955
    171      O    -2.13994019    -5.33921893   -10.10163066
    172      O     0.37611755    -1.58159654    -9.89206810
    173      O     2.75635215     2.94046629   -10.00687936
    174      O     5.27274417     7.21797740   -10.04483224
    175      O     2.79291263    -5.68316790    -9.98822684
    176      O     5.24556104    -1.24194585   -10.07466895
    177      O     7.69351005     2.96982475   -10.02467970
    178      O    10.18383964     7.28269993   -10.04483443
    179      O   -10.01009288    -5.81785967    -6.59166253
    180      O    -7.58318831    -1.54505027    -6.66148500
    181      O    -5.15187203     2.68516713    -6.58047400
    182      O    -2.72901380     6.90979833    -6.58303688
    183      O    -5.15356315    -5.81889615    -6.66242396
    184      O    -2.81278181    -1.59540655    -6.56280672
    185      O    -0.25760876     2.60685081    -6.56282684
    186      O     2.14948174     6.89137926    -6.60978008
    187      O    -0.25554664    -5.85296084    -6.58521877
    188      O     2.08467889    -1.53043728    -6.68357136
    189      O     4.62285481     2.64160548    -6.58235525
    190      O     7.04554536     6.88904826    -6.62073935
    191      O     4.66516407    -5.88744324    -6.57859675
    192      O     6.99740364    -1.58513557    -6.65327773
    193      O     9.46533669     2.64337769    -6.62678535
    194      O    11.91284464     6.87511159    -6.60276434
    195      O   -12.96739815    -8.08201180    -8.38435679
    196      O   -10.42748858    -3.88384511    -8.41973996
    197      O    -8.09870628     0.48926676    -8.36040392
    198      O    -5.63319426     4.72645351    -8.32246052
    199      O    -8.04213589    -8.09431694    -8.40240776
    200      O    -5.53295170    -3.82217682    -8.44027818
    201      O    -3.08768327     0.53389673    -8.18321124
    202      O    -0.64691127     4.47915486    -8.44166185
    203      O    -3.14300562    -8.06817334    -8.38142932
    204      O    -0.60634934    -3.90018351    -8.40641825
    205      O     1.59815642     0.43174989    -8.47329006
    206      O     4.21902085     4.59053613    -8.40253260
    207      O     1.74919041    -8.05105114    -8.33209032
    208      O     4.26773147    -3.98814683    -8.43753906
    209      O     6.57502129     0.42912416    -8.38706554
    210      O     9.09301313     4.64496319    -8.38579323
    211      O   -11.97875752    -7.52841064    -5.96119097
    212      O    -9.49751808    -3.29038326    -5.97290709
    213      O    -7.06174722     0.94159018    -5.93222461
    214      O    -4.64287122     5.17107981    -5.89445781
    215      O    -7.07327162    -7.54819550    -5.96174912
    216      O    -4.69614914    -3.33671654    -5.92650299
    217      O    -2.11373910     0.84740349    -5.76396932
    218      O     0.21728563     5.15308464    -5.96424448
    219      O    -2.19570880    -7.56401596    -5.92506315
    220      O     0.26879452    -3.34059775    -5.94034857
    221      O     2.61118061     0.97797809    -6.01810700
    222      O     5.13056451     5.15763942    -5.94037783
    223      O     2.72058924    -7.59008218    -5.88545099
    224      O     5.11218296    -3.34867333    -5.96719365
    225      O     7.55489533     0.90942602    -5.94071680
    226      O    10.01097247     5.13807230    -5.90984085
    227      O   -10.09887068    -7.22633806    -9.93517239
    228      O    -7.58998025    -2.93619496    -9.92489694
    229      O    -4.91780589     1.85782572    -9.54329658
    230      O    -2.59433563     5.74965208    -9.72876221
    231      O    -5.20549807    -7.22760663    -9.92078317
    232      O    -2.66266181    -2.73913997    -9.75450685
    233      O    -0.78761134     0.65894856   -10.00007433
    234      O     2.12732757     5.45322441    -9.90032096
    235      O    -0.33310660    -7.17850300    -9.85138509
    236      O     2.19574284    -3.18513934    -9.96894084
    237      O     4.56881247     1.29303077    -9.98709095
    238      O     7.02578767     5.46716140    -9.93255337
    239      O     4.50283447    -7.40269836    -9.99684976
    240      O     7.04385178    -3.00967903    -9.88755730
    241      O     9.42294106     1.24018869    -9.96213312
    242      O    11.84640233     5.47630433    -9.92675554
    243      O    -7.94737416    -4.58413702    -7.73070356
    244      O    -5.59042049    -0.26541232    -7.85028379
    245      O    -3.12250954     3.95477579    -7.72965048
    246      O    -0.68555161     8.12242734    -7.74405166
    247      O    -3.06675930    -4.51943401    -7.72442210
    248      O    -0.67054942    -0.51845938    -7.59158612
    249      O     1.81661044     3.84960425    -7.67249559
    250      O     4.21964864     8.09546717    -7.74090956
    251      O     1.84984703    -4.65857366    -7.67400167
    252      O     4.11208797    -0.30230585    -7.82969432
    253      O     6.68952071     3.86947302    -7.70515530
    254      O     9.11834312     8.10342054    -7.71486504
    255      O     6.74295124    -4.62490036    -7.67111828
    256      O     9.06308242    -0.35689983    -7.75556376
    257      O    11.55407416     3.86610196    -7.69739289
    258      O    13.99687403     8.06765883    -7.69822842
    259     Si   -10.99690479    -6.35343354    -5.40907217
    260     Si    -8.52267589    -2.09568480    -5.44546358
    261     Si    -6.09912289     2.13314409    -5.37740548
    262     Si    -3.67166178     6.36673393    -5.37308094
    263     Si    -6.09649200    -6.35185531    -5.44065968
    264     Si    -3.74494164    -2.14644720    -5.35207857
    265     Si    -1.17295555     2.09809413    -5.31483863
    266     Si     1.18961078     6.34265602    -5.41247406
    267     Si    -1.22173833    -6.37467797    -5.38310210
    268     Si     1.20791550    -2.10935193    -5.43535727
    269     Si     3.62212508     2.10779796    -5.41229441
    270     Si     6.10310056     6.35091307    -5.40594676
    271     Si     3.68676487    -6.38273775    -5.37083109
    272     Si     6.06955760    -2.14172230    -5.43643265
    273     Si     8.52469761     2.10640166    -5.40991803
    274     Si    10.97650623     6.34055444    -5.38178245
    275     Si    -9.47837904    -4.38887788    -7.20601850
    276     Si    -7.08687014    -0.08062424    -7.22737890
    277     Si    -4.64358548     4.13061288    -7.18074343
    278     Si    -2.20656832     8.33721154    -7.20345150
    279     Si    -4.60763181    -4.36748864    -7.21985811
    280     Si    -2.16850727    -0.17457198    -7.05087470
    281     Si     0.27116849     4.03740420    -7.18545648
    282     Si     2.69613831     8.32300710    -7.20855692
    283     Si     0.31075212    -4.43132404    -7.18460826
    284     Si     2.60043491    -0.08521388    -7.27853301
    285     Si     5.15938725     4.07338559    -7.18636413
    286     Si     7.59259348     8.33054213    -7.19228254
    287     Si     5.19455669    -4.45594143    -7.19225727
    288     Si     7.54112470    -0.13932035    -7.21795503
    289      H    -5.97646940     2.57039149   -10.01037699
    290      H    -1.66330147     2.31913851    -9.97858670
    291      H     3.59168205     2.31693499   -10.12743566
    292      H     8.49670536     2.29367506   -10.10535349
    293      H    10.95327397     6.57474430   -10.09996828
    294      H     6.05983220     6.53654380   -10.08650060
    295      H     1.13539004     6.52102885   -10.06348283
    296      H    -3.61345596     6.55457394   -10.03837548
    297      H    -8.59030815    -1.90463947   -10.06318447
    298      H    -4.16237229    -1.62000584    -9.86482473
    299      H     1.15860642    -2.32375679    -9.93087272
    300      H     6.02948532    -1.90815441   -10.07124620
    301      H   -11.07880016    -6.17895824   -10.10351148
    302      H    -6.17889762    -6.14764632   -10.09452898
    303      H    -1.37716390    -6.00832838   -10.10158679
    304      H     3.58844857    -6.36589290   -10.12114253
    305     Tl    -1.81591606    -0.94306353   -11.04481152
    306      O    -2.33464381    -1.70648644   -12.89392591
    307      H    -2.94444823    -2.44073972   -12.66071339
 
Lattice vectors (angstrom)
      1    19.57131164     0.00000000     0.00000000
      2     9.78369180    16.95531931     0.00000000
 
Unit cell area (angstrom^2)       331.83784
 
Total System Charge             0.00000
Bonding info available!
 



                     **************************************************************************
                     *  BAND 2022.104  RunTime: Jul08-2022 13:18:42  ShM Nodes: 2  Procs: 20  *
                     **************************************************************************
  

-----------------
Band Engine Input
-----------------

Basis
Type TZP
Core Small
End
Dependency
Core 0.98
End
DOS
CalcDOS No
End
Relativity
Level Spin-Orbit
End
XC
SpinOrbitMagnetization CollinearZ
GGA revPBE
DISPERSION GRIMME3 BJDAMP
End
ZlmFit
DensityThreshold 1e-07
LMargin 4
End

 Using the following basis set files:
 
 Si             : /data.local1/milias/software/ams/intel_mpi/ams2022.104/atomicdata/Band/TZP/Si.1s
 O              : /data.local1/milias/software/ams/intel_mpi/ams2022.104/atomicdata/Band/TZP/O.1s
 H              : /data.local1/milias/software/ams/intel_mpi/ams2022.104/atomicdata/Band/TZP/H
 Tl             : /data.local1/milias/software/ams/intel_mpi/ams2022.104/atomicdata/Band/TZP/Tl.4d

 Settings for Grimme D3 dispersion correction

      damping                        BJ
      s6                          1.000
      s8                          2.355
      a1                          0.524
      a2                          3.502

 Other (technical) parameters

      alpha                      14.000
      version                         4
 



 =====================
 C O N F I N E M E N T
 =====================
  
 Basis functions confinement radius        10.000
 Width                                      1.000



 ===============================
 M O D E L   P A R A M E T E R S
 ===============================
  
 DENSITY FUNCTIONAL POTENTIAL (scf)
    LDA:                               PW92                                    == Not Default ==
    Gradient Corrections:              PBEc revPBEx                            == Not Default ==
 DENSITY FUNCTIONAL ENERGY (post-scf)
    Gradient Corrections:              Becke88 Perdew86 PW91x PW91c EV93x PW...== Not Default ==

 SPIN  (restricted / unrestr.)
    Molecule:                          Collinear (Z)

 OTHER ASPECTS
    Relativistic Corrections:          Spin-Orbit (ZORA,APA)                   == Not Default ==

    Nuclear Charge Density Model:      Point Charge Nuclei                      



 ========================
 S. C. F.   O P T I O N S
 ========================
  

 * DIIS settings info for DIRAC   *
    Cond              0.1E+07
    CLarge          20.00
    CHuge           50.00
    DiMix            1.00
    IopPly              1
    NCyDmp              5
    IPrint              0
    Adaptable           F
    Method         diis                
    Dimix Decay fac  1.00

 * DIIS settings info for SCF     *
    Cond              0.1E+07
    CLarge          20.00
    CHuge           20.00
    DiMix            0.20
    IopPly              1
    NCyDmp              1
    IPrint              0
    Adaptable           T
    Method         DIIS                
    Dimix Decay fac  1.00
 growth factor   1.10000000000000     
 shrink factor  0.909090909100000     

    Mix            0.0750
    Degenerate          F
    Edegen          1.0E-04
    SCFRTX           9.90
    Convrg          1.8E-05
    Ncyclx            300
 getinp: use Shared Memory T




                             **  R A D I A L   F U N C T I O N S  **

 TOTAL NR. OF TYPES OF ATOMS                              4




                             ---------------------
                                   T Y P E   1
                             ---------------------

 RADIAL POINTS                                         3000




 ............................ D I R A C ................................

 NUCLEAR CHARGE                                14.0000               **>  Si  <**
 (POINT NUCLEUS)
 VALENCE CHARGE                                12.0000
 NET CHARGE                                     0.0000

 VALENCE ORBITALS INCLUDED IN THE CRYSTAL BASIS
 NR. OF (RADIAL) CORE FUNCTIONS                 1
 Radial grid       nr of points               3000
                   range                      0.10E-05     0.10E+03
  
  ** SCF-FUNCTIONAL INFO **
    ZORA
    DOUBLE GROUP
  
 Self consistent error   0.85E-08


  Orbital    Q         E(a.u.)     E(eV)           <R>
 -------------------------------------------------------------------
  1S 1/2     2.00    -65.794611      -1790.3625   0.111
  2S 1/2     2.00     -5.131594       -139.6378   0.567
  2P 1/2     2.00     -3.526737        -95.9674   0.536
  2P 3/2     4.00     -3.502961        -95.3204   0.538
  3S 1/2     2.00     -0.396223        -10.7818   2.167
  3P 1/2     0.67     -0.149982         -4.0812   2.788
  3P 3/2     1.33     -0.148840         -4.0501   2.797



 NR. OF RADIAL VALENCE ORBITALS                          17
 NR. OF RADIAL CORE ORBITALS                              1
 NR. OF RADIAL FIT FUNCTIONS                              0




                             ---------------------
                                   T Y P E   2
                             ---------------------

 RADIAL POINTS                                         3000




 ............................ D I R A C ................................

 NUCLEAR CHARGE                                 8.0000               **>  O  <**
 (POINT NUCLEUS)
 VALENCE CHARGE                                 6.0000
 NET CHARGE                                     0.0000

 VALENCE ORBITALS INCLUDED IN THE CRYSTAL BASIS
 NR. OF (RADIAL) CORE FUNCTIONS                 1
 Radial grid       nr of points               3000
                   range                      0.10E-05     0.10E+03
  
  ** SCF-FUNCTIONAL INFO **
    ZORA
    DOUBLE GROUP
  
 Self consistent error   0.78E-08


  Orbital    Q         E(a.u.)     E(eV)           <R>
 -------------------------------------------------------------------
  1S 1/2     2.00    -18.938181       -515.3341   0.199
  2S 1/2     2.00     -0.881931        -23.9986   1.138
  2P 1/2     1.33     -0.330520         -8.9939   1.265
  2P 3/2     2.67     -0.329185         -8.9576   1.267



 NR. OF RADIAL VALENCE ORBITALS                          11
 NR. OF RADIAL CORE ORBITALS                              1
 NR. OF RADIAL FIT FUNCTIONS                              0




                             ---------------------
                                   T Y P E   3
                             ---------------------

 RADIAL POINTS                                         3000




 ............................ D I R A C ................................

 NUCLEAR CHARGE                                 1.0000               **>  H  <**
 (POINT NUCLEUS)
 VALENCE CHARGE                                 1.0000
 NET CHARGE                                     0.0000

 VALENCE ORBITALS INCLUDED IN THE CRYSTAL BASIS
 Radial grid       nr of points               3000
                   range                      0.10E-05     0.10E+03
  
  ** SCF-FUNCTIONAL INFO **
    ZORA
    DOUBLE GROUP
  
 Self consistent error   0.41E-08


  Orbital    Q         E(a.u.)     E(eV)           <R>
 -------------------------------------------------------------------
  1S 1/2     1.00     -0.240477         -6.5437   1.626



 NR. OF RADIAL VALENCE ORBITALS                           5
 NR. OF RADIAL CORE ORBITALS                              0
 NR. OF RADIAL FIT FUNCTIONS                              0




                             ---------------------
                                   T Y P E   4
                             ---------------------

 RADIAL POINTS                                         3000




 ............................ D I R A C ................................

 NUCLEAR CHARGE                                81.0000               **>  Tl  <**
 (POINT NUCLEUS)
 VALENCE CHARGE                                35.0000
 NET CHARGE                                     0.0000

 VALENCE ORBITALS INCLUDED IN THE CRYSTAL BASIS
 NR. OF (RADIAL) CORE FUNCTIONS                14
 Radial grid       nr of points               3000
                   range                      0.10E-05     0.10E+03
  
  ** SCF-FUNCTIONAL INFO **
    ZORA
    DOUBLE GROUP
  
 Self consistent error   0.24E-08


  Orbital    Q         E(a.u.)     E(eV)           <R>
 -------------------------------------------------------------------
  1S 1/2     2.00  -3469.615057     -94413.0295   0.015
  2S 1/2     2.00   -571.047229     -15538.9857   0.068
  2P 1/2     2.00   -548.053206     -14913.2865   0.056
  2P 3/2     4.00   -469.339111     -12771.3670   0.064
  3S 1/2     2.00   -134.300814      -3654.5111   0.177
  3P 1/2     2.00   -124.086277      -3376.5594   0.168
  3P 3/2     4.00   -107.033623      -2912.5331   0.183
  3D 3/2     4.00    -90.272321      -2456.4348   0.160
  3D 5/2     6.00    -86.630604      -2357.3387   0.164
  4S 1/2     2.00    -29.828247       -811.6679   0.392
  4P 1/2     2.00    -25.453648       -692.6290   0.393
  4P 3/2     4.00    -21.341997       -580.7453   0.428
  4D 3/2     4.00    -14.226801       -387.1310   0.434
  4D 5/2     6.00    -13.459509       -366.2519   0.444
  4F 5/2     6.00     -4.276552       -116.3709   0.465
  4F 7/2     8.00     -4.107184       -111.7622   0.471
  5S 1/2     2.00     -4.798002       -130.5603   0.878
  5P 1/2     2.00     -3.335942        -90.7756   0.943
  5P 3/2     4.00     -2.594818        -70.6086   1.037
  5D 3/2     4.00     -0.615928        -16.7602   1.358
  5D 5/2     6.00     -0.535288        -14.5659   1.415
  6S 1/2     2.00     -0.347152         -9.4465   2.479
  6P 1/2     0.33     -0.112540         -3.0624   3.423
  6P 3/2     0.67     -0.074646         -2.0312   4.098



 NR. OF RADIAL VALENCE ORBITALS                          27
 NR. OF RADIAL CORE ORBITALS                             14
 NR. OF RADIAL FIT FUNCTIONS                              0



 ======================================================
 R A N G E S    F O R    A T O M I C    O R B I T A L S
 ======================================================
  
   --------------------------------------------------------------------------------
                            valence            core valence kinetic    core kinetic
   --------------------------------------------------------------------------------

             Cutoff       1.000E-06       1.000E-06       1.000E-06       1.000E-06
   --------------------------------------------------------------------------------
 
   --------------------------------------------------------------------------------
               Type         valence            core valence kinetic    core kinetic
   --------------------------------------------------------------------------------
                 Si           16.95            1.49           17.37            1.50
                  O           13.84            2.73           14.09            2.77
                  H           15.74            0.00           16.13            0.00
                 Tl           18.47            3.37           18.93            3.27
   --------------------------------------------------------------------------------
 



 ====================
 R U N    C O N F I G
 ====================
  
 
 Use Symmetry  .  .  .  .  .  .  .  .  .  .  .  .  .  .  .  .  T
 Calculate gradient of basis  .  .  .  .  .  .  .  .  .  .  .  F
 Calculate sec. der. of basis .  .  .  .  .  .  .  .  .  .  .  F
 Calculate operator T working on basis .  .  .  .  .  .  .  .  T
 Calculate dk-basis  .  .  .  .  .  .  .  .  .  .  .  .  .  .  F
 Calculate gradient of fit .  .  .  .  .  .  .  .  .  .  .  .  T
 Calculate sec. der. of fit.  .  .  .  .  .  .  .  .  .  .  .  T
 Calculate gradient of fit pot.  .  .  .  .  .  .  .  .  .  .  F
 Kin. energy via grad.  .  .  .  .  .  .  .  .  .  .  .  .  .  F
 Turnover rule for xc.  .  .  .  .  .  .  .  .  .  .  .  .  .  F
 Calculate gradient of energy .  .  .  .  .  .  .  .  .  .  .  F
 Calculate analytical strain derivatives  .  .  .  .  .  .  .  F
 Calculate kin. energy density.  .  .  .  .  .  .  .  .  .  .  F
 Calculate nuc. grad of kin. energy density  .  .  .  .  .  .  F
 Calculate der. of density .  .  .  .  .  .  .  .  .  .  .  .  T
 Calculate second der. of density.  .  .  .  .  .  .  .  .  .  T
 Calculate nuc. grad. of density .  .  .  .  .  .  .  .  .  .  F
 Calculate nuc. grad. of grad. density .  .  .  .  .  .  .  .  F
 Exact rho during SCF.  .  .  .  .  .  .  .  .  .  .  .  .  .  T
 Exact grad. rho during SCF.  .  .  .  .  .  .  .  .  .  .  .  F
 Exact grad. rho post SCF  .  .  .  .  .  .  .  .  .  .  .  .  F
 Store history of dens. matrix.  .  .  .  .  .  .  .  .  .  .  T
 Store original Bloch functions  .  .  .  .  .  .  .  .  .  .  F
 Direct fit .  .  .  .  .  .  .  .  .  .  .  .  .  .  .  .  .  F
 Direct basis  .  .  .  .  .  .  .  .  .  .  .  .  .  .  .  .  T
 STO based fitting.  .  .  .  .  .  .  .  .  .  .  .  .  .  .  F
 Zlm fitting.  .  .  .  .  .  .  .  .  .  .  .  .  .  .  .  .  T
 Calculate fragment energy in mol. grid.  .  .  .  .  .  .  .  T
 Map atoms to unit cell .  .  .  .  .  .  .  .  .  .  .  .  .  T
 Print output for radial.  .  .  .  .  .  .  .  .  .  .  .  .  T
 Calculate DOS .  .  .  .  .  .  .  .  .  .  .  .  .  .  .  .  F
 Calculate population analysis.  .  .  .  .  .  .  .  .  .  .  T
 Calculate band structure  .  .  .  .  .  .  .  .  .  .  .  .  F
 Calculate EFG .  .  .  .  .  .  .  .  .  .  .  .  .  .  .  .  F
 Calculate properties.  .  .  .  .  .  .  .  .  .  .  .  .  .  T
 Calculate kinetic energy  .  .  .  .  .  .  .  .  .  .  .  .  T
 Save file tape10 .  .  .  .  .  .  .  .  .  .  .  .  .  .  .  F
 Save file Points .  .  .  .  .  .  .  .  .  .  .  .  .  .  .  F



 ==================================================
 G E O M E T R Y    I N    X - Y - Z    F O R M A T
 ==================================================
  
 Si     -9.396403683     3.813919625    -1.747637511
 Si      2.847759697    -8.911861515    -1.722956061
 Si     -4.492234243     8.167100755    -3.578977191
 Si      7.795583297    -4.501193785    -3.575419091
 Si     -9.391955793    -0.215186565    -3.601573261
 Si     -6.936802793     4.052611115    -3.551402081
 Si      0.414881887     8.231541625    -3.611746661
 Si     -6.878469233    -4.449212485    -3.617250911
 Si     -4.397539863     0.137768085    -3.507287191
 Si     -2.032917963     4.072831935    -3.605165131
 Si     -4.460582773    -8.718075325    -3.599477341
 Si     -1.971198783    -4.357656685    -3.594733731
 Si      0.333236937    -0.504092555    -3.549708061
 Si      2.876437117     3.974841305    -3.569805541
 Si      0.435458367    -8.681969185    -3.565866301
 Si      2.922352587    -4.626307855    -3.588280911
 Si      5.276781847    -0.207121405    -3.653639831
 Si      7.769817757     3.996513565    -3.585771371
 Si      8.355712327    -6.199991575     5.229446379
 Si     -8.808341403    -1.977269125     5.262623559
 Si     -6.333199673     2.267293795     5.294539929
 Si     -3.847802573     6.483945385     5.312381159
 Si     -6.334441603    -6.247932725     5.272620839
 Si     -3.850029043    -2.043085055     5.324229569
 Si     -1.435678493     2.232663265     5.293632059
 Si      1.056315597     6.483372145     5.277459879
 Si     -1.413342523    -6.229951655     5.248718729
 Si      1.075119987    -2.058861635     5.339550889
 Si      3.446695927     2.230210745     5.250162029
 Si      5.890714897     6.482182085     5.270804579
 Si      3.467251857    -6.224005585     5.258870669
 Si      5.923379457    -2.000095035     5.243603679
 Si      8.357176987     2.204535615     5.271357019
 Si      1.017733787   -10.490026625     5.299234249
 Si     -9.315441443    -4.569696505     3.566601269
 Si     -6.889264243    -0.328513035     3.620669569
 Si     -4.423687543     3.895113995     3.629220379
 Si     -1.955071043     8.115268295     3.625089869
 Si     -4.424968173    -4.617200325     3.606130269
 Si     -1.969052153    -0.388680145     3.636061569
 Si      0.476842667     3.879252125     3.635083939
 Si      2.919392927     8.120078555     3.579857679
 Si      0.473682617    -4.590418505     3.585109059
 Si      2.944428287    -0.416703615     3.630905599
 Si      5.350150757     3.881074025     3.594989469
 Si     -1.978131443    -8.839704275     3.606422909
 Si      5.365884797    -4.593641515     3.584845949
 Si      7.799330767    -0.375307505     3.548914349
 Si     -9.324553093     3.873894175     3.608889899
 Si      2.921480217    -8.849208445     3.626781159
 Si     -4.415905643     8.394725315     1.864341589
 Si      7.807394067    -4.301917545     1.798433269
 Si     -9.309048253    -0.076063005     1.797734859
 Si     -6.869017173     4.166187235     1.847585449
 Si      0.466516367     8.382978395     1.814442419
 Si     -6.847892043    -4.307567375     1.789919589
 Si     -4.432068133    -0.086744045     1.863193369
 Si     -1.966865903     4.165729235     1.853900729
 Si     -4.408699993    -8.548163985     1.806388249
 Si     -1.989642453    -4.335151235     1.835940239
 Si      0.488593917    -0.115001905     1.863387249
 Si      2.899891467     4.151687205     1.823262769
 Si      0.471193617    -8.573870075     1.845003949
 Si      2.930618437    -4.297683435     1.788041809
 Si      5.332464257    -0.126235875     1.800510969
 Si      7.801738047     4.151572065     1.820891809
 Si     -1.062856113    10.331291175     0.026030669
 Si     -8.372319013    -2.366279395    -0.010360741
 Si     -5.948766013     1.862549495     0.057697359
 Si     -3.521304903     6.096139335     0.062021899
 Si     -5.946135123    -6.622449905    -0.005556841
 Si     -3.594584763    -2.417041795     0.083024269
 Si     -1.022598673     1.827499535     0.120264209
 Si      1.339967657     6.072061425     0.022628779
 Si     -1.071381453    -6.645272565     0.052000739
 Si      1.358272377    -2.379946525    -0.000254431
 Si      3.772481957     1.837203365     0.022808429
 Si      6.253457437     6.080318475     0.029156079
 Si      3.837121747    -6.653332345     0.064271749
 Si      6.219914477    -2.412316895    -0.001329811
 Si      8.675054487     1.835807065     0.025184809
 Si     -8.444448533     6.069959845     0.053320389
 Si     -9.328022163    -4.659472475    -1.770915661
 Si     -6.936513263    -0.351218835    -1.792276061
 Si     -4.493228603     3.860018285    -1.745640591
 Si     -2.056211443     8.066616945    -1.768348661
 Si     -4.457274933    -4.638083235    -1.784755271
 Si     -2.018150393    -0.445166575    -1.615771861
 Si      0.421525367     3.766809605    -1.750353641
 Si      2.846495187     8.052412505    -1.773454081
 Si      0.461108997    -4.701918635    -1.749505421
 Si      2.750791787    -0.355808475    -1.843430171
 Si      5.309744127     3.802790995    -1.751261291
 Si     -2.040741443    -8.895371775    -1.757179701
 Si      5.344913567    -4.726536025    -1.757154431
 Si      7.691481577    -0.409914945    -1.782852191
 O       7.774696017    -5.430276565     0.628322109
 O      -9.326757943    -1.183013535     0.605954879
 O      -6.910351293     3.037882785     0.676340279
 O      -4.471474133     7.283196795     0.678261969
 O      -6.894490683    -5.436354555     0.617765289
 O      -4.535235363    -1.223074445     0.697633809
 O      -1.986043393     3.025086675     0.691859199
 O       0.389208317     7.261015665     0.636434629
 O      -2.022153833    -5.448309665     0.649655889
 O       0.406169877    -1.220899425     0.669876539
 O       2.838009107     3.029858105     0.647231819
 O       5.307187577     7.269910865     0.643879829
 O       2.887467147    -5.444073035     0.633108109
 O       5.253576807    -1.236757695     0.613101499
 O       7.731566497     3.024740225     0.647519379
 O       0.398103187    -9.692499025     0.663915389
 O      -0.150405183    10.972660645     4.153083969
 O      -7.510403533    -1.735437535     4.211171579
 O      -5.045926553     2.488822535     4.223203419
 O      -2.567273653     6.711719955     4.233970869
 O      -5.056542583    -6.020755395     4.192525309
 O      -2.577388253    -1.794443875     4.242899639
 O      -0.144872403     2.474142085     4.231245429
 O       2.321669327     6.704605245     4.181442049
 O      -0.133833213    -6.010502065     4.167583719
 O       2.339421587    -1.819815445     4.243134559
 O       4.736969737     2.469832695     4.188971399
 O       7.177973387     6.713770695     4.202874029
 O       4.745544157    -6.001893035     4.177561579
 O       7.199475547    -1.784211855     4.160667539
 O       9.637521387     2.462751335     4.201890039
 O      -7.480802563     6.702660155     4.234104339
 O      -2.885334183     8.652748435     2.393646839
 O       9.329596987    -4.013570285     2.339554069
 O      -7.795406593     0.203294165     2.367299089
 O      -5.348145803     4.443495165     2.397567289
 O       2.002976997     8.637385405     2.330508359
 O      -5.329892033    -4.062241015     2.363684009
 O      -2.899551023     0.140012305     2.401228239
 O      -0.447378933     4.439438835     2.409857209
 O      -2.882424453    -8.299511235     2.356398209
 O      -0.466619123    -4.036419765     2.368259119
 O       2.025562257     0.103877165     2.387323109
 O       4.431248867     4.414455365     2.351889709
 O       2.001819187    -8.325277235     2.380815909
 O       4.450168577    -4.037119395     2.351938799
 O       6.869697457     0.147357745     2.308703199
 O       9.329744477     4.402497035     2.363520889
 O      -1.970683143     9.225666395     4.849525309
 O      -9.343672353    -3.490104695     4.816632669
 O      -6.930486773     0.778813955     4.846001439
 O      -4.437163103     4.991725495     4.864972809
 O       2.858962487     9.219552425     4.811681919
 O      -4.447885913    -3.520592605     4.840331309
 O      -1.991004333     0.724142485     4.858138819
 O       0.479627577     4.974333665     4.872821049
 O      -2.002293843    -7.730663585     4.831776509
 O       0.450823017    -3.520692945     4.843594519
 O       2.922138997     0.701095085     4.847199589
 O       5.316957997     4.982303805     4.826061309
 O       2.891413637    -7.730719795     4.843661759
 O       5.346823047    -3.505824045     4.829077419
 O       7.763456107     0.730820515     4.774501309
 O      -9.362389883     4.979018975     4.836831199
 O      -0.135940373     9.796467525     1.282391699
 O      -7.413865073    -2.888258615     1.228967819
 O      -4.995867473     1.331518405     1.297536819
 O      -2.560164873     5.573125195     1.299185019
 O      -4.987649723    -7.138161085     1.238586529
 O      -2.630636063    -2.934577445     1.316057939
 O      -0.051573863     1.339044165     1.361215149
 O       2.285985207     5.553322815     1.273669999
 O      -0.128561313    -7.160762925     1.305806719
 O       2.368443487    -2.885944895     1.207458619
 O       4.682591007     1.268679445     1.276197619
 O       7.212580337     5.564380165     1.270665429
 O       4.767412497    -7.145498205     1.335736459
 O       7.190208417    -2.904747355     1.240547399
 O       9.642447757     1.328871525     1.263240469
 O      -7.480981823     5.568280505     1.296333269
 O      -7.777470423    -4.835840645     3.063456059
 O      -5.339055523    -0.598459675     3.156856769
 O      -2.884014033     3.619101805     3.129564509
 O      -0.417371083     7.842724175     3.117086689
 O      -2.879641053    -4.907002555     3.122338799
 O      -0.426522973    -0.655789795     3.139792189
 O       2.012744417     3.602356305     3.120365509
 O       4.468686067     7.878273815     3.097828189
 O       2.010637177    -4.831176705     3.067406959
 O       4.483267067    -0.685137785     3.120000349
 O       6.894933007     3.615636675     3.108098609
 O      -0.430218923    -9.118386845     3.132612029
 O       6.908642947    -4.859327065     3.084679089
 O       9.343697317    -0.647524555     3.061804379
 O      -7.775241083     3.614568365     3.129270339
 O      -5.317789273     7.836756525     3.146352049
 O       7.822778147    -5.813074355    -4.565745261
 O      -9.246999483    -1.512182005    -4.595190741
 O      -6.780692903     2.792923175    -4.606494141
 O      -4.381345683     6.855341825    -4.564447881
 O      -6.819795163    -5.746371075    -4.623536211
 O      -4.164194943    -0.963656815    -4.751197861
 O      -2.070266943     2.848750875    -4.715424661
 O       0.504286337     6.933723005    -4.614086711
 O      -1.989583313    -5.609813525    -4.666527821
 O       0.526474427    -1.852191135    -4.456965261
 O       2.906709027     2.669871695    -4.571776521
 O       5.423101047     6.947382805    -4.609729401
 O       2.943269507    -5.953762495    -4.553124001
 O       5.395917917    -1.512540445    -4.639566111
 O       7.843866927     2.699230155    -4.589576861
 O       0.550504717    -9.943213975    -4.609731591
 O      -0.076044203    10.866865045    -1.156559691
 O      -7.432831433    -1.815644865    -1.226382161
 O      -5.001515153     2.414572535    -1.145371161
 O      -2.578656923     6.639203735    -1.147934041
 O      -5.003206273    -6.089490745    -1.227321121
 O      -2.662424933    -1.866001145    -1.127703881
 O      -0.107251883     2.336256215    -1.127724001
 O       2.299838617     6.620784665    -1.174677241
 O      -0.105189763    -6.123555435    -1.150115931
 O       2.235035767    -1.801031875    -1.248468521
 O       4.773211687     2.371010885    -1.147252411
 O       7.195902237     6.618453665    -1.185636511
 O       4.815520947    -6.158037835    -1.143493911
 O       7.147760517    -1.855730165    -1.218174891
 O       9.615693567     2.372783095    -1.191682511
 O      -7.508110123     6.604516995    -1.167661501
 O      -3.033349473     8.602712915    -2.949253951
 O       9.294179937    -4.154439705    -2.984637121
 O      -7.948349403     0.218672165    -2.925301081
 O      -5.482837383     4.455858915    -2.887357681
 O       1.891912787     8.590407775    -2.967304921
 O      -5.382594823    -4.092771415    -3.005175341
 O      -2.937326393     0.263302135    -2.748108401
 O      -0.496554393     4.208560265    -3.006559011
 O      -2.992648743    -8.338767935    -2.946326481
 O      -0.455992463    -4.170778105    -2.971315411
 O       1.748513297     0.161155295    -3.038187221
 O       4.369377727     4.319941535    -2.967429761
 O       1.899547287    -8.321645735    -2.896987481
 O       4.418088347    -4.258741425    -3.002436221
 O       6.725378167     0.158529565    -2.951962701
 O       9.243370007     4.374368595    -2.950690391
 O      -2.044708843     9.156314075    -0.526088131
 O      -9.347161203    -3.560977855    -0.537804251
 O      -6.911390343     0.670995585    -0.497121771
 O      -4.492514343     4.900485215    -0.459354971
 O       2.860777057     9.136529215    -0.526646281
 O      -4.545792263    -3.607311135    -0.491400151
 O      -1.963382223     0.576808895    -0.328866481
 O       0.367642507     4.882490045    -0.529141641
 O      -2.045351923    -7.834610555    -0.489960311
 O       0.419151397    -3.611192345    -0.505245731
 O       2.761537487     0.707383495    -0.583004161
 O       5.280921387     4.887044825    -0.505274991
 O       2.870946117    -7.860676775    -0.450348151
 O       5.262539837    -3.619267925    -0.532090811
 O       7.705252207     0.638831425    -0.505613961
 O      -9.409982293     4.867477705    -0.474738011
 O      -0.164822003     9.458386655    -4.500069551
 O      -7.439623373    -3.206789555    -4.489794101
 O      -4.767449013     1.587231125    -4.108193741
 O      -2.443978753     5.479057485    -4.293659371
 O      -5.055141193    -7.498201225    -4.485680331
 O      -2.512304933    -3.009734565    -4.319404011
 O      -0.637254463     0.388353965    -4.564971491
 O       2.277684447     5.182629815    -4.465218121
 O      -0.182749723    -7.449097595    -4.416282251
 O       2.346099717    -3.455733935    -4.533838001
 O       4.719169347     1.022436175    -4.551988111
 O       7.176144547     5.196566805    -4.497450531
 O       4.653191347    -7.673292955    -4.561746921
 O       7.194208657    -3.280273625    -4.452454461
 O       9.573297937     0.969594095    -4.527030281
 O      -7.574552433     5.205709735    -4.491652701
 O      -7.797017283    -4.854731615    -2.295600721
 O      -5.440063613    -0.536006915    -2.415180951
 O      -2.972152663     3.684181195    -2.294547641
 O      -0.535194733     7.851832745    -2.308948821
 O      -2.916402423    -4.790028605    -2.289319261
 O      -0.520192543    -0.789053975    -2.156483281
 O       1.966967317     3.579009655    -2.237392751
 O       4.370005517     7.824872575    -2.305806721
 O       2.000203907    -4.929168255    -2.238898831
 O       4.262444847    -0.572900445    -2.394591481
 O       6.839877587     3.598878425    -2.270052461
 O      -0.514991803    -9.122493365    -2.279762201
 O       6.893308117    -4.895494955    -2.236015441
 O       9.213439297    -0.627494425    -2.320460921
 O      -7.866880603     3.595507365    -2.262290051
 O      -5.424080733     7.797064235    -2.263125581
 O      -2.184286933    -1.977081035    -7.458823071
 H      -5.826112523     2.299796895    -4.575274151
 H      -1.512944593     2.048543915    -4.543483861
 H       3.742038927     2.046340395    -4.692332821
 H       8.647062237     2.023080465    -4.670250651
 H      -8.467680793     6.304149705    -4.664865441
 H       6.210189077     6.265949205    -4.651397761
 H       1.285746917     6.250434255    -4.628379991
 H      -3.463099083     6.283979345    -4.603272641
 H      -8.439951273    -2.175234065    -4.628081631
 H      -4.012015413    -1.890600435    -4.429721891
 H       1.308963297    -2.594351385    -4.495769881
 H       6.179842197    -2.178749005    -4.636143361
 H      -1.144751483    10.505766475    -4.668408641
 H      -6.028540743    -6.418240915    -4.659426141
 H      -1.226807023    -6.278922975    -4.666483951
 H       3.738805447    -6.636487495    -4.686039691
 H      -2.794091353    -2.711334315    -7.225610551
 Tl     -1.665559183    -1.213658125    -5.609708681
 VEC1    19.571311640     0.000000000     0.000000000
 VEC2     9.783691800    16.955319310     0.000000000

   Total nr. of atoms:        307





                       2 - D I M E N S I O N A L   C R Y S T A L


                             IN K-SPACE ONLY THE GAMMA POINT




   REAL SPACE LATTICE VECTORS                         LENGTH
   --------------------------                         ------
   1)  36.9844188993   0.0000000000                   36.984
   2)  18.4884979897  32.0409098515                   36.992

   ----------------------------------------
   Angles between lattice vectors
   ----------------------------------------

     pair          angle

     2 1            60.013856
 


 SMALLEST INTERATOMIC DISTANCE =      1.856724330355
 BeckeGrid: periodic partition function using cells up to order            4



 ===============================
 K - S P A C E   S A M P L I N G
 ===============================
  
 Automatic Regular k-space grid for quality: NORMAL
 
   Single k-point



 =========
 C E L L S
 =========
  

   Nr. of cells for valence functions:          7



 ===========================
 L I N E A R   S C A L I N G
 ===========================
  
 Neglecting functions
              Valence  1.00E-06
                 Core  1.00E-06
                  Fit  0.00E+00
            Multipole  1.00E-08
   Screening function  3.16E-05



 =========================================
 N U M E R I C A L   I N T E G R A T I O N
 =========================================
  
 Becke grid quality: NORMAL         
  
 Lebedev angular grid order:             min:  11 max:  31
 Nr. of radial points:                   min:  48 max:  99

 Total nr. of points                                2327680
 Block length                                           128
 Nr. of unique blocks                                 18185
 Total nr. of blocks                                  18185

 Percentage dummy points                               0.00%
 Nr. of k-points processed together in baspnt            30
 Nr. of symmetry operators (real space)                   1
 Symmetry operators in k-space                            2



 Total charge,    analytically                         2986.000000000000
                  numerically                          2985.998061168027
                  relative error                     -0.65E-06

 Valence density, analytically                         2362.000000000000
                  numerically                          2361.997982615891
                  relative error                     -0.85E-06



 INTEGRATED CHARGE PER ATOM:

  SET      TOTAL CHARGE      REL. ERROR      Valence CHARGE    REL. ERROR
 ------------------------------------------------------------------------
   1      13.9999053027      -0.676E-05     11.9999049681      -0.792E-05
   2      13.9999038495      -0.687E-05     11.9999035020      -0.804E-05
   3      13.9999670214      -0.236E-05     11.9999666307      -0.278E-05
   4      14.0000558193       0.399E-05     12.0000554318       0.462E-05
   5      13.9998794954      -0.861E-05     11.9998789847      -0.101E-04
   6      13.9998934786      -0.761E-05     11.9998930037      -0.892E-05
   7      13.9999626770      -0.267E-05     11.9999622221      -0.315E-05
   8      14.0000428741       0.306E-05     12.0000424481       0.354E-05
   9      14.0000650087       0.464E-05     12.0000645948       0.538E-05
  10      13.9999772992      -0.162E-05     11.9999770015      -0.192E-05
  11      13.9999719248      -0.201E-05     11.9999714219      -0.238E-05
  12      14.0000737585       0.527E-05     12.0000733847       0.612E-05
  13      13.9999612783      -0.277E-05     11.9999610400      -0.325E-05
  14      14.0000364687       0.260E-05     12.0000360565       0.300E-05
  15      13.9999745830      -0.182E-05     11.9999741092      -0.216E-05
  16      14.0000998081       0.713E-05     12.0000995129       0.829E-05
  17      13.9999962374      -0.269E-06     11.9999957479      -0.354E-06
  18      14.0000121223       0.866E-06     12.0000116596       0.972E-06
  19      14.0001587270       0.113E-04     12.0001584248       0.132E-04
  20      14.0001259403       0.900E-05     12.0001256194       0.105E-04
  21      14.0001546097       0.110E-04     12.0001542950       0.129E-04
  22      14.0001415841       0.101E-04     12.0001412870       0.118E-04
  23      14.0001411642       0.101E-04     12.0001408699       0.117E-04
  24      14.0000930024       0.664E-05     12.0000927044       0.773E-05
  25      14.0001238808       0.885E-05     12.0001235741       0.103E-04
  26      14.0001658285       0.118E-04     12.0001655321       0.138E-04
  27      14.0001504062       0.107E-04     12.0001500956       0.125E-04
  28      14.0001322696       0.945E-05     12.0001319438       0.110E-04
  29      14.0001207917       0.863E-05     12.0001204845       0.100E-04
  30      14.0001521203       0.109E-04     12.0001518204       0.127E-04
  31      14.0001442650       0.103E-04     12.0001439690       0.120E-04
  32      14.0001618460       0.116E-04     12.0001615488       0.135E-04
  33      14.0000922409       0.659E-05     12.0000919356       0.766E-05
  34      14.0001152990       0.824E-05     12.0001149907       0.958E-05
  35      13.9998742712      -0.898E-05     11.9998738768      -0.105E-04
  36      13.9999604581      -0.282E-05     11.9999600714      -0.333E-05
  37      13.9998861837      -0.813E-05     11.9998857794      -0.952E-05
  38      13.9998652015      -0.963E-05     11.9998647893      -0.113E-04
  39      13.9999384195      -0.440E-05     11.9999380207      -0.516E-05
  40      13.9998711032      -0.921E-05     11.9998706951      -0.108E-04
  41      13.9998592308      -0.101E-04     11.9998588229      -0.118E-04
  42      13.9998896130      -0.788E-05     11.9998892490      -0.923E-05
  43      13.9998820581      -0.842E-05     11.9998816538      -0.986E-05
  44      13.9998515074      -0.106E-04     11.9998511114      -0.124E-04
  45      13.9999118775      -0.629E-05     11.9999114903      -0.738E-05
  46      13.9998996782      -0.717E-05     11.9998992829      -0.839E-05
  47      13.9998641441      -0.970E-05     11.9998637547      -0.114E-04
  48      13.9998434184      -0.112E-04     11.9998430145      -0.131E-04
  49      13.9998892905      -0.791E-05     11.9998889080      -0.926E-05
  50      13.9998716591      -0.917E-05     11.9998712603      -0.107E-04
  51      13.9999164259      -0.597E-05     11.9999161085      -0.699E-05
  52      13.9999293280      -0.505E-05     11.9999289271      -0.592E-05
  53      13.9999086495      -0.653E-05     11.9999082795      -0.764E-05
  54      13.9999422902      -0.412E-05     11.9999419140      -0.484E-05
  55      13.9999350332      -0.464E-05     11.9999347256      -0.544E-05
  56      13.9999897386      -0.733E-06     11.9999894677      -0.878E-06
  57      13.9999682612      -0.227E-05     11.9999680057      -0.267E-05
  58      13.9999652007      -0.249E-05     11.9999648468      -0.293E-05
  59      13.9999564668      -0.311E-05     11.9999561503      -0.365E-05
  60      13.9999208024      -0.566E-05     11.9999204151      -0.663E-05
  61      13.9999809334      -0.136E-05     11.9999806846      -0.161E-05
  62      13.9999506847      -0.352E-05     11.9999503181      -0.414E-05
  63      13.9999300123      -0.500E-05     11.9999297042      -0.586E-05
  64      13.9999675682      -0.232E-05     11.9999672484      -0.273E-05
  65      13.9999252003      -0.534E-05     11.9999248279      -0.626E-05
  66      13.9999610547      -0.278E-05     11.9999607520      -0.327E-05
  67      14.0000605919       0.433E-05     12.0000603134       0.503E-05
  68      14.0000564976       0.404E-05     12.0000560599       0.467E-05
  69      14.0000585427       0.418E-05     12.0000580714       0.484E-05
  70      14.0000551771       0.394E-05     12.0000547281       0.456E-05
  71      14.0000668090       0.477E-05     12.0000663808       0.553E-05
  72      14.0000474401       0.339E-05     12.0000469500       0.391E-05
  73      14.0000489108       0.349E-05     12.0000484608       0.404E-05
  74      14.0000377705       0.270E-05     12.0000373433       0.311E-05
  75      14.0000624553       0.446E-05     12.0000620550       0.517E-05
  76      14.0000291324       0.208E-05     12.0000287529       0.240E-05
  77      14.0000847270       0.605E-05     12.0000844579       0.704E-05
  78      14.0000440887       0.315E-05     12.0000436466       0.364E-05
  79      14.0000478267       0.342E-05     12.0000474144       0.395E-05
  80      14.0000303237       0.217E-05     12.0000298429       0.249E-05
  81      14.0000233377       0.167E-05     12.0000228828       0.191E-05
  82      14.0000339253       0.242E-05     12.0000334606       0.279E-05
  83      13.9998745957      -0.896E-05     11.9998742222      -0.105E-04
  84      13.9999557395      -0.316E-05     11.9999554303      -0.371E-05
  85      13.9998304461      -0.121E-04     11.9998301507      -0.142E-04
  86      13.9999186186      -0.581E-05     11.9999183340      -0.681E-05
  87      13.9998901644      -0.785E-05     11.9998898073      -0.918E-05
  88      14.0000259619       0.185E-05     12.0000255943       0.213E-05
  89      13.9998142387      -0.133E-04     11.9998138553      -0.155E-04
  90      13.9998906605      -0.781E-05     11.9998903356      -0.914E-05
  91      13.9998298403      -0.122E-04     11.9998294831      -0.142E-04
  92      13.9999257500      -0.530E-05     11.9999255333      -0.621E-05
  93      13.9998735185      -0.903E-05     11.9998731767      -0.106E-04
  94      13.9999102297      -0.641E-05     11.9999099197      -0.751E-05
  95      13.9998892562      -0.791E-05     11.9998888988      -0.926E-05
  96      13.9999020651      -0.700E-05     11.9999017625      -0.819E-05
  97       8.0000088932       0.111E-05      6.0000096338       0.161E-05
  98       8.0000122961       0.154E-05      6.0000128671       0.214E-05
  99       8.0000036189       0.452E-06      6.0000043907       0.732E-06
 100       7.9999961487      -0.481E-06      5.9999965064      -0.582E-06
 101       8.0000077954       0.974E-06      6.0000083773       0.140E-05
 102       7.9999970621      -0.367E-06      5.9999971921      -0.468E-06
 103       8.0000012368       0.155E-06      6.0000023225       0.387E-06
 104       7.9999993908      -0.762E-07      5.9999996683      -0.553E-07
 105       8.0000040080       0.501E-06      6.0000045759       0.763E-06
 106       7.9999932639      -0.842E-06      5.9999935921      -0.107E-05
 107       8.0000148477       0.186E-05      6.0000151423       0.252E-05
 108       8.0000005804       0.725E-07      6.0000010364       0.173E-06
 109       7.9999968900      -0.389E-06      5.9999977978      -0.367E-06
 110       8.0000071973       0.900E-06      6.0000074681       0.124E-05
 111       8.0000011494       0.144E-06      6.0000014687       0.245E-06
 112       7.9999989939      -0.126E-06      5.9999992388      -0.127E-06
 113       7.9999720008      -0.350E-05      5.9999696372      -0.506E-05
 114       7.9999718626      -0.352E-05      5.9999715915      -0.473E-05
 115       7.9999732379      -0.335E-05      5.9999708391      -0.486E-05
 116       7.9999626892      -0.466E-05      5.9999602731      -0.662E-05
 117       7.9999672906      -0.409E-05      5.9999664933      -0.558E-05
 118       7.9999658001      -0.427E-05      5.9999633768      -0.610E-05
 119       7.9999698307      -0.377E-05      5.9999675803      -0.540E-05
 120       7.9999651477      -0.436E-05      5.9999628951      -0.618E-05
 121       7.9999756318      -0.305E-05      5.9999735166      -0.441E-05
 122       7.9999671952      -0.410E-05      5.9999647581      -0.587E-05
 123       7.9999711101      -0.361E-05      5.9999689375      -0.518E-05
 124       7.9999645091      -0.444E-05      5.9999621285      -0.631E-05
 125       7.9999657641      -0.428E-05      5.9999632897      -0.612E-05
 126       7.9999678087      -0.402E-05      5.9999653779      -0.577E-05
 127       7.9999732969      -0.334E-05      5.9999710638      -0.482E-05
 128       7.9999671403      -0.411E-05      5.9999648785      -0.585E-05
 129       7.9999898743      -0.127E-05      5.9999884820      -0.192E-05
 130       7.9999811371      -0.236E-05      5.9999799839      -0.334E-05
 131       7.9999832572      -0.209E-05      5.9999842911      -0.262E-05
 132       7.9999862117      -0.172E-05      5.9999850081      -0.250E-05
 133       7.9999950283      -0.621E-06      5.9999932184      -0.113E-05
 134       7.9999953933      -0.576E-06      5.9999960317      -0.661E-06
 135       7.9999957518      -0.531E-06      5.9999941543      -0.974E-06
 136       7.9999835634      -0.205E-05      5.9999824519      -0.292E-05
 137       7.9999921303      -0.984E-06      5.9999904913      -0.158E-05
 138       7.9999834508      -0.207E-05      5.9999826509      -0.289E-05
 139       7.9999939087      -0.761E-06      5.9999918452      -0.136E-05
 140       7.9999936050      -0.799E-06      5.9999920023      -0.133E-05
 141       7.9999942161      -0.723E-06      5.9999925136      -0.125E-05
 142       7.9999857168      -0.179E-05      5.9999844505      -0.259E-05
 143       7.9999939577      -0.755E-06      5.9999925370      -0.124E-05
 144       7.9999940368      -0.745E-06      5.9999924054      -0.127E-05
 145       8.0000268920       0.336E-05      6.0000302221       0.504E-05
 146       8.0000264080       0.330E-05      6.0000296647       0.494E-05
 147       8.0000218706       0.273E-05      6.0000233425       0.389E-05
 148       8.0000281928       0.352E-05      6.0000311880       0.520E-05
 149       8.0000111923       0.140E-05      6.0000139895       0.233E-05
 150       8.0000194156       0.243E-05      6.0000207288       0.345E-05
 151       8.0000287465       0.359E-05      6.0000324632       0.541E-05
 152       8.0000275774       0.345E-05      6.0000305352       0.509E-05
 153       8.0000216925       0.271E-05      6.0000247950       0.413E-05
 154       8.0000148370       0.185E-05      6.0000164894       0.275E-05
 155       8.0000264903       0.331E-05      6.0000302877       0.505E-05
 156       8.0000264185       0.330E-05      6.0000296591       0.494E-05
 157       8.0000241955       0.302E-05      6.0000276184       0.460E-05
 158       8.0000195415       0.244E-05      6.0000223518       0.373E-05
 159       8.0000204182       0.255E-05      6.0000233825       0.390E-05
 160       8.0000208297       0.260E-05      6.0000238686       0.398E-05
 161       8.0000111520       0.139E-05      6.0000119478       0.199E-05
 162       8.0000087079       0.109E-05      6.0000094092       0.157E-05
 163       8.0000129031       0.161E-05      6.0000136173       0.227E-05
 164       8.0000179630       0.225E-05      6.0000186444       0.311E-05
 165       8.0000008491       0.106E-06      6.0000016321       0.272E-06
 166       8.0000158118       0.198E-05      6.0000160989       0.268E-05
 167       8.0000134599       0.168E-05      6.0000135786       0.226E-05
 168       8.0000157072       0.196E-05      6.0000164614       0.274E-05
 169       8.0000130952       0.164E-05      6.0000139412       0.232E-05
 170       8.0000215802       0.270E-05      6.0000220025       0.367E-05
 171       8.0000119209       0.149E-05      6.0000121990       0.203E-05
 172       8.0000099710       0.125E-05      6.0000106926       0.178E-05
 173       8.0000054498       0.681E-06      6.0000065670       0.109E-05
 174       8.0000085233       0.107E-05      6.0000091464       0.152E-05
 175       8.0000020549       0.257E-06      6.0000025966       0.433E-06
 176       8.0000068148       0.852E-06      6.0000074912       0.125E-05
 177       7.9999831213      -0.211E-05      5.9999820851      -0.299E-05
 178       7.9999989561      -0.130E-06      6.0000000826       0.138E-07
 179       7.9999839204      -0.201E-05      5.9999830097      -0.283E-05
 180       7.9999783553      -0.271E-05      5.9999775950      -0.373E-05
 181       7.9999896876      -0.129E-05      5.9999903907      -0.160E-05
 182       7.9999821055      -0.224E-05      5.9999810630      -0.316E-05
 183       7.9999709103      -0.364E-05      5.9999701612      -0.497E-05
 184       7.9999870163      -0.162E-05      5.9999858076      -0.237E-05
 185       7.9999817745      -0.228E-05      5.9999805662      -0.324E-05
 186       7.9999760560      -0.299E-05      5.9999749611      -0.417E-05
 187       7.9999884022      -0.145E-05      5.9999874022      -0.210E-05
 188       7.9999868462      -0.164E-05      5.9999860170      -0.233E-05
 189       7.9999774562      -0.282E-05      5.9999763195      -0.395E-05
 190       7.9999778264      -0.277E-05      5.9999765420      -0.391E-05
 191       7.9999875560      -0.156E-05      5.9999862539      -0.229E-05
 192       7.9999839718      -0.200E-05      5.9999828116      -0.286E-05
 193       7.9999649372      -0.438E-05      5.9999647170      -0.588E-05
 194       7.9999669163      -0.414E-05      5.9999669959      -0.550E-05
 195       7.9999725232      -0.343E-05      5.9999723256      -0.461E-05
 196       7.9999756136      -0.305E-05      5.9999735869      -0.440E-05
 197       7.9999739000      -0.326E-05      5.9999728640      -0.452E-05
 198       7.9999895669      -0.130E-05      5.9999897579      -0.171E-05
 199       8.0000069078       0.863E-06      6.0000074657       0.124E-05
 200       7.9999783875      -0.270E-05      5.9999767614      -0.387E-05
 201       7.9999852629      -0.184E-05      5.9999857561      -0.237E-05
 202       7.9999722641      -0.347E-05      5.9999738317      -0.436E-05
 203       7.9999792825      -0.259E-05      5.9999784273      -0.360E-05
 204       7.9999683192      -0.396E-05      5.9999671821      -0.547E-05
 205       7.9999870057      -0.162E-05      5.9999861406      -0.231E-05
 206       7.9999689884      -0.388E-05      5.9999677530      -0.537E-05
 207       7.9999811232      -0.236E-05      5.9999810832      -0.315E-05
 208       7.9999781482      -0.273E-05      5.9999771311      -0.381E-05
 209       7.9999928100      -0.899E-06      5.9999926773      -0.122E-05
 210       8.0000227668       0.285E-05      6.0000243666       0.406E-05
 211       7.9999910761      -0.112E-05      5.9999918127      -0.136E-05
 212       8.0000284070       0.355E-05      6.0000282595       0.471E-05
 213       7.9999946021      -0.675E-06      5.9999957873      -0.702E-06
 214       7.9999996722      -0.410E-07      5.9999988066      -0.199E-06
 215       7.9999776407      -0.279E-05      5.9999780142      -0.366E-05
 216       7.9999951585      -0.605E-06      5.9999953220      -0.780E-06
 217       7.9999764670      -0.294E-05      5.9999760491      -0.399E-05
 218       8.0000254626       0.318E-05      6.0000264346       0.441E-05
 219       7.9999943070      -0.712E-06      5.9999944241      -0.929E-06
 220       7.9999962977      -0.463E-06      5.9999971806      -0.470E-06
 221       7.9999985128      -0.186E-06      5.9999984387      -0.260E-06
 222       8.0000033187       0.415E-06      6.0000043441       0.724E-06
 223       7.9999896112      -0.130E-05      5.9999905689      -0.157E-05
 224       7.9999847936      -0.190E-05      5.9999856464      -0.239E-05
 225       8.0000114744       0.143E-05      6.0000126338       0.211E-05
 226       8.0000077276       0.966E-06      6.0000069670       0.116E-05
 227       7.9999859079      -0.176E-05      5.9999868910      -0.218E-05
 228       7.9999901740      -0.123E-05      5.9999902401      -0.163E-05
 229       7.9999987253      -0.159E-06      5.9999975590      -0.407E-06
 230       8.0000013555       0.169E-06      5.9999996279      -0.620E-07
 231       8.0000083832       0.105E-05      6.0000056398       0.940E-06
 232       8.0000186256       0.233E-05      6.0000177990       0.297E-05
 233       7.9999921633      -0.980E-06      5.9999909328      -0.151E-05
 234       8.0000031409       0.393E-06      6.0000003713       0.619E-07
 235       8.0000243617       0.305E-05      6.0000255887       0.426E-05
 236       8.0000049072       0.613E-06      6.0000034878       0.581E-06
 237       7.9999870642      -0.162E-05      5.9999852434      -0.246E-05
 238       8.0000183730       0.230E-05      6.0000172425       0.287E-05
 239       7.9999859163      -0.176E-05      5.9999853771      -0.244E-05
 240       7.9999958309      -0.521E-06      5.9999940772      -0.987E-06
 241       8.0000378750       0.473E-05      6.0000394208       0.657E-05
 242       8.0000196081       0.245E-05      6.0000212417       0.354E-05
 243       8.0000105095       0.131E-05      6.0000096375       0.161E-05
 244       8.0000148006       0.185E-05      6.0000146384       0.244E-05
 245       8.0000284439       0.356E-05      6.0000297121       0.495E-05
 246       8.0000062629       0.783E-06      6.0000050867       0.848E-06
 247       8.0000115803       0.145E-05      6.0000111760       0.186E-05
 248       8.0000075759       0.947E-06      6.0000093630       0.156E-05
 249       8.0000218049       0.273E-05      6.0000226450       0.377E-05
 250       7.9999988950      -0.138E-06      6.0000005592       0.932E-07
 251       8.0000291240       0.364E-05      6.0000306211       0.510E-05
 252       8.0000181090       0.226E-05      6.0000193972       0.323E-05
 253       8.0000165857       0.207E-05      6.0000170494       0.284E-05
 254       8.0000099038       0.124E-05      6.0000113038       0.188E-05
 255       8.0000186182       0.233E-05      6.0000189286       0.315E-05
 256       8.0000130290       0.163E-05      6.0000135766       0.226E-05
 257       8.0000028481       0.356E-06      6.0000010286       0.171E-06
 258       7.9999901524      -0.123E-05      5.9999889035      -0.185E-05
 259       7.9999976734      -0.291E-06      5.9999972609      -0.457E-06
 260       8.0000079410       0.993E-06      6.0000063847       0.106E-05
 261       7.9999998381      -0.202E-07      5.9999980284      -0.329E-06
 262       7.9999961521      -0.481E-06      5.9999951154      -0.814E-06
 263       7.9999689485      -0.388E-05      5.9999696089      -0.507E-05
 264       7.9999919948      -0.100E-05      5.9999903535      -0.161E-05
 265       8.0000115274       0.144E-05      6.0000114405       0.191E-05
 266       7.9999970009      -0.375E-06      5.9999968977      -0.517E-06
 267       8.0000055139       0.689E-06      6.0000039856       0.664E-06
 268       7.9999957572      -0.530E-06      5.9999940436      -0.993E-06
 269       8.0000138346       0.173E-05      6.0000140146       0.234E-05
 270       7.9999905386      -0.118E-05      5.9999891375      -0.181E-05
 271       8.0000027529       0.344E-06      6.0000012533       0.209E-06
 272       8.0000103967       0.130E-05      6.0000087879       0.146E-05
 273       7.9999863315      -0.171E-05      5.9999856882      -0.239E-05
 274       7.9999644669      -0.444E-05      5.9999637246      -0.605E-05
 275       7.9999683918      -0.395E-05      5.9999685192      -0.525E-05
 276       7.9999654361      -0.432E-05      5.9999642461      -0.596E-05
 277       8.0000002050       0.256E-07      5.9999994490      -0.918E-07
 278       7.9999853700      -0.183E-05      5.9999863442      -0.228E-05
 279       7.9999791897      -0.260E-05      5.9999788264      -0.353E-05
 280       7.9999898504      -0.127E-05      5.9999873913      -0.210E-05
 281       7.9999784353      -0.270E-05      5.9999785809      -0.357E-05
 282       7.9999808213      -0.240E-05      5.9999779255      -0.368E-05
 283       7.9999867855      -0.165E-05      5.9999858440      -0.236E-05
 284       7.9999934455      -0.819E-06      5.9999904211      -0.160E-05
 285       7.9999850025      -0.187E-05      5.9999851689      -0.247E-05
 286       7.9999862276      -0.172E-05      5.9999835445      -0.274E-05
 287       7.9999968269      -0.397E-06      5.9999937119      -0.105E-05
 288       7.9999809404      -0.238E-05      5.9999802063      -0.330E-05
 289       8.0000016979       0.212E-06      6.0000032868       0.548E-06
 290       0.9999945519      -0.545E-05      0.9999945519      -0.545E-05
 291       0.9999888258      -0.112E-04      0.9999888258      -0.112E-04
 292       1.0000059190       0.592E-05      1.0000059190       0.592E-05
 293       1.0000002901       0.290E-06      1.0000002901       0.290E-06
 294       1.0000146042       0.146E-04      1.0000146042       0.146E-04
 295       0.9999998461      -0.154E-06      0.9999998461      -0.154E-06
 296       1.0000032022       0.320E-05      1.0000032022       0.320E-05
 297       0.9999941465      -0.585E-05      0.9999941465      -0.585E-05
 298       0.9999934821      -0.652E-05      0.9999934821      -0.652E-05
 299       1.0000500422       0.500E-04      1.0000500422       0.500E-04
 300       1.0000118450       0.118E-04      1.0000118450       0.118E-04
 301       1.0000038766       0.388E-05      1.0000038766       0.388E-05
 302       0.9999942269      -0.577E-05      0.9999942269      -0.577E-05
 303       0.9999952745      -0.473E-05      0.9999952745      -0.473E-05
 304       1.0000074694       0.747E-05      1.0000074694       0.747E-05
 305       0.9999923961      -0.760E-05      0.9999923961      -0.760E-05
 306       1.0000195112       0.195E-04      1.0000195112       0.195E-04
 307      81.0001254953       0.155E-05     35.0001196255       0.342E-05
 
 use shared memory for sandwiching:  T , as int:            1

 Norms of functions from routine baspnt
 Maximum error in norms     1.379E-04 for function     1387
 Minimum accuracy required  1.000E-03

 Norms of functions from routine corpnt
 Maximum error in norms     1.763E-06 for function      309
 Minimum accuracy required  1.000E-03

 Sparseness info - valence
   nr. of functions           11678
   max. nr. of functions       6622
   min. nr. of functions          0
   avr. nr. of functions       2759
   percentage stored           23.6
 

 Sparseness info - core
   nr. of functions             624
   max. nr. of functions         46
   min. nr. of functions          0
   avr. nr. of functions          3
   percentage stored            0.5
 

 Frozen core overlap error  1.76E-06
 PrepareHam: needLdotB F



 ========================
 Density Fitting (zlmFit)
 ========================
  
 ZlmFit Fit Quality: NORMAL         
  
 Max L-expansion:                        min:   5 max:   7
 Nr. of radial interpolation points:     min:  36 max:  87
 BeckeGrid: periodic partition function using cells up to order            4
 BeckeGrid: periodic partition function using cells up to order            4
 SCF procedure tweaks
   * counter           0
   * addExtraPotential F
   * addExtraPotentialOnLastCycle F
   * extraPotentialName
   * reuseEigenSystem F
 
 skipDiagonalization F parmix=  7.500000000000000E-002 ncylx=         300
 restartSCF F
 forceRestartSolution F



                                          *******************************
                                          *  S C F   P R O C E D U R E  *
                                          *******************************
  

 Nr. of basis functions                   11678
 Nr. of core functions                      624
 Nr. of fit functions                         0
 Nr. of symmetry unique K-points              1
 Valence charge                         2362.00
 Nr. of symmetry operators                    1

 Settings for convergence
 --------------------------------------------------------------------------------
   Initial density:          psi
 --------------------------------------------------------------------------------

 cyc=  0 err=0.00E+00 cpu=  16m ela=  18m
 cyc=  1 err=4.40E+00 meth=m nvec= 1 mix=0.0750 cpu=  16m ela=  17m fit=8.12E-02
 cyc=  2 err=3.93E+00 meth=d nvec= 2 mix=0.2000 cpu=  16m ela=  17m fit=4.54E-02
 cyc=  3 err=5.75E+00 meth=d nvec= 3 mix=0.1000 cpu=  16m ela=  17m fit=3.92E-02
 cyc=  4 err=7.58E+00 meth=d nvec= 4 mix=0.0909 cpu=  16m ela=  17m fit=3.47E-02
 cyc=  5 err=2.37E+00 meth=d nvec= 5 mix=0.0909 cpu=  16m ela=  17m fit=3.06E-02
 cyc=  6 err=1.65E+00 meth=d nvec= 6 mix=0.0909 cpu=  16m ela=  18m fit=3.22E-02
 cyc=  7 err=1.67E+00 meth=d nvec= 7 mix=0.0826 cpu=  16m ela=  18m fit=3.28E-02
 cyc=  8 err=1.61E+00 meth=d nvec= 8 mix=0.0826 cpu=  16m ela=  18m fit=3.33E-02
 cyc=  9 err=1.65E+00 meth=d nvec= 9 mix=0.0751 cpu=  16m ela=  18m fit=3.36E-02
 cyc= 10 err=1.53E+00 meth=d nvec=10 mix=0.0751 cpu=  16m ela=  18m fit=3.42E-02
 cyc= 11 err=1.48E+00 meth=d nvec=11 mix=0.0751 cpu=  16m ela=  18m fit=3.45E-02
 cyc= 12 err=1.49E+00 meth=d nvec=12 mix=0.0683 cpu=  16m ela=  18m fit=3.45E-02
 cyc= 13 err=1.47E+00 meth=d nvec=13 mix=0.0751 cpu=  16m ela=  18m fit=3.64E-02
 cyc= 14 err=1.37E+00 meth=d nvec=14 mix=0.0751 cpu=  16m ela=  18m fit=3.80E-02
 cyc= 15 err=1.27E+00 meth=d nvec=15 mix=0.0826 cpu=  16m ela=  18m fit=4.17E-02
 cyc= 16 err=1.14E+00 meth=d nvec=16 mix=0.0909 cpu=  16m ela=  18m fit=4.69E-02
 cyc= 17 err=9.59E-01 meth=d nvec=17 mix=0.1000 cpu=  16m ela=  18m fit=5.11E-02
 cyc= 18 err=8.66E-01 meth=d nvec=18 mix=0.1100 cpu=  16m ela=  18m fit=5.55E-02
 cyc= 19 err=7.67E-01 meth=d nvec=19 mix=0.1210 cpu=  16m ela=  18m fit=5.90E-02
 cyc= 20 err=7.73E-01 meth=d nvec=20 mix=0.1100 cpu=  17m ela=  18m fit=6.06E-02
 cyc= 21 err=6.70E-01 meth=d nvec=20 mix=0.1210 cpu=  18m ela=  19m fit=6.30E-02
 cyc= 22 err=5.97E-01 meth=d nvec=20 mix=0.1210 cpu=  16m ela=  18m fit=6.42E-02
 cyc= 23 err=5.43E-01 meth=d nvec=20 mix=0.1331 cpu=  16m ela=  18m fit=6.42E-02
 cyc= 24 err=5.34E-01 meth=d nvec=20 mix=0.1464 cpu=  17m ela=  18m fit=6.60E-02
 cyc= 25 err=1.23E+00 meth=d nvec=20 mix=0.1331 cpu=  16m ela=  18m fit=6.60E-02
 RHOPOT WARNING: NEGATIVE CHARGE DENSITY FOUND OF  -5.44E-04 FOR SPIN  1
 RHOPOT WARNING: NEGATIVE CHARGE DENSITY FOUND OF  -5.47E-04 FOR SPIN  2
 cyc= 26 err=9.98E-01 meth=d nvec=20 mix=0.1464 cpu=  16m ela=  18m fit=6.85E-02
 RHOPOT WARNING: NEGATIVE CHARGE DENSITY FOUND OF  -3.30E-09 FOR SPIN  1
 RHOPOT WARNING: NEGATIVE CHARGE DENSITY FOUND OF  -3.22E-09 FOR SPIN  2
 cyc= 27 err=1.94E+00 meth=d nvec=20 mix=0.1331 cpu=  16m ela=  18m fit=6.78E-02
 RHOPOT WARNING: NEGATIVE CHARGE DENSITY FOUND OF  -3.22E-06 FOR SPIN  1
 RHOPOT WARNING: NEGATIVE CHARGE DENSITY FOUND OF  -3.18E-06 FOR SPIN  2
 cyc= 28 err=1.04E+00 meth=d nvec=20 mix=0.1464 cpu=  17m ela=  18m fit=6.82E-02
 cyc= 29 err=1.51E+00 meth=d nvec=20 mix=0.1331 cpu=  17m ela=  18m fit=6.81E-02
 cyc= 30 err=9.22E-01 meth=d nvec=20 mix=0.1464 cpu=  17m ela=  18m fit=6.79E-02
 cyc= 31 err=1.28E+00 meth=d nvec=20 mix=0.1331 cpu=  17m ela=  18m fit=6.77E-02
 cyc= 32 err=9.05E-01 meth=d nvec=20 mix=0.1464 cpu=  17m ela=  18m fit=6.80E-02
 cyc= 33 err=1.09E+00 meth=d nvec=20 mix=0.1331 cpu=  17m ela=  18m fit=6.79E-02
 cyc= 34 err=7.04E-01 meth=d nvec=20 mix=0.1464 cpu=  17m ela=  18m fit=6.81E-02
 cyc= 35 err=1.00E+00 meth=d nvec=20 mix=0.1331 cpu=  17m ela=  18m fit=6.80E-02
 cyc= 36 err=7.32E-01 meth=d nvec=20 mix=0.1464 cpu=  17m ela=  18m fit=6.83E-02
 cyc= 37 err=8.71E-01 meth=d nvec=20 mix=0.1331 cpu=  17m ela=  18m fit=6.84E-02
 cyc= 38 err=7.40E-01 meth=d nvec=20 mix=0.1464 cpu=  17m ela=  18m fit=6.85E-02
 cyc= 39 err=7.10E-01 meth=d nvec=20 mix=0.1464 cpu=  17m ela=  18m fit=6.82E-02
 cyc= 40 err=6.85E-01 meth=d nvec=20 mix=0.1611 cpu=  17m ela=  18m fit=6.80E-02
 cyc= 41 err=9.22E-01 meth=d nvec=20 mix=0.1464 cpu=  17m ela=  18m fit=6.78E-02
 cyc= 42 err=7.38E-01 meth=d nvec=20 mix=0.1611 cpu=  17m ela=  18m fit=6.79E-02
 cyc= 43 err=7.23E-01 meth=d nvec=20 mix=0.1611 cpu=  17m ela=  18m fit=6.79E-02
 RHOPOT WARNING: NEGATIVE CHARGE DENSITY FOUND OF  -1.11E-03 FOR SPIN  2
 cyc= 44 err=5.93E-01 meth=d nvec=20 mix=0.1772 cpu=  17m ela=  18m fit=6.89E-02
 RHOPOT WARNING: NEGATIVE CHARGE DENSITY FOUND OF  -4.66E-04 FOR SPIN  2
 cyc= 45 err=6.34E-01 meth=d nvec=20 mix=0.1611 cpu=  17m ela=  18m fit=6.88E-02
 RHOPOT WARNING: NEGATIVE CHARGE DENSITY FOUND OF  -2.91E-04 FOR SPIN  2
 cyc= 46 err=7.33E-01 meth=d nvec=20 mix=0.1464 cpu=  17m ela=  18m fit=6.87E-02
 RHOPOT WARNING: NEGATIVE CHARGE DENSITY FOUND OF  -4.93E-04 FOR SPIN  2
 cyc= 47 err=5.01E-01 meth=d nvec=20 mix=0.1464 cpu=  17m ela=  18m fit=6.88E-02
 RHOPOT WARNING: NEGATIVE CHARGE DENSITY FOUND OF  -1.71E-05 FOR SPIN  2
 cyc= 48 err=4.10E-01 meth=d nvec=20 mix=0.1464 cpu=  17m ela=  18m fit=6.90E-02
 RHOPOT WARNING: NEGATIVE CHARGE DENSITY FOUND OF  -2.25E-04 FOR SPIN  2
 cyc= 49 err=5.92E-01 meth=d nvec=20 mix=0.1331 cpu=  17m ela=  18m fit=6.92E-02
 RHOPOT WARNING: NEGATIVE CHARGE DENSITY FOUND OF  -2.24E-04 FOR SPIN  2
 cyc= 50 err=3.37E-01 meth=d nvec=20 mix=0.1464 cpu=  17m ela=  18m fit=6.96E-02
 RHOPOT WARNING: NEGATIVE CHARGE DENSITY FOUND OF  -2.90E-04 FOR SPIN  2
 cyc= 51 err=4.68E-01 meth=d nvec=20 mix=0.1331 cpu=  17m ela=  18m fit=6.97E-02
 RHOPOT WARNING: NEGATIVE CHARGE DENSITY FOUND OF  -2.09E-04 FOR SPIN  2
 cyc= 52 err=3.96E-01 meth=d nvec=20 mix=0.1464 cpu=  17m ela=  18m fit=6.99E-02
 RHOPOT WARNING: NEGATIVE CHARGE DENSITY FOUND OF  -1.04E-05 FOR SPIN  2
 cyc= 53 err=4.78E-01 meth=d nvec=20 mix=0.1331 cpu=  17m ela=  18m fit=6.99E-02
 cyc= 54 err=2.96E-01 meth=d nvec=20 mix=0.1464 cpu=  17m ela=  18m fit=6.99E-02
 cyc= 55 err=2.88E-01 meth=d nvec=20 mix=0.1464 cpu=  17m ela=  18m fit=7.02E-02
 cyc= 56 err=3.30E-01 meth=d nvec=20 mix=0.1331 cpu=  17m ela=  18m fit=7.05E-02
 cyc= 57 err=3.12E-01 meth=d nvec=20 mix=0.1464 cpu=  17m ela=  18m fit=7.07E-02
 cyc= 58 err=3.15E-01 meth=d nvec=20 mix=0.1331 cpu=  17m ela=  18m fit=7.07E-02
 cyc= 59 err=3.13E-01 meth=d nvec=20 mix=0.1464 cpu=  17m ela=  18m fit=7.09E-02
 cyc= 60 err=2.83E-01 meth=d nvec=20 mix=0.1464 cpu=  17m ela=  18m fit=7.10E-02
 cyc= 61 err=3.22E-01 meth=d nvec=20 mix=0.1331 cpu=  17m ela=  18m fit=7.11E-02
 cyc= 62 err=2.69E-01 meth=d nvec=20 mix=0.1464 cpu=  17m ela=  18m fit=7.13E-02
 cyc= 63 err=3.51E-01 meth=d nvec=20 mix=0.1331 cpu=  17m ela=  18m fit=7.12E-02
 cyc= 64 err=3.54E-01 meth=d nvec=20 mix=0.1210 cpu=  17m ela=  18m fit=7.14E-02
 RHOPOT WARNING: NEGATIVE CHARGE DENSITY FOUND OF  -1.31E-04 FOR SPIN  1
 RHOPOT WARNING: NEGATIVE CHARGE DENSITY FOUND OF  -1.30E-04 FOR SPIN  2
 cyc= 65 err=2.17E-01 meth=d nvec=20 mix=0.1210 cpu=  17m ela=  19m fit=7.16E-02
 RHOPOT WARNING: NEGATIVE CHARGE DENSITY FOUND OF  -6.06E-05 FOR SPIN  1
 RHOPOT WARNING: NEGATIVE CHARGE DENSITY FOUND OF  -6.04E-05 FOR SPIN  2
 cyc= 66 err=2.02E-01 meth=d nvec=20 mix=0.1210 cpu=  17m ela=  19m fit=7.16E-02
 RHOPOT WARNING: NEGATIVE CHARGE DENSITY FOUND OF  -3.50E-05 FOR SPIN  1
 RHOPOT WARNING: NEGATIVE CHARGE DENSITY FOUND OF  -3.49E-05 FOR SPIN  2
 cyc= 67 err=1.56E-01 meth=d nvec=20 mix=0.1331 cpu=  17m ela=  19m fit=7.16E-02
 RHOPOT WARNING: NEGATIVE CHARGE DENSITY FOUND OF  -4.02E-05 FOR SPIN  1
 RHOPOT WARNING: NEGATIVE CHARGE DENSITY FOUND OF  -4.01E-05 FOR SPIN  2
 cyc= 68 err=1.59E-01 meth=d nvec=20 mix=0.1210 cpu=  17m ela=  18m fit=7.16E-02
 RHOPOT WARNING: NEGATIVE CHARGE DENSITY FOUND OF  -5.04E-05 FOR SPIN  1
 RHOPOT WARNING: NEGATIVE CHARGE DENSITY FOUND OF  -5.02E-05 FOR SPIN  2
 cyc= 69 err=1.58E-01 meth=d nvec=20 mix=0.1331 cpu=  17m ela=  19m fit=7.17E-02
 cyc= 70 err=2.05E-01 meth=d nvec=20 mix=0.1210 cpu=  17m ela=  19m fit=7.15E-02
 RHOPOT WARNING: NEGATIVE CHARGE DENSITY FOUND OF  -1.04E-04 FOR SPIN  1
 RHOPOT WARNING: NEGATIVE CHARGE DENSITY FOUND OF  -1.04E-04 FOR SPIN  2
 cyc= 71 err=1.55E-01 meth=d nvec=20 mix=0.1331 cpu=  17m ela=  19m fit=7.17E-02
 RHOPOT WARNING: NEGATIVE CHARGE DENSITY FOUND OF  -1.32E-04 FOR SPIN  1
 RHOPOT WARNING: NEGATIVE CHARGE DENSITY FOUND OF  -1.32E-04 FOR SPIN  2
 cyc= 72 err=1.91E-01 meth=d nvec=20 mix=0.1210 cpu=  17m ela=  19m fit=7.17E-02
 cyc= 73 err=1.69E-01 meth=d nvec=20 mix=0.1331 cpu=  17m ela=  19m fit=7.16E-02
 RHOPOT WARNING: NEGATIVE CHARGE DENSITY FOUND OF  -6.51E-07 FOR SPIN  1
 RHOPOT WARNING: NEGATIVE CHARGE DENSITY FOUND OF  -6.49E-07 FOR SPIN  2
 cyc= 74 err=6.25E-01 meth=d nvec=20 mix=0.1210 cpu=  17m ela=  19m fit=7.16E-02
 cyc= 75 err=1.98E-01 meth=d nvec=20 mix=0.1331 cpu=  17m ela=  18m fit=7.16E-02
 cyc= 76 err=3.56E-01 meth=d nvec=20 mix=0.1210 cpu=  17m ela=  19m fit=7.16E-02
 cyc= 77 err=1.72E-01 meth=d nvec=20 mix=0.1331 cpu=  17m ela=  18m fit=7.16E-02
 cyc= 78 err=1.87E-01 meth=d nvec=20 mix=0.1210 cpu=  17m ela=  19m fit=7.16E-02
 cyc= 79 err=1.73E-01 meth=d nvec=20 mix=0.1331 cpu=  17m ela=  19m fit=7.15E-02
 cyc= 80 err=1.47E-01 meth=d nvec=20 mix=0.1331 cpu=  17m ela=  18m fit=7.15E-02
 cyc= 81 err=1.91E-01 meth=d nvec=20 mix=0.1210 cpu=  17m ela=  19m fit=7.16E-02
 cyc= 82 err=1.20E-01 meth=d nvec=20 mix=0.1331 cpu=  17m ela=  19m fit=7.16E-02
 cyc= 83 err=1.26E-01 meth=d nvec=20 mix=0.1210 cpu=  17m ela=  19m fit=7.16E-02
 cyc= 84 err=1.25E-01 meth=d nvec=20 mix=0.1331 cpu=  17m ela=  19m fit=7.15E-02
 cyc= 85 err=1.21E-01 meth=d nvec=20 mix=0.1331 cpu=  18m ela=  19m fit=7.16E-02
 cyc= 86 err=1.22E-01 meth=d nvec=20 mix=0.1210 cpu=  17m ela=  19m fit=7.15E-02
 cyc= 87 err=1.23E-01 meth=d nvec=20 mix=0.1100 cpu=  17m ela=  19m fit=7.15E-02
 cyc= 88 err=1.17E-01 meth=d nvec=20 mix=0.1100 cpu=  17m ela=  18m fit=7.15E-02
 cyc= 89 err=1.23E-01 meth=d nvec=20 mix=0.1000 cpu=  18m ela=  19m fit=7.15E-02
 cyc= 90 err=1.27E-01 meth=d nvec=20 mix=0.0909 cpu=  17m ela=  19m fit=7.15E-02
 cyc= 91 err=1.25E-01 meth=d nvec=20 mix=0.0909 cpu=  17m ela=  19m fit=7.15E-02
 cyc= 92 err=1.26E-01 meth=d nvec=20 mix=0.0826 cpu=  17m ela=  19m fit=7.16E-02
 cyc= 93 err=1.22E-01 meth=d nvec=20 mix=0.0909 cpu=  17m ela=  19m fit=7.16E-02
 cyc= 94 err=1.27E-01 meth=d nvec=20 mix=0.0826 cpu=  17m ela=  18m fit=7.16E-02
 cyc= 95 err=2.22E-01 meth=d nvec=20 mix=0.0751 cpu=  17m ela=  19m fit=7.16E-02
 cyc= 96 err=1.14E-01 meth=d nvec=20 mix=0.0751 cpu=  17m ela=  19m fit=7.16E-02
 cyc= 97 err=1.88E-01 meth=d nvec=20 mix=0.0683 cpu=  17m ela=  19m fit=7.16E-02
 cyc= 98 err=1.92E-01 meth=d nvec=20 mix=0.0621 cpu=  17m ela=  19m fit=7.16E-02
 cyc= 99 err=1.84E-01 meth=d nvec=20 mix=0.0621 cpu=  17m ela=  18m fit=7.16E-02
 cyc=100 err=1.80E-01 meth=d nvec=20 mix=0.0621 cpu=  17m ela=  19m fit=7.16E-02
 cyc=101 err=1.56E-01 meth=d nvec=20 mix=0.0683 cpu=  17m ela=  18m fit=7.16E-02
 cyc=102 err=1.77E-01 meth=d nvec=20 mix=0.0621 cpu=  17m ela=  19m fit=7.16E-02
 cyc=103 err=1.72E-01 meth=d nvec=20 mix=0.0683 cpu=  17m ela=  19m fit=7.16E-02
 cyc=104 err=1.72E-01 meth=d nvec=20 mix=0.0621 cpu=  17m ela=  18m fit=7.16E-02
 cyc=105 err=2.05E-01 meth=d nvec=20 mix=0.0564 cpu=  17m ela=  19m fit=7.16E-02
 cyc=106 err=1.69E-01 meth=d nvec=20 mix=0.0564 cpu=  17m ela=  19m fit=7.16E-02
 cyc=107 err=2.08E-01 meth=d nvec=20 mix=0.0513 cpu=  17m ela=  19m fit=7.16E-02
 cyc=108 err=2.05E-01 meth=d nvec=20 mix=0.0564 cpu=  17m ela=  19m fit=7.16E-02
 cyc=109 err=2.23E-01 meth=d nvec=20 mix=0.0513 cpu=  17m ela=  19m fit=7.16E-02
 cyc=110 err=2.70E-01 meth=d nvec=20 mix=0.0467 cpu=  17m ela=  19m fit=7.16E-02
 cyc=111 err=1.83E-01 meth=d nvec=20 mix=0.0467 cpu=  17m ela=  19m fit=7.16E-02
 cyc=112 err=1.15E-01 meth=d nvec=20 mix=0.0467 cpu=  17m ela=  19m fit=7.16E-02
 cyc=113 err=9.89E-02 meth=d nvec=20 mix=0.0513 cpu=  17m ela=  18m fit=7.16E-02
 cyc=114 err=1.02E-01 meth=d nvec=20 mix=0.0467 cpu=  17m ela=  19m fit=7.16E-02
 cyc=115 err=9.99E-02 meth=d nvec=20 mix=0.0513 cpu=  17m ela=  19m fit=7.16E-02
 cyc=116 err=9.62E-02 meth=d nvec=20 mix=0.0513 cpu=  17m ela=  19m fit=7.16E-02
 cyc=117 err=9.64E-02 meth=d nvec=20 mix=0.0467 cpu=  17m ela=  18m fit=7.16E-02
 cyc=118 err=1.03E-01 meth=d nvec=20 mix=0.0424 cpu=  17m ela=  19m fit=7.16E-02
 cyc=119 err=1.12E-01 meth=d nvec=20 mix=0.0386 cpu=  17m ela=  18m fit=7.16E-02
 cyc=120 err=9.91E-02 meth=d nvec=20 mix=0.0386 cpu=  17m ela=  19m fit=7.16E-02
 cyc=121 err=9.38E-02 meth=d nvec=20 mix=0.0386 cpu=  17m ela=  19m fit=7.16E-02
 cyc=122 err=9.38E-02 meth=d nvec=20 mix=0.0350 cpu=  17m ela=  18m fit=7.16E-02
 cyc=123 err=9.05E-02 meth=d nvec=20 mix=0.0386 cpu=  17m ela=  19m fit=7.16E-02
 cyc=124 err=9.45E-02 meth=d nvec=20 mix=0.0350 cpu=  17m ela=  19m fit=7.16E-02
 cyc=125 err=9.26E-02 meth=d nvec=20 mix=0.0386 cpu=  17m ela=  19m fit=7.16E-02
 cyc=126 err=8.90E-02 meth=d nvec=20 mix=0.0386 cpu=  17m ela=  19m fit=7.16E-02
 cyc=127 err=9.39E-02 meth=d nvec=20 mix=0.0350 cpu=  17m ela=  19m fit=7.16E-02
 cyc=128 err=8.38E-02 meth=d nvec=20 mix=0.0386 cpu=  17m ela=  19m fit=7.16E-02
 cyc=129 err=1.18E-01 meth=d nvec=20 mix=0.0350 cpu=  17m ela=  19m fit=7.16E-02
 cyc=130 err=9.57E-02 meth=d nvec=20 mix=0.0386 cpu=  17m ela=  19m fit=7.16E-02
 cyc=131 err=1.38E-01 meth=d nvec=20 mix=0.0350 cpu=  17m ela=  19m fit=7.16E-02
 cyc=132 err=1.73E-01 meth=d nvec=20 mix=0.0319 cpu=  17m ela=  19m fit=7.16E-02
 cyc=133 err=1.37E-01 meth=d nvec=20 mix=0.0319 cpu=  17m ela=  19m fit=7.16E-02
 cyc=134 err=1.15E-01 meth=d nvec=20 mix=0.0319 cpu=  17m ela=  19m fit=7.16E-02
 cyc=135 err=1.13E-01 meth=d nvec=20 mix=0.0350 cpu=  17m ela=  19m fit=7.16E-02
 cyc=136 err=1.05E-01 meth=d nvec=20 mix=0.0386 cpu=  17m ela=  19m fit=7.16E-02
 cyc=137 err=9.92E-02 meth=d nvec=20 mix=0.0424 cpu=  17m ela=  19m fit=7.16E-02
 cyc=138 err=1.04E-01 meth=d nvec=20 mix=0.0386 cpu=  17m ela=  19m fit=7.16E-02
 cyc=139 err=1.07E-01 meth=d nvec=20 mix=0.0350 cpu=  17m ela=  19m fit=7.16E-02
 cyc=140 err=1.02E-01 meth=d nvec=20 mix=0.0350 cpu=  17m ela=  19m fit=7.16E-02
 cyc=141 err=9.90E-02 meth=d nvec=20 mix=0.0350 cpu=  17m ela=  19m fit=7.16E-02
 cyc=142 err=1.32E-01 meth=d nvec=20 mix=0.0319 cpu=  17m ela=  19m fit=7.16E-02
 cyc=143 err=9.28E-02 meth=d nvec=20 mix=0.0350 cpu=  17m ela=  19m fit=7.16E-02
 cyc=144 err=8.45E-02 meth=d nvec=20 mix=0.0350 cpu=  17m ela=  19m fit=7.16E-02
 cyc=145 err=9.05E-02 meth=d nvec=20 mix=0.0319 cpu=  17m ela=  19m fit=7.16E-02
 cyc=146 err=8.72E-02 meth=d nvec=20 mix=0.0350 cpu=  17m ela=  19m fit=7.16E-02
 cyc=147 err=8.93E-02 meth=d nvec=20 mix=0.0319 cpu=  17m ela=  19m fit=7.16E-02
 cyc=148 err=1.30E-01 meth=d nvec=20 mix=0.0290 cpu=  17m ela=  19m fit=7.16E-02
 cyc=149 err=9.31E-02 meth=d nvec=20 mix=0.0290 cpu=  17m ela=  19m fit=7.16E-02
 cyc=150 err=9.43E-02 meth=d nvec=20 mix=0.0263 cpu=  17m ela=  19m fit=7.16E-02
 cyc=151 err=1.25E-01 meth=d nvec=20 mix=0.0239 cpu=  17m ela=  19m fit=7.16E-02
 cyc=152 err=1.28E-01 meth=d nvec=20 mix=0.0218 cpu=  17m ela=  19m fit=7.16E-02
 cyc=153 err=1.26E-01 meth=d nvec=20 mix=0.0218 cpu=  17m ela=  19m fit=7.16E-02
 cyc=154 err=1.26E-01 meth=d nvec=20 mix=0.0218 cpu=  17m ela=  19m fit=7.16E-02
 cyc=155 err=1.26E-01 meth=d nvec=20 mix=0.0198 cpu=  17m ela=  19m fit=7.16E-02
 cyc=156 err=9.40E-02 meth=d nvec=20 mix=0.0218 cpu=  17m ela=  19m fit=7.16E-02
 cyc=157 err=9.44E-02 meth=d nvec=20 mix=0.0198 cpu=  17m ela=  19m fit=7.16E-02
 cyc=158 err=9.07E-02 meth=d nvec=20 mix=0.0218 cpu=  17m ela=  19m fit=7.16E-02
 cyc=159 err=1.03E-01 meth=d nvec=20 mix=0.0198 cpu=  17m ela=  19m fit=7.16E-02
 cyc=160 err=8.89E-02 meth=d nvec=20 mix=0.0218 cpu=  17m ela=  19m fit=7.16E-02
 cyc=161 err=9.07E-02 meth=d nvec=20 mix=0.0198 cpu=  17m ela=  19m fit=7.16E-02
 cyc=162 err=9.02E-02 meth=d nvec=20 mix=0.0218 cpu=  17m ela=  19m fit=7.16E-02
 cyc=163 err=8.88E-02 meth=d nvec=20 mix=0.0218 cpu=  17m ela=  19m fit=7.16E-02
 cyc=164 err=8.90E-02 meth=d nvec=20 mix=0.0198 cpu=  17m ela=  19m fit=7.16E-02
 cyc=165 err=8.61E-02 meth=d nvec=20 mix=0.0218 cpu=  17m ela=  19m fit=7.16E-02
 cyc=166 err=8.73E-02 meth=d nvec=20 mix=0.0198 cpu=  17m ela=  19m fit=7.16E-02
 cyc=167 err=8.80E-02 meth=d nvec=20 mix=0.0180 cpu=  17m ela=  19m fit=7.16E-02
 cyc=168 err=8.66E-02 meth=d nvec=20 mix=0.0180 cpu=  17m ela=  19m fit=7.16E-02
 cyc=169 err=8.66E-02 meth=d nvec=20 mix=0.0164 cpu=  17m ela=  19m fit=7.16E-02
 cyc=170 err=1.45E-01 meth=d nvec=20 mix=0.0149 cpu=  17m ela=  19m fit=7.16E-02
 cyc=171 err=1.25E-01 meth=d nvec=20 mix=0.0149 cpu=  17m ela=  19m fit=7.16E-02
 cyc=172 err=1.27E-01 meth=d nvec=20 mix=0.0135 cpu=  17m ela=  19m fit=7.16E-02
 cyc=173 err=1.64E-01 meth=d nvec=20 mix=0.0123 cpu=  18m ela=  19m fit=7.16E-02
 cyc=174 err=1.31E-01 meth=d nvec=20 mix=0.0123 cpu=  17m ela=  19m fit=7.16E-02
