 argument  1 = /home/milias/Work/open-collection/theoretical_chemistry/projects/nmr_diplomovky/reference_compounds/tetramethylsilane/nwchem/TMS.geoptfreq_nmrshield_b3lyp_6-311++g2d_2p_cosmo-chcl3.nw
 


============================== echo of input deck ==============================
echo

start molecule

memory total 40 gb
print low

title "TMS"
charge 0

geometry units angstroms print xyz autosym
  load format xyz TMS.start_geom.xyz
end

basis
  * library 6-311++G(2d,2p)
end

dft
  grid huge
  xc b3lyp
  mult 1
  noprint "final vectors analysis"
end

driver
  clear
  tight
  linopt 0
  maxiter 999
  xyz TMS_geom
end

property
  giao
  shielding
end

cosmo
  solvent chcl3
end

task dft optimize
task dft freq
task dft property

================================================================================


                                         
                                         
 
 
             Northwest Computational Chemistry Package (NWChem) 7.0.1
             --------------------------------------------------------
 
 
                    Environmental Molecular Sciences Laboratory
                       Pacific Northwest National Laboratory
                                Richland, WA 99352
 
                              Copyright (c) 1994-2020
                       Pacific Northwest National Laboratory
                            Battelle Memorial Institute
 
             NWChem is an open-source computational chemistry package
                        distributed under the terms of the
                      Educational Community License (ECL) 2.0
             A copy of the license is included with this distribution
                              in the LICENSE.TXT file
 
                                  ACKNOWLEDGMENT
                                  --------------

            This software and its documentation were developed at the
            EMSL at Pacific Northwest National Laboratory, a multiprogram
            national laboratory, operated for the U.S. Department of Energy
            by Battelle under Contract Number DE-AC05-76RL01830. Support
            for this work was provided by the Department of Energy Office
            of Biological and Environmental Research, Office of Basic
            Energy Sciences, and the Office of Advanced Scientific Computing.


           Job information
           ---------------

    hostname        = comp06
    program         = /home/milias/Work/qch/software/nwchem_suite/nwchem_master/bin/LINUX64/nwchem
    date            = Mon Feb 22 21:35:43 2021

    compiled        = Sun_Jan_31_23:21:07_2021
    source          = /home/milias/Work/qch/software/nwchem_suite/nwchem_master
    nwchem branch   = 7.0.0
    nwchem revision = nwchem_on_git-2308-gc943026
    ga revision     = 5.8.0
    use scalapack   = F
    input           = /home/milias/Work/open-collection/theoretical_chemistry/projects/nmr_diplomovky/reference_compounds/tetramethylsilane/nwchem/TMS.geoptfreq_nmrshield_b3lyp_6-311++g2d_2p_cosmo-chcl3.nw
    prefix          = molecule.
    data base       = ./molecule.db
    status          = startup
    nproc           =       12
    time left       =     -1s



           Memory information
           ------------------

    heap     = 1342177276 doubles =  10240.0 Mbytes
    stack    = 1342177281 doubles =  10240.0 Mbytes
    global   = 2684354560 doubles =  20480.0 Mbytes (distinct from heap & stack)
    total    = 5368709117 doubles =  40960.0 Mbytes
    verify   = yes
    hardfail = no 


           Directory information
           ---------------------
 
  0 permanent = .
  0 scratch   = .
 
 
 
 
                                NWChem Input Module
                                -------------------
 
 
                                        TMS
                                        ---

 Scaling coordinates for geometry "geometry" by  1.889725989
 (inverse scale =  0.529177249)


          ------
          auto-z
          ------
  no constraints, skipping   0.000000000000000E+000
  no constraints, skipping   0.000000000000000E+000
 
 
                             Geometry "geometry" -> ""
                             -------------------------
 
 Output coordinates in angstroms (scale by  1.889725989 to convert to a.u.)
 
  No.       Tag          Charge          X              Y              Z
 ---- ---------------- ---------- -------------- -------------- --------------
    1 Si                  14.0000    -0.00009421    -0.00008395     0.00009845
    2 C                    6.0000     0.02476078     0.82119652    -1.68570999
    3 C                    6.0000     1.57840978    -0.98393837     0.23926547
    4 C                    6.0000    -1.47668201    -1.15030325     0.11342736
    5 C                    6.0000    -0.12638480     1.31314228     1.33281804
    6 H                    1.0000    -0.88863784     1.40163297    -1.84622249
    7 H                    1.0000     0.87999948     1.49776020    -1.77320556
    8 H                    1.0000     0.09825733     0.07201539    -2.47948996
    9 H                    1.0000     1.67227460    -1.75683373    -0.52921572
   10 H                    1.0000     2.45396357    -0.33091034     0.17665002
   11 H                    1.0000     1.58491077    -1.47209993     1.21837527
   12 H                    1.0000    -1.51039328    -1.64067502     1.09077981
   13 H                    1.0000    -2.40982226    -0.59601000    -0.02372167
   14 H                    1.0000    -1.42274607    -1.92552028    -0.65667975
   15 H                    1.0000    -0.14238086     0.85520748     2.32634158
   16 H                    1.0000     0.72697317     1.99616594     1.28445559
   17 H                    1.0000    -1.04170220     1.89985962     1.21174928
 
      Atomic Mass 
      ----------- 
 
      Si                27.976930
      C                 12.000000
      H                  1.007825
 

 Effective nuclear repulsion energy (a.u.)     246.5916752167

            Nuclear Dipole moment (a.u.) 
            ----------------------------
        X                 Y               Z
 ---------------- ---------------- ----------------
     0.0000000000     0.0000000000     0.0000000000
 


                                Z-matrix (autoz)
                                -------- 

 Units are Angstrom for bonds and degrees for angles
 
      Type          Name      I     J     K     L     M      Value
      ----------- --------  ----- ----- ----- ----- ----- ----------
    1 Stretch                  1     2                       1.87539
    2 Stretch                  1     3                       1.87533
    3 Stretch                  1     4                       1.87514
    4 Stretch                  1     5                       1.87527
    5 Stretch                  2     6                       1.09406
    6 Stretch                  2     7                       1.09400
    7 Stretch                  2     8                       1.09397
    8 Stretch                  3     9                       1.09396
    9 Stretch                  3    10                       1.09406
   10 Stretch                  3    11                       1.09407
   11 Stretch                  4    12                       1.09399
   12 Stretch                  4    13                       1.09398
   13 Stretch                  4    14                       1.09405
   14 Stretch                  5    15                       1.09410
   15 Stretch                  5    16                       1.09411
   16 Stretch                  5    17                       1.09394
   17 Bend                     1     2     6               110.68023
   18 Bend                     1     2     7               110.67596
   19 Bend                     1     2     8               110.68533
   20 Bend                     1     3     9               110.68880
   21 Bend                     1     3    10               110.68138
   22 Bend                     1     3    11               110.68423
   23 Bend                     1     4    12               110.68387
   24 Bend                     1     4    13               110.68960
   25 Bend                     1     4    14               110.68813
   26 Bend                     1     5    15               110.68509
   27 Bend                     1     5    16               110.68491
   28 Bend                     1     5    17               110.68828
   29 Bend                     2     1     3               109.46530
   30 Bend                     2     1     4               109.47466
   31 Bend                     2     1     5               109.45454
   32 Bend                     3     1     4               109.46914
   33 Bend                     3     1     5               109.47781
   34 Bend                     4     1     5               109.48587
   35 Bend                     6     2     7               108.22997
   36 Bend                     6     2     8               108.23778
   37 Bend                     7     2     8               108.23825
   38 Bend                     9     3    10               108.23031
   39 Bend                     9     3    11               108.23503
   40 Bend                    10     3    11               108.22720
   41 Bend                    12     4    13               108.22972
   42 Bend                    12     4    14               108.22587
   43 Bend                    13     4    14               108.22944
   44 Bend                    15     5    16               108.22997
   45 Bend                    15     5    17               108.22498
   46 Bend                    16     5    17               108.23355
   47 Torsion                  2     1     3     9         -60.00661
   48 Torsion                  2     1     3    10          59.99310
   49 Torsion                  2     1     3    11         179.98592
   50 Torsion                  2     1     4    12        -179.99589
   51 Torsion                  2     1     4    13         -59.99477
   52 Torsion                  2     1     4    14          60.00878
   53 Torsion                  2     1     5    15        -179.99612
   54 Torsion                  2     1     5    16         -59.99696
   55 Torsion                  2     1     5    17          60.00877
   56 Torsion                  3     1     2     6        -179.99207
   57 Torsion                  3     1     2     7         -60.00194
   58 Torsion                  3     1     2     8          60.00190
   59 Torsion                  3     1     4    12          60.01053
   60 Torsion                  3     1     4    13        -179.98835
   61 Torsion                  3     1     4    14         -59.98480
   62 Torsion                  3     1     5    15         -60.00955
   63 Torsion                  3     1     5    16          59.98961
   64 Torsion                  3     1     5    17         179.99534
   65 Torsion                  4     1     2     6          60.01200
   66 Torsion                  4     1     2     7        -179.99787
   67 Torsion                  4     1     2     8         -59.99403
   68 Torsion                  4     1     3     9          59.99271
   69 Torsion                  4     1     3    10         179.99241
   70 Torsion                  4     1     3    11         -60.01477
   71 Torsion                  4     1     5    15          60.00091
   72 Torsion                  4     1     5    16        -179.99993
   73 Torsion                  4     1     5    17         -59.99420
   74 Torsion                  5     1     2     6         -59.99783
   75 Torsion                  5     1     2     7          59.99230
   76 Torsion                  5     1     2     8         179.99613
   77 Torsion                  5     1     3     9        -179.98659
   78 Torsion                  5     1     3    10         -59.98688
   79 Torsion                  5     1     3    11          60.00594
   80 Torsion                  5     1     4    12         -60.00524
   81 Torsion                  5     1     4    13          59.99588
   82 Torsion                  5     1     4    14         179.99943
 
 
            XYZ format geometry
            -------------------
    17
 geometry
 Si                   -0.00009421    -0.00008395     0.00009845
 C                     0.02476078     0.82119652    -1.68570999
 C                     1.57840978    -0.98393837     0.23926547
 C                    -1.47668201    -1.15030325     0.11342736
 C                    -0.12638480     1.31314228     1.33281804
 H                    -0.88863784     1.40163297    -1.84622249
 H                     0.87999948     1.49776020    -1.77320556
 H                     0.09825733     0.07201539    -2.47948996
 H                     1.67227460    -1.75683373    -0.52921572
 H                     2.45396357    -0.33091034     0.17665002
 H                     1.58491077    -1.47209993     1.21837527
 H                    -1.51039328    -1.64067502     1.09077981
 H                    -2.40982226    -0.59601000    -0.02372167
 H                    -1.42274607    -1.92552028    -0.65667975
 H                    -0.14238086     0.85520748     2.32634158
 H                     0.72697317     1.99616594     1.28445559
 H                    -1.04170220     1.89985962     1.21174928
 
 ==============================================================================
                                internuclear distances
 ------------------------------------------------------------------------------
       center one      |      center two      | atomic units |  angstroms
 ------------------------------------------------------------------------------
    2 C                |   1 Si               |     3.54396  |     1.87539
    3 C                |   1 Si               |     3.54385  |     1.87533
    4 C                |   1 Si               |     3.54351  |     1.87514
    5 C                |   1 Si               |     3.54375  |     1.87527
    6 H                |   2 C                |     2.06747  |     1.09406
    7 H                |   2 C                |     2.06735  |     1.09400
    8 H                |   2 C                |     2.06730  |     1.09397
    9 H                |   3 C                |     2.06728  |     1.09396
   10 H                |   3 C                |     2.06747  |     1.09406
   11 H                |   3 C                |     2.06750  |     1.09407
   12 H                |   4 C                |     2.06735  |     1.09399
   13 H                |   4 C                |     2.06733  |     1.09398
   14 H                |   4 C                |     2.06745  |     1.09405
   15 H                |   5 C                |     2.06754  |     1.09410
   16 H                |   5 C                |     2.06757  |     1.09411
   17 H                |   5 C                |     2.06724  |     1.09394
 ------------------------------------------------------------------------------
                         number of included internuclear distances:         16
 ==============================================================================



 ==============================================================================
                                 internuclear angles
 ------------------------------------------------------------------------------
        center 1       |       center 2       |       center 3       |  degrees
 ------------------------------------------------------------------------------
    2 C                |   1 Si               |   3 C                |   109.47
    2 C                |   1 Si               |   4 C                |   109.47
    2 C                |   1 Si               |   5 C                |   109.45
    3 C                |   1 Si               |   4 C                |   109.47
    3 C                |   1 Si               |   5 C                |   109.48
    4 C                |   1 Si               |   5 C                |   109.49
    1 Si               |   2 C                |   6 H                |   110.68
    1 Si               |   2 C                |   7 H                |   110.68
    1 Si               |   2 C                |   8 H                |   110.69
    6 H                |   2 C                |   7 H                |   108.23
    6 H                |   2 C                |   8 H                |   108.24
    7 H                |   2 C                |   8 H                |   108.24
    1 Si               |   3 C                |   9 H                |   110.69
    1 Si               |   3 C                |  10 H                |   110.68
    1 Si               |   3 C                |  11 H                |   110.68
    9 H                |   3 C                |  10 H                |   108.23
    9 H                |   3 C                |  11 H                |   108.24
   10 H                |   3 C                |  11 H                |   108.23
    1 Si               |   4 C                |  12 H                |   110.68
    1 Si               |   4 C                |  13 H                |   110.69
    1 Si               |   4 C                |  14 H                |   110.69
   12 H                |   4 C                |  13 H                |   108.23
   12 H                |   4 C                |  14 H                |   108.23
   13 H                |   4 C                |  14 H                |   108.23
    1 Si               |   5 C                |  15 H                |   110.69
    1 Si               |   5 C                |  16 H                |   110.68
    1 Si               |   5 C                |  17 H                |   110.69
   15 H                |   5 C                |  16 H                |   108.23
   15 H                |   5 C                |  17 H                |   108.22
   16 H                |   5 C                |  17 H                |   108.23
 ------------------------------------------------------------------------------
                            number of included internuclear angles:         30
 ==============================================================================



  library name resolved from: environment
  library file name is: </usr/share/nwchem/libraries/>
  


 Summary of "ao basis" -> "" (cartesian)
 ------------------------------------------------------------------------------
       Tag                 Description            Shells   Functions and Types
 ---------------- ------------------------------  ------  ---------------------
 *                      6-311++G(2d,2p)               on all atoms 


 
  Deleted DRIVER restart files 
 
 
 
                           NWChem Geometry Optimization
                           ----------------------------
 
 
 
 
                                        TMS
 
 
  no constraints, skipping   0.000000000000000E+000
 maximum gradient threshold         (gmax) =   0.000015
 rms gradient threshold             (grms) =   0.000010
 maximum cartesian step threshold   (xmax) =   0.000060
 rms cartesian step threshold       (xrms) =   0.000040
 fixed trust radius                (trust) =   0.300000
 maximum step size to saddle      (sadstp) =   0.100000
 energy precision                  (eprec) =   5.0D-06
 maximum number of steps          (nptopt) =  999
 initial hessian option           (inhess) =    0
 line search option               (linopt) =    0
 hessian update option            (modupd) =    1
 saddle point option              (modsad) =    0
 initial eigen-mode to follow     (moddir) =    0
 initial variable to follow       (vardir) =    0
 follow first negative mode     (firstneg) =    T
 apply conjugacy                    (opcg) =    F
 source of zmatrix                         =   autoz   


          -------------------
          Energy Minimization
          -------------------

 
 Names of Z-matrix variables 
    1              2              3              4              5         
    6              7              8              9             10         
   11             12             13             14             15         
   16             17             18             19             20         
   21             22             23             24             25         
   26             27             28             29             30         
   31             32             33             34             35         
   36             37             38             39             40         
   41             42             43             44             45         
   46             47             48             49             50         
   51             52             53             54             55         
   56             57             58             59             60         
   61             62             63             64             65         
   66             67             68             69             70         
   71             72             73             74             75         
   76             77             78             79             80         
   81             82         
 
 Variables with the same non-blank name are constrained to be equal
 
 
 Using diagonal initial Hessian 
 Scaling for Hessian diagonals: bonds = 1.00  angles = 0.25  torsions = 0.10

          --------
          Step   0
          --------
 
                                 NWChem DFT Module
                                 -----------------
 
 
                                        TMS
 
 
                      Basis "ao basis" -> "ao basis" (cartesian)
                      -----
  Si (Silicon)
  ------------
            Exponent  Coefficients 
       -------------- ---------------------------------------------------------
  1 S  6.93792300E+04  0.000757
  1 S  1.03549400E+04  0.005932
  1 S  2.33387960E+03  0.031088
  1 S  6.57142950E+02  0.124967
  1 S  2.14301130E+02  0.386897
  1 S  7.76291680E+01  0.554888
 
  2 S  7.76291680E+01  0.177881
  2 S  3.06308070E+01  0.627765
  2 S  1.28012950E+01  0.247623
 
  3 S  3.92686600E+00  1.000000
 
  4 S  1.45234300E+00  1.000000
 
  5 S  2.56234000E-01  1.000000
 
  6 S  9.42790000E-02  1.000000
 
  7 P  3.35483190E+02  0.008866
  7 P  7.89003660E+01  0.068299
  7 P  2.49881500E+01  0.290958
  7 P  9.21971100E+00  0.732117
 
  8 P  3.62114000E+00  0.619879
  8 P  1.45131000E+00  0.439148
 
  9 P  5.04977000E-01  1.000000
 
 10 P  1.86317000E-01  1.000000
 
 11 P  6.54320000E-02  1.000000
 
 12 S  3.31000000E-02  1.000000
 
 13 P  3.31000000E-02  1.000000
 
 14 D  9.00000000E-01  1.000000
 
 15 D  2.25000000E-01  1.000000
 
  C (Carbon)
  ----------
            Exponent  Coefficients 
       -------------- ---------------------------------------------------------
  1 S  4.56324000E+03  0.001967
  1 S  6.82024000E+02  0.015231
  1 S  1.54973000E+02  0.076127
  1 S  4.44553000E+01  0.260801
  1 S  1.30290000E+01  0.616462
  1 S  1.82773000E+00  0.221006
 
  2 S  2.09642000E+01  0.114660
  2 S  4.80331000E+00  0.919999
  2 S  1.45933000E+00 -0.003031
 
  3 P  2.09642000E+01  0.040249
  3 P  4.80331000E+00  0.237594
  3 P  1.45933000E+00  0.815854
 
  4 S  4.83456000E-01  1.000000
 
  5 P  4.83456000E-01  1.000000
 
  6 S  1.45585000E-01  1.000000
 
  7 P  1.45585000E-01  1.000000
 
  8 S  4.38000000E-02  1.000000
 
  9 P  4.38000000E-02  1.000000
 
 10 D  1.25200000E+00  1.000000
 
 11 D  3.13000000E-01  1.000000
 
  H (Hydrogen)
  ------------
            Exponent  Coefficients 
       -------------- ---------------------------------------------------------
  1 S  3.38650000E+01  0.025494
  1 S  5.09479000E+00  0.190373
  1 S  1.15879000E+00  0.852161
 
  2 S  3.25840000E-01  1.000000
 
  3 S  1.02741000E-01  1.000000
 
  4 S  3.60000000E-02  1.000000
 
  5 P  1.50000000E+00  1.000000
 
  6 P  3.75000000E-01  1.000000
 


 Summary of "ao basis" -> "ao basis" (cartesian)
 ------------------------------------------------------------------------------
       Tag                 Description            Shells   Functions and Types
 ---------------- ------------------------------  ------  ---------------------
 Si                     6-311++G(2d,2p)             15       37   7s6p2d
 C                      6-311++G(2d,2p)             11       29   5s4p2d
 H                      6-311++G(2d,2p)              6       10   4s2p


 
 
 solvent parameters
 solvname_short: chcl3   
 solvname_long:  chloroform                         
 dielec:        4.7113
 dielecinf:     2.0906

          ---------------
          -cosmo- solvent
          ---------------
 Cosmo: York-Karplus, doi: 10.1021/jp992097l
 dielectric constant -eps-     =   4.71
 screen = (eps-1)/(eps    )    =   0.78774
 surface charge correction     = lagrangian
 -lineq- algorithm             =   0
 -bem- low  level              =   2
 -bem- from -octahedral-
 gaussian surface charge width =   0.98000
 degree of switching           =   1.00000
 switching function tolerance  =   0.00010
 atomic radii = 
 --------------
    1 14.000  2.457
    2  6.000  2.000
    3  6.000  2.000
    4  6.000  2.000
    5  6.000  2.000
    6  1.000  1.300
    7  1.000  1.300
    8  1.000  1.300
    9  1.000  1.300
   10  1.000  1.300
   11  1.000  1.300
   12  1.000  1.300
   13  1.000  1.300
   14  1.000  1.300
   15  1.000  1.300
   16  1.000  1.300
   17  1.000  1.300

 solvent accessible surface
 --------------------------

 ---------- ATOMIC COORDINATES (A.U.) ------------ VDWR(ANG.) --
     1   -0.00017802   -0.00015865    0.00018605     2.457
     2    0.04679108    1.55183640   -3.18552998     2.000
     3    2.98276198   -1.85937391    0.45214618     2.000
     4   -2.79052437   -2.17375795    0.21434664     2.000
     5   -0.23883264    2.48147910    2.51866088     2.000
     6   -1.67928203    2.64870224   -3.48885462     1.300
     7    1.66295789    2.83035637   -3.35087264     1.300
     8    0.18567942    0.13608936   -4.68555663     1.300
     9    3.16014078   -3.31993435   -1.00007270     1.300
    10    4.63731873   -0.62532987    0.33382013     1.300
    11    2.99504708   -2.78186549    2.30239541     1.300
    12   -2.85422944   -3.10042623    2.06127496     1.300
    13   -4.55390375   -1.12629558   -0.04482745     1.300
    14   -2.68860023   -3.63870572   -1.24094480     1.300
    15   -0.26906080    1.61610780    4.39614815     1.300
    16    1.37378009    3.77220665    2.42726910     1.300
    17   -1.96853172    3.59021410    2.28987410     1.300
 number of segments per atom =         32
 number of   points per atom =         32
 atom (   nspa,  nppa )
 ----------------------
    1 (      7,     0 )       0
    2 (     21,     0 )       0
    3 (     20,     0 )       0
    4 (     19,     0 )       0
    5 (     17,     0 )       0
    6 (     14,     0 )       0
    7 (     14,     0 )       0
    8 (     12,     0 )       0
    9 (     14,     0 )       0
   10 (     15,     0 )       0
   11 (     15,     0 )       0
   12 (     15,     0 )       0
   13 (     14,     0 )       0
   14 (     12,     0 )       0
   15 (     14,     0 )       0
   16 (     12,     0 )       0
   17 (     14,     0 )       0
 number of -cosmo- surface points =      249
 molecular surface =    144.253 angstrom**2
 molecular volume  =     80.660 angstrom**3
 G(cav/disp)       =      1.581 kcal/mol
 ...... end of -cosmo- initialization ......


  Caching 1-el integrals 
   Time after variat. SCF:      3.2
   Time prior to 1st pass:      3.2


         Total DFT energy =     -449.287255980493
      One electron energy =    -1104.402611972131
           Coulomb energy =      455.794153663958
    Exchange-Corr. energy =      -47.244151649557
 Nuclear repulsion energy =      246.591675216712

             COSMO energy =       -0.026321239475

 Numeric. integr. density =       50.000000184014

     Total iterative time =    792.0s


                                   COSMO solvation results
                                   -----------------------

                 gas phase energy =      -449.285955031338
                 sol phase energy =      -449.287255980493
 (electrostatic) solvation energy =         0.001300949155 (    0.82 kcal/mol)


                         DFT ENERGY GRADIENTS

    atom               coordinates                        gradient
                 x          y          z           x          y          z
   1 Si     -0.000178  -0.000159   0.000186    0.000021  -0.000021   0.000027
   2 C       0.046791   1.551836  -3.185530   -0.000059  -0.001408   0.002617
   3 C       2.982762  -1.859374   0.452146   -0.002655   0.001651  -0.000395
   4 C      -2.790524  -2.173758   0.214347    0.002495   0.002079  -0.000121
   5 C      -0.238833   2.481479   2.518661    0.000046  -0.002406  -0.002477
   6 H      -1.679282   2.648702  -3.488855   -0.001587   0.000580   0.000762
   7 H       1.662958   2.830356  -3.350873    0.001468   0.000692   0.000928
   8 H       0.185679   0.136089  -4.685557    0.000101  -0.001795  -0.000315
   9 H       3.160141  -3.319934  -1.000073   -0.000798  -0.000724  -0.001460
  10 H       4.637319  -0.625330   0.333820    0.000579   0.001717  -0.000241
  11 H       2.995047  -2.781865   2.302395   -0.000869  -0.000329   0.001532
  12 H      -2.854229  -3.100426   2.061275    0.000796  -0.000199   0.001559
  13 H      -4.553904  -1.126296  -0.044827   -0.000736   0.001560  -0.000273
  14 H      -2.688600  -3.638706  -1.240945    0.000964  -0.000687  -0.001440
  15 H      -0.269061   1.616108   4.396148    0.000043  -0.001478   0.001027
  16 H       1.373780   3.772207   2.427269    0.001609   0.000500  -0.000816
  17 H      -1.968532   3.590214   2.289874   -0.001419   0.000270  -0.000913
 
  no constraints, skipping   0.000000000000000E+000

@ Step       Energy      Delta E   Gmax     Grms     Xrms     Xmax   Walltime
@ ---- ---------------- -------- -------- -------- -------- -------- --------
@    0    -449.28725598  0.0D+00  0.00448  0.00118  0.00000  0.00000    933.1
                                                                    

  no constraints, skipping   0.000000000000000E+000
  no constraints, skipping   0.000000000000000E+000
  no constraints, skipping   0.000000000000000E+000
  no constraints, skipping   0.000000000000000E+000
  no constraints, skipping   0.000000000000000E+000
  no constraints, skipping   0.000000000000000E+000
  no constraints, skipping   0.000000000000000E+000
  no constraints, skipping   0.000000000000000E+000

          --------
          Step   1
          --------
 
                                 NWChem DFT Module
                                 -----------------
 
 
                                        TMS
 
 
 
 
 solvent parameters
 solvname_short: chcl3   
 solvname_long:  chloroform                         
 dielec:        4.7113
 dielecinf:     2.0906

          ---------------
          -cosmo- solvent
          ---------------
 Cosmo: York-Karplus, doi: 10.1021/jp992097l
 dielectric constant -eps-     =   4.71
 screen = (eps-1)/(eps    )    =   0.78774
 surface charge correction     = lagrangian
 -lineq- algorithm             =   0
 -bem- low  level              =   2
 -bem- from -octahedral-
 gaussian surface charge width =   0.98000
 degree of switching           =   1.00000
 switching function tolerance  =   0.00010
 atomic radii = 
 --------------
    1 14.000  2.457
    2  6.000  2.000
    3  6.000  2.000
    4  6.000  2.000
    5  6.000  2.000
    6  1.000  1.300
    7  1.000  1.300
    8  1.000  1.300
    9  1.000  1.300
   10  1.000  1.300
   11  1.000  1.300
   12  1.000  1.300
   13  1.000  1.300
   14  1.000  1.300
   15  1.000  1.300
   16  1.000  1.300
   17  1.000  1.300

 solvent accessible surface
 --------------------------

 ---------- ATOMIC COORDINATES (A.U.) ------------ VDWR(ANG.) --
     1   -0.00002837   -0.00006780    0.00008429     2.457
     2    0.04685045    1.55660416   -3.19543942     2.000
     3    2.99212414   -1.86479998    0.45373496     2.000
     4   -2.79915728   -2.18017962    0.21501459     2.000
     5   -0.23933483    2.48875352    2.52678113     2.000
     6   -1.67227488    2.65349422   -3.50792308     1.300
     7    1.65624521    2.83519093   -3.37149840     1.300
     8    0.18529076    0.15188541   -4.69998035     1.300
     9    3.17899922   -3.32583056   -0.99073848     1.300
    10    4.64957179   -0.64180911    0.33748839     1.300
    11    3.01295781   -2.78870263    2.29827261     1.300
    12   -2.87143365   -3.10952728    2.05551986     1.300
    13   -4.56387964   -1.14296813   -0.04260261     1.300
    14   -2.70705016   -3.64625916   -1.23338738     1.300
    15   -0.27008964    1.63320290    4.40381221     1.300
    16    1.36586157    3.78182114    2.44374500     1.300
    17   -1.96331846    3.60033625    2.30657948     1.300
 number of segments per atom =         32
 number of   points per atom =         32
 atom (   nspa,  nppa )
 ----------------------
    1 (      7,     0 )       0
    2 (     22,     0 )       0
    3 (     20,     0 )       0
    4 (     19,     0 )       0
    5 (     16,     0 )       0
    6 (     14,     0 )       0
    7 (     14,     0 )       0
    8 (     12,     0 )       0
    9 (     14,     0 )       0
   10 (     15,     0 )       0
   11 (     15,     0 )       0
   12 (     15,     0 )       0
   13 (     14,     0 )       0
   14 (     12,     0 )       0
   15 (     14,     0 )       0
   16 (     12,     0 )       0
   17 (     14,     0 )       0
 number of -cosmo- surface points =      249
 molecular surface =    144.454 angstrom**2
 molecular volume  =     80.841 angstrom**3
 G(cav/disp)       =      1.582 kcal/mol
 ...... end of -cosmo- initialization ......


  Caching 1-el integrals 
   Time after variat. SCF:    933.5
   Time prior to 1st pass:    933.5


         Total DFT energy =     -449.287514762878
      One electron energy =    -1103.264938363227
           Coulomb energy =      455.216989430667
    Exchange-Corr. energy =      -47.246742046899
 Nuclear repulsion energy =      246.026291164070

             COSMO energy =       -0.019114947489

 Numeric. integr. density =       50.000000239965

     Total iterative time =    664.8s


                                   COSMO solvation results
                                   -----------------------

                 gas phase energy =      -449.286281917269
                 sol phase energy =      -449.287514762878
 (electrostatic) solvation energy =         0.001232845608 (    0.77 kcal/mol)


                         DFT ENERGY GRADIENTS

    atom               coordinates                        gradient
                 x          y          z           x          y          z
   1 Si     -0.000028  -0.000068   0.000084   -0.000013  -0.000011   0.000080
   2 C       0.046850   1.556604  -3.195439   -0.000036  -0.000505   0.000877
   3 C       2.992124  -1.864800   0.453735   -0.000931   0.000598  -0.000109
   4 C      -2.799157  -2.180180   0.215015    0.000878   0.000749  -0.000054
   5 C      -0.239335   2.488754   2.526781    0.000030  -0.000874  -0.000895
   6 H      -1.672275   2.653494  -3.507923   -0.000033  -0.000079   0.000323
   7 H       1.656245   2.835191  -3.371498    0.000048  -0.000110   0.000336
   8 H       0.185291   0.151885  -4.699980   -0.000006  -0.000184   0.000273
   9 H       3.178999  -3.325831  -0.990738   -0.000280   0.000141  -0.000108
  10 H       4.649572  -0.641809   0.337488   -0.000228   0.000208  -0.000047
  11 H       3.012958  -2.788703   2.298273   -0.000267   0.000113  -0.000014
  12 H      -2.871434  -3.109527   2.055520    0.000275   0.000138   0.000013
  13 H      -4.563880  -1.142968  -0.042603    0.000194   0.000210  -0.000014
  14 H      -2.707050  -3.646259  -1.233387    0.000269   0.000161  -0.000081
  15 H      -0.270090   1.633203   4.403812    0.000028  -0.000217  -0.000145
  16 H       1.365862   3.781821   2.443745    0.000084  -0.000180  -0.000219
  17 H      -1.963318   3.600336   2.306579   -0.000014  -0.000160  -0.000216
 
  no constraints, skipping   0.000000000000000E+000

  Step       Energy      Delta E   Gmax     Grms     Xrms     Xmax   Walltime
  ---- ---------------- -------- -------- -------- -------- -------- --------
@    1    -449.28751476 -2.6D-04  0.00206  0.00046  0.01050  0.02068   1735.0
                                                                    

  no constraints, skipping   0.000000000000000E+000
  no constraints, skipping   0.000000000000000E+000
  no constraints, skipping   0.000000000000000E+000
  no constraints, skipping   0.000000000000000E+000
  no constraints, skipping   0.000000000000000E+000
  no constraints, skipping   0.000000000000000E+000
  no constraints, skipping   0.000000000000000E+000
  no constraints, skipping   0.000000000000000E+000

          --------
          Step   2
          --------
 
                                 NWChem DFT Module
                                 -----------------
 
 
                                        TMS
 
 
 
 
 solvent parameters
 solvname_short: chcl3   
 solvname_long:  chloroform                         
 dielec:        4.7113
 dielecinf:     2.0906

          ---------------
          -cosmo- solvent
          ---------------
 Cosmo: York-Karplus, doi: 10.1021/jp992097l
 dielectric constant -eps-     =   4.71
 screen = (eps-1)/(eps    )    =   0.78774
 surface charge correction     = lagrangian
 -lineq- algorithm             =   0
 -bem- low  level              =   2
 -bem- from -octahedral-
 gaussian surface charge width =   0.98000
 degree of switching           =   1.00000
 switching function tolerance  =   0.00010
 atomic radii = 
 --------------
    1 14.000  2.457
    2  6.000  2.000
    3  6.000  2.000
    4  6.000  2.000
    5  6.000  2.000
    6  1.000  1.300
    7  1.000  1.300
    8  1.000  1.300
    9  1.000  1.300
   10  1.000  1.300
   11  1.000  1.300
   12  1.000  1.300
   13  1.000  1.300
   14  1.000  1.300
   15  1.000  1.300
   16  1.000  1.300
   17  1.000  1.300

 solvent accessible surface
 --------------------------

 ---------- ATOMIC COORDINATES (A.U.) ------------ VDWR(ANG.) --
     1    0.00023034    0.00001817   -0.00017814     2.457
     2    0.04685062    1.56003242   -3.20288574     2.000
     3    2.99915337   -1.86870904    0.45489942     2.000
     4   -2.80551067   -2.18470078    0.21540344     2.000
     5   -0.23962455    2.49390863    2.53285340     2.000
     6   -1.67078704    2.65773528   -3.52039764     1.300
     7    1.65428921    2.84014437   -3.38497689     1.300
     8    0.18520278    0.15922214   -4.71105320     1.300
     9    3.19115483   -3.33165815   -0.98684009     1.300
    10    4.65963586   -0.64988635    0.33958558     1.300
    11    3.02417660   -2.79393249    2.29866410     1.300
    12   -2.88252370   -3.11597294    2.05467369     1.300
    13   -4.57237084   -1.15114287   -0.04183008     1.300
    14   -2.71860145   -3.65303352   -1.23085033     1.300
    15   -0.27071222    1.64175042    4.41128267     1.300
    16    1.36337421    3.78969082    2.45427378     1.300
    17   -1.96260332    3.60767816    2.31683883     1.300
 number of segments per atom =         32
 number of   points per atom =         32
 atom (   nspa,  nppa )
 ----------------------
    1 (      7,     0 )       0
    2 (     22,     0 )       0
    3 (     20,     0 )       0
    4 (     19,     0 )       0
    5 (     16,     0 )       0
    6 (     14,     0 )       0
    7 (     14,     0 )       0
    8 (     12,     0 )       0
    9 (     14,     0 )       0
   10 (     15,     0 )       0
   11 (     15,     0 )       0
   12 (     15,     0 )       0
   13 (     14,     0 )       0
   14 (     12,     0 )       0
   15 (     14,     0 )       0
   16 (     12,     0 )       0
   17 (     14,     0 )       0
 number of -cosmo- surface points =      249
 molecular surface =    144.625 angstrom**2
 molecular volume  =     80.948 angstrom**3
 G(cav/disp)       =      1.583 kcal/mol
 ...... end of -cosmo- initialization ......


  Caching 1-el integrals 
   Time after variat. SCF:   1735.4
   Time prior to 1st pass:   1735.4


         Total DFT energy =     -449.287557662260
      One electron energy =    -1102.314611504055
           Coulomb energy =      454.731666947179
    Exchange-Corr. energy =      -47.241479352822
 Nuclear repulsion energy =      245.551749510080

             COSMO energy =       -0.014883262642

 Numeric. integr. density =       50.000000325307

     Total iterative time =    666.0s


                                   COSMO solvation results
                                   -----------------------

                 gas phase energy =      -449.286353549705
                 sol phase energy =      -449.287557662260
 (electrostatic) solvation energy =         0.001204112554 (    0.76 kcal/mol)


                         DFT ENERGY GRADIENTS

    atom               coordinates                        gradient
                 x          y          z           x          y          z
   1 Si      0.000230   0.000018  -0.000178   -0.000031  -0.000006   0.000080
   2 C       0.046851   1.560032  -3.202886   -0.000018  -0.000190   0.000289
   3 C       2.999153  -1.868709   0.454899   -0.000308   0.000216  -0.000023
   4 C      -2.805511  -2.184701   0.215403    0.000286   0.000256  -0.000024
   5 C      -0.239625   2.493909   2.532853    0.000008  -0.000285  -0.000295
   6 H      -1.670787   2.657735  -3.520398    0.000133  -0.000019  -0.000015
   7 H       1.654289   2.840144  -3.384977   -0.000101  -0.000062  -0.000032
   8 H       0.185203   0.159222  -4.711053   -0.000013   0.000137   0.000043
   9 H       3.191155  -3.331658  -0.986840    0.000043   0.000078   0.000082
  10 H       4.659636  -0.649886   0.339586   -0.000059  -0.000122   0.000013
  11 H       3.024177  -2.793932   2.298664    0.000043   0.000008  -0.000135
  12 H      -2.882524  -3.115973   2.054674   -0.000017  -0.000007  -0.000133
  13 H      -4.572371  -1.151143  -0.041830    0.000066  -0.000112   0.000032
  14 H      -2.718601  -3.653034  -1.230850   -0.000052   0.000072   0.000092
  15 H      -0.270712   1.641750   4.411283    0.000007   0.000107  -0.000078
  16 H       1.363374   3.789691   2.454274   -0.000107  -0.000058   0.000049
  17 H      -1.962603   3.607678   2.316839    0.000121  -0.000015   0.000056
 
  no constraints, skipping   0.000000000000000E+000

  Step       Energy      Delta E   Gmax     Grms     Xrms     Xmax   Walltime
  ---- ---------------- -------- -------- -------- -------- -------- --------
@    2    -449.28755766 -4.3D-05  0.00037  0.00009  0.00672  0.01349   2538.4
                                                                    

  no constraints, skipping   0.000000000000000E+000
  no constraints, skipping   0.000000000000000E+000
  no constraints, skipping   0.000000000000000E+000

          --------
          Step   3
          --------
 
                                 NWChem DFT Module
                                 -----------------
 
 
                                        TMS
 
 
 
 
 solvent parameters
 solvname_short: chcl3   
 solvname_long:  chloroform                         
 dielec:        4.7113
 dielecinf:     2.0906

          ---------------
          -cosmo- solvent
          ---------------
 Cosmo: York-Karplus, doi: 10.1021/jp992097l
 dielectric constant -eps-     =   4.71
 screen = (eps-1)/(eps    )    =   0.78774
 surface charge correction     = lagrangian
 -lineq- algorithm             =   0
 -bem- low  level              =   2
 -bem- from -octahedral-
 gaussian surface charge width =   0.98000
 degree of switching           =   1.00000
 switching function tolerance  =   0.00010
 atomic radii = 
 --------------
    1 14.000  2.457
    2  6.000  2.000
    3  6.000  2.000
    4  6.000  2.000
    5  6.000  2.000
    6  1.000  1.300
    7  1.000  1.300
    8  1.000  1.300
    9  1.000  1.300
   10  1.000  1.300
   11  1.000  1.300
   12  1.000  1.300
   13  1.000  1.300
   14  1.000  1.300
   15  1.000  1.300
   16  1.000  1.300
   17  1.000  1.300

 solvent accessible surface
 --------------------------

 ---------- ATOMIC COORDINATES (A.U.) ------------ VDWR(ANG.) --
     1    0.00041478    0.00005596   -0.00036363     2.457
     2    0.04684269    1.56053579   -3.20423707     2.000
     3    3.00046304   -1.86930066    0.45504862     2.000
     4   -2.80657267   -2.18526165    0.21539711     2.000
     5   -0.23962819    2.49460459    2.53397269     2.000
     6   -1.67135710    2.65797736   -3.52160650     1.300
     7    1.65440853    2.84093982   -3.38643377     1.300
     8    0.18525123    0.15909917   -4.71223563     1.300
     9    3.19235183   -3.33259696   -0.98675721     1.300
    10    4.66093465   -0.64996929    0.33962923     1.300
    11    3.02516110   -2.79421791    2.29931405     1.300
    12   -2.88369052   -3.11616703    2.05516577     1.300
    13   -4.57328997   -1.15092533   -0.04208561     1.300
    14   -2.71969180   -3.65388068   -1.23098806     1.300
    15   -0.27072736    1.64151879    4.41231183     1.300
    16    1.36356098    3.79063015    2.45549488     1.300
    17   -1.96309717    3.60810214    2.31783609     1.300
 number of segments per atom =         32
 number of   points per atom =         32
 atom (   nspa,  nppa )
 ----------------------
    1 (      7,     0 )       0
    2 (     22,     0 )       0
    3 (     20,     0 )       0
    4 (     19,     0 )       0
    5 (     16,     0 )       0
    6 (     14,     0 )       0
    7 (     14,     0 )       0
    8 (     12,     0 )       0
    9 (     14,     0 )       0
   10 (     15,     0 )       0
   11 (     15,     0 )       0
   12 (     15,     0 )       0
   13 (     14,     0 )       0
   14 (     12,     0 )       0
   15 (     14,     0 )       0
   16 (     12,     0 )       0
   17 (     14,     0 )       0
 number of -cosmo- surface points =      249
 molecular surface =    144.650 angstrom**2
 molecular volume  =     80.961 angstrom**3
 G(cav/disp)       =      1.583 kcal/mol
 ...... end of -cosmo- initialization ......


  Caching 1-el integrals 
   Time after variat. SCF:   2538.8
   Time prior to 1st pass:   2538.8


         Total DFT energy =     -449.287558913414
      One electron energy =    -1102.162518083978
           Coulomb energy =      454.653767345248
    Exchange-Corr. energy =      -47.239917185269
 Nuclear repulsion energy =      245.475990372597

             COSMO energy =       -0.014881362011

 Numeric. integr. density =       50.000000327469

     Total iterative time =    663.2s


                                   COSMO solvation results
                                   -----------------------

                 gas phase energy =      -449.286353319757
                 sol phase energy =      -449.287558913414
 (electrostatic) solvation energy =         0.001205593657 (    0.76 kcal/mol)


                         DFT ENERGY GRADIENTS

    atom               coordinates                        gradient
                 x          y          z           x          y          z
   1 Si      0.000415   0.000056  -0.000364   -0.000027  -0.000005   0.000055
   2 C       0.046843   1.560536  -3.204237   -0.000010  -0.000123   0.000169
   3 C       3.000463  -1.869301   0.455049   -0.000179   0.000133  -0.000011
   4 C      -2.806573  -2.185262   0.215397    0.000166   0.000153  -0.000011
   5 C      -0.239628   2.494605   2.533973   -0.000004  -0.000163  -0.000173
   6 H      -1.671357   2.657977  -3.521606    0.000037   0.000036  -0.000030
   7 H       1.654409   2.840940  -3.386434   -0.000014   0.000004  -0.000040
   8 H       0.185251   0.159099  -4.712236   -0.000008   0.000057  -0.000032
   9 H       3.192352  -3.332597  -0.986757    0.000046   0.000004   0.000007
  10 H       4.660935  -0.649969   0.339629    0.000024  -0.000051   0.000009
  11 H       3.025161  -2.794218   2.299314    0.000040  -0.000038  -0.000034
  12 H      -2.883691  -3.116167   2.055166   -0.000021  -0.000047  -0.000037
  13 H      -4.573290  -1.150925  -0.042086   -0.000021  -0.000051   0.000020
  14 H      -2.719692  -3.653881  -1.230988   -0.000045  -0.000003   0.000012
  15 H      -0.270727   1.641519   4.412312    0.000003   0.000051   0.000016
  16 H       1.363561   3.790630   2.455495   -0.000018   0.000011   0.000041
  17 H      -1.963097   3.608102   2.317836    0.000032   0.000032   0.000039
 
  no constraints, skipping   0.000000000000000E+000

  Step       Energy      Delta E   Gmax     Grms     Xrms     Xmax   Walltime
  ---- ---------------- -------- -------- -------- -------- -------- --------
@    3    -449.28755891 -1.3D-06  0.00010  0.00003  0.00075  0.00146   3338.4
                                                                    

  no constraints, skipping   0.000000000000000E+000
  no constraints, skipping   0.000000000000000E+000
  no constraints, skipping   0.000000000000000E+000

          --------
          Step   4
          --------
 
                                 NWChem DFT Module
                                 -----------------
 
 
                                        TMS
 
 
 
 
 solvent parameters
 solvname_short: chcl3   
 solvname_long:  chloroform                         
 dielec:        4.7113
 dielecinf:     2.0906

          ---------------
          -cosmo- solvent
          ---------------
 Cosmo: York-Karplus, doi: 10.1021/jp992097l
 dielectric constant -eps-     =   4.71
 screen = (eps-1)/(eps    )    =   0.78774
 surface charge correction     = lagrangian
 -lineq- algorithm             =   0
 -bem- low  level              =   2
 -bem- from -octahedral-
 gaussian surface charge width =   0.98000
 degree of switching           =   1.00000
 switching function tolerance  =   0.00010
 atomic radii = 
 --------------
    1 14.000  2.457
    2  6.000  2.000
    3  6.000  2.000
    4  6.000  2.000
    5  6.000  2.000
    6  1.000  1.300
    7  1.000  1.300
    8  1.000  1.300
    9  1.000  1.300
   10  1.000  1.300
   11  1.000  1.300
   12  1.000  1.300
   13  1.000  1.300
   14  1.000  1.300
   15  1.000  1.300
   16  1.000  1.300
   17  1.000  1.300

 solvent accessible surface
 --------------------------

 ---------- ATOMIC COORDINATES (A.U.) ------------ VDWR(ANG.) --
     1    0.00063893    0.00009226   -0.00058400     2.457
     2    0.04682019    1.56073731   -3.20497729     2.000
     3    3.00119618   -1.86953314    0.45509216     2.000
     4   -2.80705795   -2.18533811    0.21533472     2.000
     5   -0.23958350    2.49474749    2.53458286     2.000
     6   -1.67194977    2.65758705   -3.52176437     1.300
     7    1.65440696    2.84125497   -3.38684222     1.300
     8    0.18532894    0.15849684   -4.71232490     1.300
     9    3.19256848   -3.33295832   -0.98673492     1.300
    10    4.66122574   -0.64950132    0.33945768     1.300
    11    3.02519521   -2.79379275    2.29977817     1.300
    12   -2.88399829   -3.11547430    2.05556962     1.300
    13   -4.57319091   -1.14994125   -0.04251042     1.300
    14   -2.71985794   -3.65398499   -1.23109349     1.300
    15   -0.27065081    1.64043655    4.41244916     1.300
    16    1.36373433    3.79070218    2.45594380     1.300
    17   -1.96349176    3.60761380    2.31808621     1.300
 number of segments per atom =         32
 number of   points per atom =         32
 atom (   nspa,  nppa )
 ----------------------
    1 (      7,     0 )       0
    2 (     22,     0 )       0
    3 (     20,     0 )       0
    4 (     19,     0 )       0
    5 (     16,     0 )       0
    6 (     14,     0 )       0
    7 (     14,     0 )       0
    8 (     12,     0 )       0
    9 (     14,     0 )       0
   10 (     15,     0 )       0
   11 (     15,     0 )       0
   12 (     15,     0 )       0
   13 (     14,     0 )       0
   14 (     12,     0 )       0
   15 (     14,     0 )       0
   16 (     12,     0 )       0
   17 (     14,     0 )       0
 number of -cosmo- surface points =      249
 molecular surface =    144.656 angstrom**2
 molecular volume  =     80.965 angstrom**3
 G(cav/disp)       =      1.583 kcal/mol
 ...... end of -cosmo- initialization ......


  Caching 1-el integrals 
   Time after variat. SCF:   3338.8
   Time prior to 1st pass:   3338.8


         Total DFT energy =     -449.287559319859
      One electron energy =    -1102.106950187704
           Coulomb energy =      454.625376241502
    Exchange-Corr. energy =      -47.239369241177
 Nuclear repulsion energy =      245.448657193578

             COSMO energy =       -0.015273326058

 Numeric. integr. density =       50.000000327060

     Total iterative time =    668.7s


                                   COSMO solvation results
                                   -----------------------

                 gas phase energy =      -449.286350447647
                 sol phase energy =      -449.287559319859
 (electrostatic) solvation energy =         0.001208872212 (    0.76 kcal/mol)


                         DFT ENERGY GRADIENTS

    atom               coordinates                        gradient
                 x          y          z           x          y          z
   1 Si      0.000639   0.000092  -0.000584   -0.000021  -0.000004   0.000030
   2 C       0.046820   1.560737  -3.204977   -0.000005  -0.000051   0.000043
   3 C       3.001196  -1.869533   0.455092   -0.000049   0.000050   0.000004
   4 C      -2.807058  -2.185338   0.215335    0.000049   0.000050  -0.000001
   5 C      -0.239583   2.494747   2.534583   -0.000010  -0.000047  -0.000056
   6 H      -1.671950   2.657587  -3.521764   -0.000005   0.000042  -0.000007
   7 H       1.654407   2.841255  -3.386842    0.000022   0.000017  -0.000015
   8 H       0.185329   0.158497  -4.712325   -0.000008   0.000006  -0.000031
   9 H       3.192568  -3.332958  -0.986735    0.000019  -0.000012  -0.000027
  10 H       4.661226  -0.649501   0.339458    0.000030  -0.000001   0.000005
  11 H       3.025195  -2.793793   2.299778    0.000011  -0.000038   0.000005
  12 H      -2.883998  -3.115474   2.055570    0.000000  -0.000041   0.000004
  13 H      -4.573191  -1.149941  -0.042510   -0.000031  -0.000003   0.000014
  14 H      -2.719858  -3.653985  -1.231093   -0.000017  -0.000013  -0.000025
  15 H      -0.270651   1.640437   4.412449    0.000001   0.000003   0.000033
  16 H       1.363734   3.790702   2.455944    0.000020   0.000016   0.000015
  17 H      -1.963492   3.607614   2.318086   -0.000005   0.000027   0.000009
 
  no constraints, skipping   0.000000000000000E+000

  Step       Energy      Delta E   Gmax     Grms     Xrms     Xmax   Walltime
  ---- ---------------- -------- -------- -------- -------- -------- --------
@    4    -449.28755932 -4.1D-07  0.00003  0.00001  0.00039  0.00108   4144.0
                                                                    

  no constraints, skipping   0.000000000000000E+000
  no constraints, skipping   0.000000000000000E+000
  no constraints, skipping   0.000000000000000E+000

          --------
          Step   5
          --------
 
                                 NWChem DFT Module
                                 -----------------
 
 
                                        TMS
 
 
 
 
 solvent parameters
 solvname_short: chcl3   
 solvname_long:  chloroform                         
 dielec:        4.7113
 dielecinf:     2.0906

          ---------------
          -cosmo- solvent
          ---------------
 Cosmo: York-Karplus, doi: 10.1021/jp992097l
 dielectric constant -eps-     =   4.71
 screen = (eps-1)/(eps    )    =   0.78774
 surface charge correction     = lagrangian
 -lineq- algorithm             =   0
 -bem- low  level              =   2
 -bem- from -octahedral-
 gaussian surface charge width =   0.98000
 degree of switching           =   1.00000
 switching function tolerance  =   0.00010
 atomic radii = 
 --------------
    1 14.000  2.457
    2  6.000  2.000
    3  6.000  2.000
    4  6.000  2.000
    5  6.000  2.000
    6  1.000  1.300
    7  1.000  1.300
    8  1.000  1.300
    9  1.000  1.300
   10  1.000  1.300
   11  1.000  1.300
   12  1.000  1.300
   13  1.000  1.300
   14  1.000  1.300
   15  1.000  1.300
   16  1.000  1.300
   17  1.000  1.300

 solvent accessible surface
 --------------------------

 ---------- ATOMIC COORDINATES (A.U.) ------------ VDWR(ANG.) --
     1    0.00080793    0.00011820   -0.00074539     2.457
     2    0.04679442    1.56077247   -3.20523445     2.000
     3    3.00145659   -1.86956313    0.45507833     2.000
     4   -2.80715598   -2.18519715    0.21526990     2.000
     5   -0.23953138    2.49462198    2.53479109     2.000
     6   -1.67228241    2.65712753   -3.52171809     1.300
     7    1.65423629    2.84139124   -3.38693298     1.300
     8    0.18543444    0.15816626   -4.71216638     1.300
     9    3.19254569   -3.33310034   -0.98659072     1.300
    10    4.66119869   -0.64924596    0.33925119     1.300
    11    3.02509110   -2.79329679    2.29997525     1.300
    12   -2.88411635   -3.11473353    2.05574665     1.300
    13   -4.57286113   -1.14923795   -0.04290181     1.300
    14   -2.71981423   -3.65390674   -1.23100288     1.300
    15   -0.27055060    1.63961530    4.41228888     1.300
    16    1.36372980    3.79055363    2.45614834     1.300
    17   -1.96364881    3.60705922    2.31820584     1.300
 number of segments per atom =         32
 number of   points per atom =         32
 atom (   nspa,  nppa )
 ----------------------
    1 (      7,     0 )       0
    2 (     22,     0 )       0
    3 (     20,     0 )       0
    4 (     19,     0 )       0
    5 (     16,     0 )       0
    6 (     14,     0 )       0
    7 (     14,     0 )       0
    8 (     12,     0 )       0
    9 (     14,     0 )       0
   10 (     15,     0 )       0
   11 (     15,     0 )       0
   12 (     15,     0 )       0
   13 (     14,     0 )       0
   14 (     12,     0 )       0
   15 (     14,     0 )       0
   16 (     12,     0 )       0
   17 (     14,     0 )       0
 number of -cosmo- surface points =      249
 molecular surface =    144.653 angstrom**2
 molecular volume  =     80.965 angstrom**3
 G(cav/disp)       =      1.583 kcal/mol
 ...... end of -cosmo- initialization ......


  Caching 1-el integrals 
   Time after variat. SCF:   4144.4
   Time prior to 1st pass:   4144.4


         Total DFT energy =     -449.287559461461
      One electron energy =    -1102.102708093587
           Coulomb energy =      454.623280739948
    Exchange-Corr. energy =      -47.239413249968
 Nuclear repulsion energy =      245.446799476696

             COSMO energy =       -0.015518334550

 Numeric. integr. density =       50.000000326266

     Total iterative time =    666.7s


                                   COSMO solvation results
                                   -----------------------

                 gas phase energy =      -449.286348957989
                 sol phase energy =      -449.287559461461
 (electrostatic) solvation energy =         0.001210503471 (    0.76 kcal/mol)


                         DFT ENERGY GRADIENTS

    atom               coordinates                        gradient
                 x          y          z           x          y          z
   1 Si      0.000808   0.000118  -0.000745   -0.000014  -0.000002   0.000014
   2 C       0.046794   1.560772  -3.205234   -0.000002  -0.000012  -0.000021
   3 C       3.001457  -1.869563   0.455078    0.000017   0.000006   0.000011
   4 C      -2.807156  -2.185197   0.215270   -0.000008  -0.000003   0.000004
   5 C      -0.239531   2.494622   2.534791   -0.000011   0.000011   0.000003
   6 H      -1.672282   2.657128  -3.521718   -0.000002   0.000026   0.000010
   7 H       1.654236   2.841391  -3.386933    0.000015   0.000002   0.000003
   8 H       0.185434   0.158166  -4.712166   -0.000011  -0.000001  -0.000008
   9 H       3.192546  -3.333100  -0.986591    0.000002   0.000002  -0.000024
  10 H       4.661199  -0.649246   0.339251    0.000007   0.000007   0.000005
  11 H       3.025091  -2.793297   2.299975   -0.000006  -0.000023  -0.000003
  12 H      -2.884116  -3.114734   2.055747    0.000013  -0.000024  -0.000001
  13 H      -4.572861  -1.149238  -0.042902   -0.000011   0.000008   0.000015
  14 H      -2.719814  -3.653907  -1.231003   -0.000005   0.000004  -0.000023
  15 H      -0.270551   1.639615   4.412289    0.000000  -0.000009   0.000013
  16 H       1.363730   3.790554   2.456148    0.000016  -0.000001   0.000003
  17 H      -1.963649   3.607059   2.318206   -0.000001   0.000009  -0.000002
 
  no constraints, skipping   0.000000000000000E+000

  Step       Energy      Delta E   Gmax     Grms     Xrms     Xmax   Walltime
  ---- ---------------- -------- -------- -------- -------- -------- --------
@    5    -449.28755946 -1.4D-07  0.00002  0.00001  0.00027  0.00082   4946.9
                                              ok                    

  no constraints, skipping   0.000000000000000E+000
  no constraints, skipping   0.000000000000000E+000
  no constraints, skipping   0.000000000000000E+000

          --------
          Step   6
          --------
 
                                 NWChem DFT Module
                                 -----------------
 
 
                                        TMS
 
 
 
 
 solvent parameters
 solvname_short: chcl3   
 solvname_long:  chloroform                         
 dielec:        4.7113
 dielecinf:     2.0906

          ---------------
          -cosmo- solvent
          ---------------
 Cosmo: York-Karplus, doi: 10.1021/jp992097l
 dielectric constant -eps-     =   4.71
 screen = (eps-1)/(eps    )    =   0.78774
 surface charge correction     = lagrangian
 -lineq- algorithm             =   0
 -bem- low  level              =   2
 -bem- from -octahedral-
 gaussian surface charge width =   0.98000
 degree of switching           =   1.00000
 switching function tolerance  =   0.00010
 atomic radii = 
 --------------
    1 14.000  2.457
    2  6.000  2.000
    3  6.000  2.000
    4  6.000  2.000
    5  6.000  2.000
    6  1.000  1.300
    7  1.000  1.300
    8  1.000  1.300
    9  1.000  1.300
   10  1.000  1.300
   11  1.000  1.300
   12  1.000  1.300
   13  1.000  1.300
   14  1.000  1.300
   15  1.000  1.300
   16  1.000  1.300
   17  1.000  1.300

 solvent accessible surface
 --------------------------

 ---------- ATOMIC COORDINATES (A.U.) ------------ VDWR(ANG.) --
     1    0.00096713    0.00014142   -0.00089428     2.457
     2    0.04677189    1.56079320   -3.20537245     2.000
     3    3.00158766   -1.86955798    0.45504751     2.000
     4   -2.80715169   -2.18499917    0.21521106     2.000
     5   -0.23947612    2.49441448    2.53489652     2.000
     6   -1.67256099    2.65668674   -3.52176127     1.300
     7    1.65398051    2.84162781   -3.38707554     1.300
     8    0.18561064    0.15802568   -4.71208059     1.300
     9    3.19253432   -3.33330950   -0.98635085     1.300
    10    4.66121118   -0.64917619    0.33899479     1.300
    11    3.02507301   -2.79281440    2.30013553     1.300
    12   -2.88433042   -3.11399273    2.05590034     1.300
    13   -4.57256236   -1.14871016   -0.04334703     1.300
    14   -2.71978940   -3.65391376   -1.23077960     1.300
    15   -0.27042412    1.63893975    4.41213718     1.300
    16    1.36364696    3.79044224    2.45638691     1.300
    17   -1.96375416    3.60654683    2.31841454     1.300
 number of segments per atom =         32
 number of   points per atom =         32
 atom (   nspa,  nppa )
 ----------------------
    1 (      7,     0 )       0
    2 (     22,     0 )       0
    3 (     20,     0 )       0
    4 (     19,     0 )       0
    5 (     16,     0 )       0
    6 (     14,     0 )       0
    7 (     14,     0 )       0
    8 (     12,     0 )       0
    9 (     14,     0 )       0
   10 (     15,     0 )       0
   11 (     15,     0 )       0
   12 (     15,     0 )       0
   13 (     14,     0 )       0
   14 (     12,     0 )       0
   15 (     14,     0 )       0
   16 (     12,     0 )       0
   17 (     14,     0 )       0
 number of -cosmo- surface points =      249
 molecular surface =    144.650 angstrom**2
 molecular volume  =     80.963 angstrom**3
 G(cav/disp)       =      1.583 kcal/mol
 ...... end of -cosmo- initialization ......


  Caching 1-el integrals 
   Time after variat. SCF:   4947.4
   Time prior to 1st pass:   4947.4


         Total DFT energy =     -449.287559554137
      One electron energy =    -1102.106944115118
           Coulomb energy =      454.625496660382
    Exchange-Corr. energy =      -47.239515768853
 Nuclear repulsion energy =      245.449040440331

             COSMO energy =       -0.015636770879

 Numeric. integr. density =       50.000000325308

     Total iterative time =    665.7s


                                   COSMO solvation results
                                   -----------------------

                 gas phase energy =      -449.286348342072
                 sol phase energy =      -449.287559554137
 (electrostatic) solvation energy =         0.001211212066 (    0.76 kcal/mol)


                         DFT ENERGY GRADIENTS

    atom               coordinates                        gradient
                 x          y          z           x          y          z
   1 Si      0.000967   0.000141  -0.000894   -0.000009  -0.000002   0.000005
   2 C       0.046772   1.560793  -3.205372   -0.000002   0.000006  -0.000045
   3 C       3.001588  -1.869558   0.455048    0.000043  -0.000013   0.000014
   4 C      -2.807152  -2.184999   0.215211   -0.000031  -0.000028   0.000006
   5 C      -0.239476   2.494414   2.534897   -0.000009   0.000036   0.000027
   6 H      -1.672561   2.656687  -3.521761    0.000006   0.000014   0.000018
   7 H       1.653981   2.841628  -3.387076    0.000007  -0.000008   0.000010
   8 H       0.185611   0.158026  -4.712081   -0.000013   0.000002   0.000008
   9 H       3.192534  -3.333310  -0.986351   -0.000005   0.000013  -0.000017
  10 H       4.661211  -0.649176   0.338995   -0.000009   0.000005   0.000006
  11 H       3.025073  -2.792814   2.300136   -0.000013  -0.000012  -0.000013
  12 H      -2.884330  -3.113993   2.055900    0.000018  -0.000011  -0.000010
  13 H      -4.572562  -1.148710  -0.043347    0.000005   0.000009   0.000016
  14 H      -2.719789  -3.653914  -1.230780   -0.000001   0.000018  -0.000016
  15 H      -0.270424   1.638940   4.412137   -0.000001  -0.000012  -0.000003
  16 H       1.363647   3.790442   2.456387    0.000007  -0.000014  -0.000001
  17 H      -1.963754   3.606547   2.318415    0.000006  -0.000004  -0.000005
 
  no constraints, skipping   0.000000000000000E+000

  Step       Energy      Delta E   Gmax     Grms     Xrms     Xmax   Walltime
  ---- ---------------- -------- -------- -------- -------- -------- --------
@    6    -449.28755955 -9.3D-08  0.00002  0.00001  0.00025  0.00074   5748.5
                                              ok                    

  no constraints, skipping   0.000000000000000E+000
  no constraints, skipping   0.000000000000000E+000
  no constraints, skipping   0.000000000000000E+000

          --------
          Step   7
          --------
 
                                 NWChem DFT Module
                                 -----------------
 
 
                                        TMS
 
 
 
 
 solvent parameters
 solvname_short: chcl3   
 solvname_long:  chloroform                         
 dielec:        4.7113
 dielecinf:     2.0906

          ---------------
          -cosmo- solvent
          ---------------
 Cosmo: York-Karplus, doi: 10.1021/jp992097l
 dielectric constant -eps-     =   4.71
 screen = (eps-1)/(eps    )    =   0.78774
 surface charge correction     = lagrangian
 -lineq- algorithm             =   0
 -bem- low  level              =   2
 -bem- from -octahedral-
 gaussian surface charge width =   0.98000
 degree of switching           =   1.00000
 switching function tolerance  =   0.00010
 atomic radii = 
 --------------
    1 14.000  2.457
    2  6.000  2.000
    3  6.000  2.000
    4  6.000  2.000
    5  6.000  2.000
    6  1.000  1.300
    7  1.000  1.300
    8  1.000  1.300
    9  1.000  1.300
   10  1.000  1.300
   11  1.000  1.300
   12  1.000  1.300
   13  1.000  1.300
   14  1.000  1.300
   15  1.000  1.300
   16  1.000  1.300
   17  1.000  1.300

 solvent accessible surface
 --------------------------

 ---------- ATOMIC COORDINATES (A.U.) ------------ VDWR(ANG.) --
     1    0.00131153    0.00019222   -0.00121109     2.457
     2    0.04672402    1.56085582   -3.20560635     2.000
     3    3.00180512   -1.86955095    0.45496138     2.000
     4   -2.80709787   -2.18453721    0.21507541     2.000
     5   -0.23934460    2.49392002    2.53508242     2.000
     6   -1.67319305    2.65572719   -3.52198874     1.300
     7    1.65332236    2.84233413   -3.38741488     1.300
     8    0.18613563    0.15790581   -4.71203022     1.300
     9    3.19251161   -3.33393574   -0.98573017     1.300
    10    4.66135664   -0.64921942    0.33830424     1.300
    11    3.02519557   -2.79176769    2.30051242     1.300
    12   -2.88500196   -3.11233976    2.05627042     1.300
    13   -4.57200697   -1.14772845   -0.04448693     1.300
    14   -2.71974555   -3.65411437   -1.23014791     1.300
    15   -0.27008286    1.63760060    4.41188952     1.300
    16    1.36341920    3.79030725    2.45696913     1.300
    17   -1.96397478    3.60549481    2.31901413     1.300
 number of segments per atom =         32
 number of   points per atom =         32
 atom (   nspa,  nppa )
 ----------------------
    1 (      7,     0 )       0
    2 (     22,     0 )       0
    3 (     20,     0 )       0
    4 (     19,     0 )       0
    5 (     16,     0 )       0
    6 (     14,     0 )       0
    7 (     14,     0 )       0
    8 (     12,     0 )       0
    9 (     14,     0 )       0
   10 (     15,     0 )       0
   11 (     15,     0 )       0
   12 (     15,     0 )       0
   13 (     14,     0 )       0
   14 (     12,     0 )       0
   15 (     14,     0 )       0
   16 (     12,     0 )       0
   17 (     14,     0 )       0
 number of -cosmo- surface points =      249
 molecular surface =    144.642 angstrom**2
 molecular volume  =     80.959 angstrom**3
 G(cav/disp)       =      1.583 kcal/mol
 ...... end of -cosmo- initialization ......


  Caching 1-el integrals 
   Time after variat. SCF:   5748.9
   Time prior to 1st pass:   5748.9


         Total DFT energy =     -449.287559709508
      One electron energy =    -1102.116326868574
           Coulomb energy =      454.630355464599
    Exchange-Corr. energy =      -47.239673116493
 Nuclear repulsion energy =      245.453856646573

             COSMO energy =       -0.015771835613

 Numeric. integr. density =       50.000000324981

     Total iterative time =    662.6s


                                   COSMO solvation results
                                   -----------------------

                 gas phase energy =      -449.286347685864
                 sol phase energy =      -449.287559709508
 (electrostatic) solvation energy =         0.001212023644 (    0.76 kcal/mol)


                         DFT ENERGY GRADIENTS

    atom               coordinates                        gradient
                 x          y          z           x          y          z
   1 Si      0.001312   0.000192  -0.001211    0.000002   0.000000  -0.000011
   2 C       0.046724   1.560856  -3.205606   -0.000001   0.000028  -0.000059
   3 C       3.001805  -1.869551   0.454961    0.000062  -0.000033   0.000012
   4 C      -2.807098  -2.184537   0.215075   -0.000047  -0.000054   0.000009
   5 C      -0.239345   2.493920   2.535082   -0.000005   0.000058   0.000048
   6 H      -1.673193   2.655727  -3.521989    0.000015  -0.000003   0.000025
   7 H       1.653322   2.842334  -3.387415   -0.000004  -0.000021   0.000013
   8 H       0.186136   0.157906  -4.712030   -0.000016   0.000007   0.000026
   9 H       3.192512  -3.333936  -0.985730   -0.000010   0.000026  -0.000005
  10 H       4.661357  -0.649219   0.338304   -0.000027   0.000001   0.000009
  11 H       3.025196  -2.791768   2.300512   -0.000020   0.000003  -0.000025
  12 H      -2.885002  -3.112340   2.056270    0.000020   0.000006  -0.000021
  13 H      -4.572007  -1.147728  -0.044487    0.000024   0.000010   0.000017
  14 H      -2.719746  -3.654114  -1.230148    0.000000   0.000034  -0.000006
  15 H      -0.270083   1.637601   4.411890   -0.000003  -0.000014  -0.000023
  16 H       1.363419   3.790307   2.456969   -0.000006  -0.000028  -0.000003
  17 H      -1.963975   3.605495   2.319014    0.000016  -0.000020  -0.000006
 
  no constraints, skipping   0.000000000000000E+000

  Step       Energy      Delta E   Gmax     Grms     Xrms     Xmax   Walltime
  ---- ---------------- -------- -------- -------- -------- -------- --------
@    7    -449.28755971 -1.6D-07  0.00002  0.00001  0.00057  0.00165   6548.7
                                              ok                    

  no constraints, skipping   0.000000000000000E+000
  no constraints, skipping   0.000000000000000E+000
  no constraints, skipping   0.000000000000000E+000

          --------
          Step   8
          --------
 
                                 NWChem DFT Module
                                 -----------------
 
 
                                        TMS
 
 
 
 
 solvent parameters
 solvname_short: chcl3   
 solvname_long:  chloroform                         
 dielec:        4.7113
 dielecinf:     2.0906

          ---------------
          -cosmo- solvent
          ---------------
 Cosmo: York-Karplus, doi: 10.1021/jp992097l
 dielectric constant -eps-     =   4.71
 screen = (eps-1)/(eps    )    =   0.78774
 surface charge correction     = lagrangian
 -lineq- algorithm             =   0
 -bem- low  level              =   2
 -bem- from -octahedral-
 gaussian surface charge width =   0.98000
 degree of switching           =   1.00000
 switching function tolerance  =   0.00010
 atomic radii = 
 --------------
    1 14.000  2.457
    2  6.000  2.000
    3  6.000  2.000
    4  6.000  2.000
    5  6.000  2.000
    6  1.000  1.300
    7  1.000  1.300
    8  1.000  1.300
    9  1.000  1.300
   10  1.000  1.300
   11  1.000  1.300
   12  1.000  1.300
   13  1.000  1.300
   14  1.000  1.300
   15  1.000  1.300
   16  1.000  1.300
   17  1.000  1.300

 solvent accessible surface
 --------------------------

 ---------- ATOMIC COORDINATES (A.U.) ------------ VDWR(ANG.) --
     1    0.00176959    0.00026227   -0.00162574     2.457
     2    0.04666205    1.56100108   -3.20587414     2.000
     3    3.00205035   -1.86958831    0.45481611     2.000
     4   -2.80701820   -2.18390997    0.21487780     2.000
     5   -0.23914593    2.49323817    2.53533031     2.000
     6   -1.67412805    2.65439122   -3.52247066     1.300
     7    1.65228467    2.84361507   -3.38782725     1.300
     8    0.18710978    0.15797817   -4.71211672     1.300
     9    3.19238400   -3.33506098   -0.98476091     1.300
    10    4.66170427   -0.64953503    0.33710079     1.300
    11    3.02558648   -2.79031767    2.30108520     1.300
    12   -2.88622268   -3.10998077    2.05685781     1.300
    13   -4.57138619   -1.14661902   -0.04636462     1.300
    14   -2.71961321   -3.65468223   -1.22907113     1.300
    15   -0.26948648    1.63593874    4.41168223     1.300
    16    1.36306709    3.79027689    2.45780025     1.300
    17   -1.96428349    3.60413662    2.32002346     1.300
 number of segments per atom =         32
 number of   points per atom =         32
 atom (   nspa,  nppa )
 ----------------------
    1 (      7,     0 )       0
    2 (     22,     0 )       0
    3 (     20,     0 )       0
    4 (     19,     0 )       0
    5 (     16,     0 )       0
    6 (     14,     0 )       0
    7 (     14,     0 )       0
    8 (     12,     0 )       0
    9 (     14,     0 )       0
   10 (     15,     0 )       0
   11 (     15,     0 )       0
   12 (     15,     0 )       0
   13 (     14,     0 )       0
   14 (     12,     0 )       0
   15 (     14,     0 )       0
   16 (     12,     0 )       0
   17 (     14,     0 )       0
 number of -cosmo- surface points =      249
 molecular surface =    144.633 angstrom**2
 molecular volume  =     80.953 angstrom**3
 G(cav/disp)       =      1.583 kcal/mol
 ...... end of -cosmo- initialization ......


  Caching 1-el integrals 
   Time after variat. SCF:   6549.1
   Time prior to 1st pass:   6549.1


         Total DFT energy =     -449.287559879293
      One electron energy =    -1102.124713141460
           Coulomb energy =      454.634675902874
    Exchange-Corr. energy =      -47.239775932605
 Nuclear repulsion energy =      245.458089668958

             COSMO energy =       -0.015836377060

 Numeric. integr. density =       50.000000325421

     Total iterative time =    669.5s


                                   COSMO solvation results
                                   -----------------------

                 gas phase energy =      -449.286347389073
                 sol phase energy =      -449.287559879293
 (electrostatic) solvation energy =         0.001212490221 (    0.76 kcal/mol)


                         DFT ENERGY GRADIENTS

    atom               coordinates                        gradient
                 x          y          z           x          y          z
   1 Si      0.001770   0.000262  -0.001626    0.000017   0.000001  -0.000029
   2 C       0.046662   1.561001  -3.205874    0.000001   0.000042  -0.000048
   3 C       3.002050  -1.869588   0.454816    0.000056  -0.000040   0.000005
   4 C      -2.807018  -2.183910   0.214878   -0.000041  -0.000065   0.000011
   5 C      -0.239146   2.493238   2.535330    0.000002   0.000060   0.000047
   6 H      -1.674128   2.654391  -3.522471    0.000019  -0.000015   0.000024
   7 H       1.652285   2.843615  -3.387827   -0.000011  -0.000028   0.000009
   8 H       0.187110   0.157978  -4.712117   -0.000019   0.000010   0.000034
   9 H       3.192384  -3.335061  -0.984761   -0.000009   0.000031   0.000005
  10 H       4.661704  -0.649535   0.337101   -0.000035  -0.000003   0.000012
  11 H       3.025586  -2.790318   2.301085   -0.000021   0.000014  -0.000030
  12 H      -2.886223  -3.109981   2.056858    0.000016   0.000018  -0.000026
  13 H      -4.571386  -1.146619  -0.046365    0.000034   0.000010   0.000017
  14 H      -2.719613  -3.654682  -1.229071   -0.000004   0.000042  -0.000000
  15 H      -0.269486   1.635939   4.411682   -0.000007  -0.000015  -0.000033
  16 H       1.363067   3.790277   2.457800   -0.000014  -0.000034   0.000001
  17 H      -1.964283   3.604137   2.320023    0.000019  -0.000030  -0.000001
 
  no constraints, skipping   0.000000000000000E+000

  Step       Energy      Delta E   Gmax     Grms     Xrms     Xmax   Walltime
  ---- ---------------- -------- -------- -------- -------- -------- --------
@    8    -449.28755988 -1.7D-07  0.00003  0.00001  0.00084  0.00236   7354.1
                                                                    

  no constraints, skipping   0.000000000000000E+000
  no constraints, skipping   0.000000000000000E+000
  no constraints, skipping   0.000000000000000E+000
  no constraints, skipping   0.000000000000000E+000

          --------
          Step   9
          --------
 
                                 NWChem DFT Module
                                 -----------------
 
 
                                        TMS
 
 
 
 
 solvent parameters
 solvname_short: chcl3   
 solvname_long:  chloroform                         
 dielec:        4.7113
 dielecinf:     2.0906

          ---------------
          -cosmo- solvent
          ---------------
 Cosmo: York-Karplus, doi: 10.1021/jp992097l
 dielectric constant -eps-     =   4.71
 screen = (eps-1)/(eps    )    =   0.78774
[...]
 dielectric constant -eps-     =   4.71
 screen = (eps-1)/(eps    )    =   0.78774
 surface charge correction     = lagrangian
 -lineq- algorithm             =   0
 -bem- low  level              =   2
 -bem- from -octahedral-
 gaussian surface charge width =   0.98000
 degree of switching           =   1.00000
 switching function tolerance  =   0.00010
 atomic radii = 
 --------------
    1 14.000  2.457
    2  6.000  2.000
    3  6.000  2.000
    4  6.000  2.000
    5  6.000  2.000
    6  1.000  1.300
    7  1.000  1.300
    8  1.000  1.300
    9  1.000  1.300
   10  1.000  1.300
   11  1.000  1.300
   12  1.000  1.300
   13  1.000  1.300
   14  1.000  1.300
   15  1.000  1.300
   16  1.000  1.300
   17  1.000  1.300

 solvent accessible surface
 --------------------------

 ---------- ATOMIC COORDINATES (A.U.) ------------ VDWR(ANG.) --
     1    0.00132511    0.00020120   -0.00104938     2.457
     2    0.04686953    1.56280716   -3.20444921     2.000
     3    3.00104097   -1.87104993    0.45352119     2.000
     4   -2.80767133   -2.18378404    0.21417140     2.000
     5   -0.23818612    2.49268658    2.53640623     2.000
     6   -1.67769798    2.64941734   -3.52448603     1.300
     7    1.64735675    2.85267334   -3.38155426     1.300
     8    0.19707998    0.16194352   -4.71186650     1.300
     9    3.18507050   -3.34213359   -0.98130990     1.300
    10    4.66207841   -0.65373930    0.32575599     1.300
    11    3.02990283   -2.78535915    2.30300418     1.300
    12   -2.89455721   -3.10156308    2.06006831     1.300
    13   -4.57175151   -1.14912370   -0.05966544     1.300
    14   -2.71320621   -3.66161693   -1.22227317     1.300
    15   -0.26404243    1.63601631    4.41319054     1.300
    16    1.36247656    3.79163494    2.45576607     1.300
    17   -1.96475379    3.60213361    2.32423276     1.300
 number of segments per atom =         32
 number of   points per atom =         32
 atom (   nspa,  nppa )
 ----------------------
    1 (      7,     0 )       0
    2 (     22,     0 )       0
    3 (     20,     0 )       0
    4 (     19,     0 )       0
    5 (     16,     0 )       0
    6 (     14,     0 )       0
    7 (     14,     0 )       0
    8 (     13,     0 )       0
    9 (     14,     0 )       0
   10 (     15,     0 )       0
   11 (     15,     0 )       0
   12 (     15,     0 )       0
   13 (     14,     0 )       0
   14 (     12,     0 )       0
   15 (     14,     0 )       0
   16 (     12,     0 )       0
   17 (     14,     0 )       0
 number of -cosmo- surface points =      250
 molecular surface =    144.667 angstrom**2
 molecular volume  =     80.965 angstrom**3
 G(cav/disp)       =      1.583 kcal/mol
 ...... end of -cosmo- initialization ......


 SCF residual:   8.721299636343476E-005

 Wrote CPHF data to ./molecule.shieldcphf

 Calc. par tensor-> nonrel
      Atom:    1  Si
        Diamagnetic
    884.9282     -0.0050      0.0044
     -0.0050    884.9137     -0.0039
      0.0044     -0.0039    884.9342

        Paramagnetic
   -556.7995     -0.0351     -0.0027
     -0.0351   -556.6840     -0.0470
     -0.0027     -0.0470   -556.7750

        Total Shielding Tensor
    328.1287     -0.0400      0.0017
     -0.0400    328.2297     -0.0509
      0.0017     -0.0509    328.1592

           isotropic =     328.1725
          anisotropy =       0.1403

          Principal Components and Axis System
                 1           2           3
              328.2661    328.1435    328.1080

      1        -0.2590     -0.5338      0.8050
      2         0.8704      0.2322      0.4341
      3        -0.4187      0.8131      0.4045



      Atom:    2  C 
        Diamagnetic
    243.3230      0.0715     -0.1926
      0.0715    246.7287     -7.0451
     -0.1926     -7.0451    257.5754

        Paramagnetic
    -61.9599      0.0002      0.0927
      0.0002    -63.7803      3.4204
      0.0927      3.4204    -69.1130

        Total Shielding Tensor
    181.3631      0.0717     -0.0998
      0.0717    182.9484     -3.6247
     -0.0998     -3.6247    188.4624

           isotropic =     184.2579
          anisotropy =       9.0047

          Principal Components and Axis System
                 1           2           3
              190.2611    181.3633    181.1495

      1        -0.0136      0.9955     -0.0933
      2        -0.4442      0.0776      0.8926
      3         0.8958      0.0536      0.4411



      Atom:    3  C 
        Diamagnetic
    255.8530     -7.8506      1.9196
     -7.8506    248.1785     -1.2236
      1.9196     -1.2236    243.6784

        Paramagnetic
    -68.2637      3.8725     -0.9427
      3.8725    -64.4648      0.6740
     -0.9427      0.6740    -62.2381

        Total Shielding Tensor
    187.5893     -3.9781      0.9770
     -3.9781    183.7137     -0.5497
      0.9770     -0.5497    181.4403

           isotropic =     184.2478
          anisotropy =       8.9573

          Principal Components and Axis System
                 1           2           3
              190.2193    181.3245    181.1995

      1         0.8415      0.1511      0.5187
      2        -0.5253      0.4536      0.7199
      3         0.1265      0.8783     -0.4611



      Atom:    4  C 
        Diamagnetic
    254.3353      8.5452     -0.8606
      8.5452    249.8655     -0.6839
     -0.8606     -0.6839    243.3941

        Paramagnetic
    -67.4714     -4.2259      0.4444
     -4.2259    -65.2680      0.3426
      0.4444      0.3426    -62.2246

        Total Shielding Tensor
    186.8640      4.3193     -0.4162
      4.3193    184.5975     -0.3413
     -0.4162     -0.3413    181.1695

           isotropic =     184.2103
          anisotropy =       9.0267

          Principal Components and Axis System
                 1           2           3
              190.2282    181.2672    181.1356

      1         0.7903     -0.6121     -0.0280
      2         0.6098      0.7813      0.1326
      3        -0.0593     -0.1219      0.9908



      Atom:    5  C 
        Diamagnetic
    243.4950     -0.8555     -0.8293
     -0.8555    251.8631      8.7351
     -0.8293      8.7351    252.3340

        Paramagnetic
    -62.3776      0.4746      0.3920
      0.4746    -66.2903     -4.3587
      0.3920     -4.3587    -66.5354

        Total Shielding Tensor
    181.1174     -0.3809     -0.4374
     -0.3809    185.5728      4.3764
     -0.4374      4.3764    185.7987

           isotropic =     184.1629
          anisotropy =       8.9070

          Principal Components and Axis System
                 1           2           3
              190.1009    181.3123    181.0755

      1        -0.0643      0.1377      0.9884
      2         0.6963      0.7157     -0.0544
      3         0.7149     -0.6847      0.1419



      Atom:    6  H 
        Diamagnetic
     32.7428     -6.5621      3.0159
     -6.5621     29.0189     -4.3365
      3.0159     -4.3365     28.7583

        Paramagnetic
      0.7770      2.5648     -0.8747
      2.5648      2.3425      1.9650
     -0.8747      1.9650      1.7191

        Total Shielding Tensor
     33.5198     -3.9973      2.1411
     -3.9973     31.3613     -2.3715
      2.1411     -2.3715     30.4774

           isotropic =      31.7862
          anisotropy =       9.1926

          Principal Components and Axis System
                 1           2           3
               37.9146     29.4066     28.0373

      1         0.7163     -0.5505      0.4288
      2        -0.5783     -0.1243      0.8063
      3         0.3906      0.8255      0.4074



      Atom:    7  H 
        Diamagnetic
     31.5008      7.2108     -2.2057
      7.2108     30.6775     -4.0461
     -2.2057     -4.0461     28.2880

        Paramagnetic
      1.3001     -2.8346      0.5818
     -2.8346      1.6988      1.8191
      0.5818      1.8191      1.8563

        Total Shielding Tensor
     32.8009      4.3762     -1.6239
      4.3762     32.3763     -2.2270
     -1.6239     -2.2270     30.1443

           isotropic =      31.7739
          anisotropy =       9.2176

          Principal Components and Axis System
                 1           2           3
               37.9189     29.3816     28.0211

      1         0.6718      0.4799     -0.5643
      2         0.6631     -0.0500      0.7469
      3        -0.3302      0.8759      0.3518



      Atom:    8  H 
        Diamagnetic
     23.3682     -0.6025     -0.9142
     -0.6025     29.5647      4.9678
     -0.9142      4.9678     37.4817

        Paramagnetic
      4.6992      0.2532      0.3552
      0.2532      1.6147     -1.5088
      0.3552     -1.5088     -1.4183

        Total Shielding Tensor
     28.0673     -0.3493     -0.5590
     -0.3493     31.1794      3.4590
     -0.5590      3.4590     36.0634

           isotropic =      31.7700
          anisotropy =       9.1942

          Principal Components and Axis System
                 1           2           3
               37.8995     29.3893     28.0214

      1        -0.0667     -0.0385      0.9970
      2         0.4594      0.8859      0.0650
      3         0.8857     -0.4623      0.0414



      Atom:    9  H 
        Diamagnetic
     27.7059     -4.5242     -1.2433
     -4.5242     33.0825      6.8204
     -1.2433      6.8204     29.6418

        Paramagnetic
      2.2041      2.0404      0.1178
      2.0404      0.7089     -2.6316
      0.1178     -2.6316      1.9524

        Total Shielding Tensor
     29.9100     -2.4838     -1.1255
     -2.4838     33.7914      4.1888
     -1.1255      4.1888     31.5942

           isotropic =      31.7652
          anisotropy =       9.2150

          Principal Components and Axis System
                 1           2           3
               37.9085     29.3758     28.0113

      1        -0.3163      0.8159     -0.4840
      2         0.7636     -0.0837     -0.6403
      3         0.5629      0.5721      0.5965



      Atom:   10  H 
        Diamagnetic
     38.5615      4.0259      0.0322
      4.0259     28.4631     -0.6948
      0.0322     -0.6948     23.4326

        Paramagnetic
     -1.7538     -1.1682     -0.1048
     -1.1682      1.9836      0.4132
     -0.1048      0.4132      4.6389

        Total Shielding Tensor
     36.8077      2.8578     -0.0726
      2.8578     30.4466     -0.2816
     -0.0726     -0.2816     28.0715

           isotropic =      31.7753
          anisotropy =       9.1959

          Principal Components and Axis System
                 1           2           3
               37.9059     29.3937     28.0262

      1         0.9335     -0.3555     -0.0473
      2         0.3583      0.9179      0.1704
      3        -0.0171     -0.1760      0.9842



      Atom:   11  H 
        Diamagnetic
     27.4239     -3.2983      2.1279
     -3.2983     28.4082     -6.7051
      2.1279     -6.7051     34.7012

        Paramagnetic
      2.2584      1.6583     -0.6315
      1.6583      2.5178      2.6309
     -0.6315      2.6309      0.0625

        Total Shielding Tensor
     29.6823     -1.6400      1.4963
     -1.6400     30.9260     -4.0742
      1.4963     -4.0742     34.7637

           isotropic =      31.7907
          anisotropy =       9.1768

          Principal Components and Axis System
                 1           2           3
               37.9085     29.4193     28.0442

      1         0.2530      0.8557      0.4515
      2        -0.5312     -0.2672      0.8040
      3         0.8086     -0.4432      0.3870



      Atom:   12  H 
        Diamagnetic
     27.0198      3.6790     -2.0342
      3.6790     29.1201     -6.6195
     -2.0342     -6.6195     34.3611

        Paramagnetic
      2.5343     -1.8574      0.5491
     -1.8574      2.1713      2.5349
      0.5491      2.5349      0.1586

        Total Shielding Tensor
     29.5541      1.8216     -1.4851
      1.8216     31.2914     -4.0846
     -1.4851     -4.0846     34.5197

           isotropic =      31.7884
          anisotropy =       9.1799

          Principal Components and Axis System
                 1           2           3
               37.9083     29.4120     28.0448

      1        -0.2617      0.7810     -0.5671
      2        -0.5581      0.3570      0.7491
      3         0.7874      0.5125      0.3425



      Atom:   13  H 
        Diamagnetic
     39.1834     -2.7988      1.3509
     -2.7988     27.7494     -0.9202
      1.3509     -0.9202     23.5719

        Paramagnetic
     -1.9254      0.7112     -0.4830
      0.7112      2.1757      0.4701
     -0.4830      0.4701      4.5898

        Total Shielding Tensor
     37.2579     -2.0876      0.8680
     -2.0876     29.9251     -0.4502
      0.8680     -0.4502     28.1617

           isotropic =      31.7816
          anisotropy =       9.1838

          Principal Components and Axis System
                 1           2           3
               37.9041     29.4060     28.0347

      1         0.9615      0.2698     -0.0527
      2        -0.2571      0.9503      0.1759
      3         0.0975     -0.1556      0.9830



      Atom:   14  H 
        Diamagnetic
     26.7490      3.2510      0.2744
      3.2510     33.9298      7.2211
      0.2744      7.2211     29.7374

        Paramagnetic
      2.5844     -1.6048      0.2108
     -1.6048      0.3269     -2.7817
      0.2108     -2.7817      1.9749

        Total Shielding Tensor
     29.3335      1.6462      0.4852
      1.6462     34.2566      4.4393
      0.4852      4.4393     31.7123

           isotropic =      31.7675
          anisotropy =       9.2063

          Principal Components and Axis System
                 1           2           3
               37.9050     29.3791     28.0183

      1         0.1850      0.8472      0.4980
      2         0.7918      0.1716     -0.5862
      3         0.5821     -0.5028      0.6391



      Atom:   15  H 
        Diamagnetic
     23.3962     -0.1696     -0.5474
     -0.1696     27.3958     -1.6613
     -0.5474     -1.6613     39.7494

        Paramagnetic
      4.6565      0.1296      0.2424
      0.1296      2.2237      0.3303
      0.2424      0.3303     -2.0693

        Total Shielding Tensor
     28.0527     -0.0400     -0.3050
     -0.0400     29.6195     -1.3311
     -0.3050     -1.3311     37.6801

           isotropic =      31.7841
          anisotropy =       9.1784

          Principal Components and Axis System
                 1           2           3
               37.9030     29.4110     28.0382

      1        -0.0299     -0.0641      0.9975
      2        -0.1584      0.9856      0.0586
      3         0.9869      0.1563      0.0396



      Atom:   16  H 
        Diamagnetic
     31.3135      7.2385      0.3149
      7.2385     33.0210      3.2409
      0.3149      3.2409     26.1270

        Paramagnetic
      1.3025     -2.7294      0.1825
     -2.7294      0.5845     -1.6709
      0.1825     -1.6709      2.9708

        Total Shielding Tensor
     32.6161      4.5091      0.4973
      4.5091     33.6055      1.5700
      0.4973      1.5700     29.0978

           isotropic =      31.7731
          anisotropy =       9.1966

          Principal Components and Axis System
                 1           2           3
               37.9042     29.3888     28.0264

      1         0.6487     -0.5641      0.5109
      2         0.7421      0.3198     -0.5891
      3         0.1689      0.7613      0.6261



      Atom:   17  H 
        Diamagnetic
     33.0361     -7.4690     -0.1632
     -7.4690     31.3782      2.6432
     -0.1632      2.6432     26.1153

        Paramagnetic
      0.6978      2.8814     -0.1625
      2.8814      1.2053     -1.4752
     -0.1625     -1.4752      2.9365

        Total Shielding Tensor
     33.7340     -4.5876     -0.3257
     -4.5876     32.5835      1.1680
     -0.3257      1.1680     29.0519

           isotropic =      31.7898
          anisotropy =       9.1650

          Principal Components and Axis System
                 1           2           3
               37.8997     29.4206     28.0490

      1         0.7395      0.4665      0.4854
      2        -0.6633      0.3819      0.6435
      3        -0.1148      0.7978     -0.5918



 
 
                                NWChem Input Module
                                -------------------
 
 
 
 
                                     CITATION
                                     --------
                Please cite the following reference when publishing
                           results obtained with NWChem:
 
          E. Apr, E. J. Bylaska, W. A. de Jong, N. Govind, K. Kowalski,
       T. P. Straatsma, M. Valiev, H. J. J. van Dam, Y. Alexeev, J. Anchell,
       V. Anisimov, F. W. Aquino, R. Atta-Fynn, J. Autschbach, N. P. Bauman,
     J. C. Becca, D. E. Bernholdt, K. Bhaskaran-Nair, S. Bogatko, P. Borowski,
        J. Boschen, J. Brabec, A. Bruner, E. Caut, Y. Chen, G. N. Chuev,
      C. J. Cramer, J. Daily, M. J. O. Deegan, T. H. Dunning Jr., M. Dupuis,
   K. G. Dyall, G. I. Fann, S. A. Fischer, A. Fonari, H. Frchtl, L. Gagliardi,
      J. Garza, N. Gawande, S. Ghosh, K. Glaesemann, A. W. Gtz, J. Hammond,
       V. Helms, E. D. Hermes, K. Hirao, S. Hirata, M. Jacquelin, L. Jensen,
   B. G. Johnson, H. Jnsson, R. A. Kendall, M. Klemm, R. Kobayashi, V. Konkov,
      S. Krishnamoorthy, M. Krishnan, Z. Lin, R. D. Lins, R. J. Littlefield,
      A. J. Logsdail, K. Lopata, W. Ma, A. V. Marenich, J. Martin del Campo,
   D. Mejia-Rodriguez, J. E. Moore, J. M. Mullin, T. Nakajima, D. R. Nascimento,
    J. A. Nichols, P. J. Nichols, J. Nieplocha, A. Otero-de-la-Roza, B. Palmer,
    A. Panyala, T. Pirojsirikul, B. Peng, R. Peverati, J. Pittner, L. Pollack,
   R. M. Richard, P. Sadayappan, G. C. Schatz, W. A. Shelton, D. W. Silverstein,
   D. M. A. Smith, T. A. Soares, D. Song, M. Swart, H. L. Taylor, G. S. Thomas,
            V. Tipparaju, D. G. Truhlar, K. Tsemekhman, T. Van Voorhis,
     . Vzquez-Mayagoitia, P. Verma, O. Villa, A. Vishnu, K. D. Vogiatzis,
        D. Wang, J. H. Weare, M. J. Williamson, T. L. Windus, K. Woliski,
        A. T. Wong, Q. Wu, C. Yang, Q. Yu, M. Zacharias, Z. Zhang, Y. Zhao,
                                and R. J. Harrison
                        "NWChem: Past, present, and future
                         J. Chem. Phys. 152, 184102 (2020)
                               doi:10.1063/5.0004997
 
                                      AUTHORS
                                      -------
     E. Apra, E. J. Bylaska, N. Govind, K. Kowalski, M. Valiev, W. A. de Jong,
      T. P. Straatsma, H. J. J. van Dam, D. Wang, T. L. Windus, N. P. Bauman,
       A. Panyala, J. Hammond, J. Autschbach, K. Bhaskaran-Nair, J. Brabec,
    K. Lopata, S. A. Fischer, S. Krishnamoorthy, M. Jacquelin, W. Ma, M. Klemm,
       O. Villa, Y. Chen, V. Anisimov, F. Aquino, S. Hirata, M. T. Hackler,
           Eric Hermes, L. Jensen, J. E. Moore, J. C. Becca, V. Konjkov,
            D. Mejia-Rodriguez, T. Risthaus, M. Malagoli, A. Marenich,
   A. Otero-de-la-Roza, J. Mullin, P. Nichols, R. Peverati, J. Pittner, Y. Zhao,
        P.-D. Fan, A. Fonari, M. J. Williamson, R. J. Harrison, J. R. Rehr,
      M. Dupuis, D. Silverstein, D. M. A. Smith, J. Nieplocha, V. Tipparaju,
      M. Krishnan, B. E. Van Kuiken, A. Vazquez-Mayagoitia, M. Swart, Q. Wu,
   T. Van Voorhis, A. A. Auer, M. Nooijen, L. D. Crosby, E. Brown, G. Cisneros,
     G. I. Fann, H. Fruchtl, J. Garza, K. Hirao, R. A. Kendall, J. A. Nichols,
       K. Tsemekhman, K. Wolinski, J. Anchell, D. E. Bernholdt, P. Borowski,
       T. Clark, D. Clerc, H. Dachsel, M. J. O. Deegan, K. Dyall, D. Elwood,
      E. Glendening, M. Gutowski, A. C. Hess, J. Jaffe, B. G. Johnson, J. Ju,
        R. Kobayashi, R. Kutteh, Z. Lin, R. Littlefield, X. Long, B. Meng,
      T. Nakajima, S. Niu, L. Pollack, M. Rosing, K. Glaesemann, G. Sandrone,
      M. Stave, H. Taylor, G. Thomas, J. H. van Lenthe, A. T. Wong, Z. Zhang.

 Total times  cpu:   100072.0s     wall:   100265.8s
