
     Program PWSCF v.7.4.1 starts on 16Apr2025 at 12: 4:14 
        Git branch: develop
        Last git commit: c129e404a1b34e2d280280c5087d1dc05a879a3f-dirty
        Last git commit date: Sun Apr 13 10:22:52 2025 +0000
        Last git commit subject: Merge branch 'matdyn-remove-interaction-blocks' in

     This program is part of the open-source Quantum ESPRESSO suite
     for quantum simulation of materials; please cite
         "P. Giannozzi et al., J. Phys.:Condens. Matter 21 395502 (2009);
         "P. Giannozzi et al., J. Phys.:Condens. Matter 29 465901 (2017);
         "P. Giannozzi et al., J. Chem. Phys. 152 154105 (2020);
          URL http://www.quantum-espresso.org", 
     in publications or presentations arising from this work. More details at
     http://www.quantum-espresso.org/quote

     Parallel version (MPI), running on     8 processors

     MPI processes distributed on     1 nodes
     14906 MiB available memory on the printing compute node when the environment starts

     Waiting for input...
     Reading input from standard input

     Current dimensions of program PWSCF are:
     Max number of different atomic species (ntypx) = 10
     Max number of k-points (npk) =  40000
     Max angular momentum in pseudopotentials (lmaxx) =  4
     Message from routine iosys:
     xdm is obsolete, use "vdw_corr='xdm'" instead
     Message from routine setup:
     using ibrav=0 with symmetry is DISCOURAGED, use correct ibrav instead

     R & G space division:  proc/nbgrp/npool/nimage =       8
     Subspace diagonalization in iterative solution of the eigenvalue problem:
     a serial algorithm will be used


     Parallelization info
     --------------------
     sticks:   dense  smooth     PW     G-vecs:    dense   smooth      PW
     Min        2557    1278    320               275175    97304   12188
     Max        2558    1279    321               275180    97307   12193
     Sum       20461   10229   2561              2201421   778439   97521

     Using Slab Decomposition



     bravais-lattice index     =            0
     lattice parameter (alat)  =      28.3459  a.u.
     unit-cell volume          =   22775.6289 (a.u.)^3
     number of atoms/cell      =            2
     number of atomic types    =            1
     number of electrons       =        28.00
     number of Kohn-Sham states=           36
     kinetic-energy cutoff     =      40.0000  Ry
     charge density cutoff     =     320.0000  Ry
     scf convergence threshold =      4.0E-10
     mixing beta               =       0.4000
     number of iterations used =            8  plain     mixing
     Exchange-correlation= PBE
                           (   1   4   3   4   0   0   0)
     Non magnetic calculation with spin-orbit


     celldm(1)=  28.345892  celldm(2)=   0.000000  celldm(3)=   0.000000
     celldm(4)=   0.000000  celldm(5)=   0.000000  celldm(6)=   0.000000

     crystal axes: (cart. coord. in units of alat)
               a(1) = (   1.000000   0.000000   0.000000 )  
               a(2) = (   0.000000   1.000000   0.000000 )  
               a(3) = (   0.000000   0.000000   1.000000 )  

     reciprocal axes: (cart. coord. in units 2 pi/alat)
               b(1) = (  1.000000  0.000000  0.000000 )  
               b(2) = (  0.000000  1.000000  0.000000 )  
               b(3) = (  0.000000  0.000000  1.000000 )  


     PseudoPot. # 1 for Pb read from file:
     .././Pb_r.upf
     MD5 check sum: 73abbbd201951038fc1bdacebad68d2f
     Pseudo is Norm-conserving + core correction, Zval = 14.0
     Generated using ONCVPSP code by D. R. Hamann
     Using radial grid of 1782 points, 10 beta functions with: 
                l(1) =   0
                l(2) =   0
                l(3) =   1
                l(4) =   1
                l(5) =   1
                l(6) =   1
                l(7) =   2
                l(8) =   2
                l(9) =   2
               l(10) =   2

     atomic species   valence    mass     pseudopotential
     Pb               14.00   207.20000     Pb( 1.00)

      4 Sym. Ops. (no inversion) found


                                    s                        frac. trans.

      isym =  1     identity                                     

 cryst.   s( 1) = (     1          0          0      )
                  (     0          1          0      )
                  (     0          0          1      )

 cart.    s( 1) = (  1.0000000  0.0000000  0.0000000 )
                  (  0.0000000  1.0000000  0.0000000 )
                  (  0.0000000  0.0000000  1.0000000 )


      isym =  2     180 deg rotation - cart. axis [1,0,0]        

 cryst.   s( 2) = (     1          0          0      )
                  (     0         -1          0      )
                  (     0          0         -1      )

 cart.    s( 2) = (  1.0000000  0.0000000  0.0000000 )
                  (  0.0000000 -1.0000000  0.0000000 )
                  (  0.0000000  0.0000000 -1.0000000 )


      isym =  3     inv. 180 deg rotation - cart. axis [0,0,1]   

 cryst.   s( 3) = (     1          0          0      )
                  (     0          1          0      )
                  (     0          0         -1      )

 cart.    s( 3) = (  1.0000000  0.0000000  0.0000000 )
                  (  0.0000000  1.0000000  0.0000000 )
                  (  0.0000000  0.0000000 -1.0000000 )


      isym =  4     inv. 180 deg rotation - cart. axis [0,1,0]   

 cryst.   s( 4) = (     1          0          0      )
                  (     0         -1          0      )
                  (     0          0          1      )

 cart.    s( 4) = (  1.0000000  0.0000000  0.0000000 )
                  (  0.0000000 -1.0000000  0.0000000 )
                  (  0.0000000  0.0000000  1.0000000 )


   Cartesian axes

     site n.     atom                  positions (alat units)
         1        Pb     tau(   1) = (   0.0000000   0.0000000   0.0000000  )
         2        Pb     tau(   2) = (   0.0800000   0.0000000   2.5000000  )

   Crystallographic axes

     site n.     atom                  positions (cryst. coord.)
         1        Pb     tau(   1) = (  0.0000000  0.0000000  0.0000000  )
         2        Pb     tau(   2) = (  0.0800000  0.0000000  2.5000000  )

     number of k points=     1  Marzari-Vanderbilt smearing, width (Ry)=  0.0200
                       cart. coord. in units 2pi/alat
        k(    1) = (   0.0000000   0.0000000   0.0000000), wk =   1.0000000

                       cryst. coord.
        k(    1) = (   0.0000000   0.0000000   0.0000000), wk =   1.0000000

     Dense  grid:  2201421 G-vectors     FFT dimensions: ( 162, 162, 162)

     Smooth grid:   778439 G-vectors     FFT dimensions: ( 120, 120, 120)

     Dynamical RAM for                 wfc:      13.36 MB

     Dynamical RAM for     wfc (w. buffer):      13.36 MB

     Dynamical RAM for           str. fact:       4.20 MB

     Dynamical RAM for           local pot:       0.00 MB

     Dynamical RAM for          nlocal pot:      12.62 MB

     Dynamical RAM for                qrad:       3.76 MB

     Dynamical RAM for          rho,v,vnew:     201.69 MB

     Dynamical RAM for               rhoin:      67.23 MB

     Dynamical RAM for            rho*nmix:     537.46 MB

     Dynamical RAM for           G-vectors:      16.49 MB

     Dynamical RAM for          h,s,v(r/c):       0.24 MB

     Dynamical RAM for          <psi|beta>:       0.07 MB

     Dynamical RAM for                 psi:      26.72 MB

     Dynamical RAM for                hpsi:      26.72 MB

     Dynamical RAM for      wfcinit/wfcrot:      20.07 MB

     Estimated static dynamical RAM per process >     361.38 MB

     Estimated max dynamical RAM per process >     952.60 MB

     Estimated total dynamical RAM >       7.44 GB

     Initial potential from superposition of free atoms

     starting charge      27.9949, renormalised to      28.0000

     negative rho (up, down):  7.961E-05 0.000E+00
     Starting wfcs are   36 randomized atomic wfcs

     total cpu time spent up to now is        1.8 secs

     per-process dynamical memory:   383.6 Mb

     Self-consistent Calculation

     iteration #  1     ecut=    40.00 Ry     beta= 0.40
     Davidson diagonalization with overlap

---- Real-time Memory Report at c_bands before calling an iterative solver
           292 MiB given to the printing process from OS
           436 MiB allocation reported by mallinfo(arena+hblkhd)
         12843 MiB available memory on the node where the printing process lives
------------------
     ethr =  1.00E-02,  avg # of iterations =  1.0

     Threshold (ethr) on eigenvalues was too large:
     Diagonalizing with lowered threshold

     Davidson diagonalization with overlap

---- Real-time Memory Report at c_bands before calling an iterative solver
           369 MiB given to the printing process from OS
           464 MiB allocation reported by mallinfo(arena+hblkhd)
         12287 MiB available memory on the node where the printing process lives
------------------
     ethr =  6.77E-05,  avg # of iterations =  2.0

     negative rho (up, down):  4.619E-07 0.000E+00

     total cpu time spent up to now is        5.8 secs

     WARNING: integrated charge=    28.00146279, expected=    28.00000000

     total energy              =    -280.63917290 Ry
     estimated scf accuracy    <       0.01914652 Ry

     iteration #  2     ecut=    40.00 Ry     beta= 0.40
     Davidson diagonalization with overlap

---- Real-time Memory Report at c_bands before calling an iterative solver
           582 MiB given to the printing process from OS
           678 MiB allocation reported by mallinfo(arena+hblkhd)
         10572 MiB available memory on the node where the printing process lives
------------------
     ethr =  6.84E-05,  avg # of iterations =  2.0

     negative rho (up, down):  5.824E-05 0.000E+00

     total cpu time spent up to now is        8.3 secs

     WARNING: integrated charge=    28.00472752, expected=    28.00000000

     total energy              =    -280.63910765 Ry
     estimated scf accuracy    <       0.00367961 Ry

     iteration #  3     ecut=    40.00 Ry     beta= 0.40
     Davidson diagonalization with overlap

---- Real-time Memory Report at c_bands before calling an iterative solver
           606 MiB given to the printing process from OS
           702 MiB allocation reported by mallinfo(arena+hblkhd)
         10381 MiB available memory on the node where the printing process lives
------------------
     ethr =  1.31E-05,  avg # of iterations =  4.0

     negative rho (up, down):  3.920E-05 0.000E+00

     total cpu time spent up to now is       11.1 secs

     WARNING: integrated charge=    28.00757747, expected=    28.00000000

     total energy              =    -280.64031383 Ry
     estimated scf accuracy    <       0.00013397 Ry

     iteration #  4     ecut=    40.00 Ry     beta= 0.40
     Davidson diagonalization with overlap

---- Real-time Memory Report at c_bands before calling an iterative solver
           630 MiB given to the printing process from OS
           726 MiB allocation reported by mallinfo(arena+hblkhd)
         10189 MiB available memory on the node where the printing process lives
------------------
     ethr =  4.78E-07,  avg # of iterations =  2.0

     negative rho (up, down):  1.819E-05 0.000E+00

     total cpu time spent up to now is       14.0 secs

     WARNING: integrated charge=    28.00815998, expected=    28.00000000

     total energy              =    -280.64028109 Ry
     estimated scf accuracy    <       0.00000936 Ry

     iteration #  5     ecut=    40.00 Ry     beta= 0.40
     Davidson diagonalization with overlap

---- Real-time Memory Report at c_bands before calling an iterative solver
           654 MiB given to the printing process from OS
           749 MiB allocation reported by mallinfo(arena+hblkhd)
         10000 MiB available memory on the node where the printing process lives
------------------
     ethr =  3.34E-08,  avg # of iterations =  2.0

     negative rho (up, down):  1.236E-05 0.000E+00

     total cpu time spent up to now is       16.6 secs

     WARNING: integrated charge=    28.00899360, expected=    28.00000000

     total energy              =    -280.64031622 Ry
     estimated scf accuracy    <       0.00000077 Ry

     iteration #  6     ecut=    40.00 Ry     beta= 0.40
     Davidson diagonalization with overlap

---- Real-time Memory Report at c_bands before calling an iterative solver
           678 MiB given to the printing process from OS
           773 MiB allocation reported by mallinfo(arena+hblkhd)
          9809 MiB available memory on the node where the printing process lives
------------------
     ethr =  2.76E-09,  avg # of iterations =  3.0

     negative rho (up, down):  4.351E-06 0.000E+00

     total cpu time spent up to now is       19.5 secs

     WARNING: integrated charge=    28.00906225, expected=    28.00000000

     total energy              =    -280.64032589 Ry
     estimated scf accuracy    <       0.00000024 Ry

     iteration #  7     ecut=    40.00 Ry     beta= 0.40
     Davidson diagonalization with overlap

---- Real-time Memory Report at c_bands before calling an iterative solver
           702 MiB given to the printing process from OS
           797 MiB allocation reported by mallinfo(arena+hblkhd)
          9619 MiB available memory on the node where the printing process lives
------------------
     ethr =  8.70E-10,  avg # of iterations =  2.0

     negative rho (up, down):  1.186E-06 0.000E+00

     total cpu time spent up to now is       22.4 secs

     WARNING: integrated charge=    28.00905753, expected=    28.00000000

     total energy              =    -280.64032102 Ry
     estimated scf accuracy    <          2.4E-09 Ry

     iteration #  8     ecut=    40.00 Ry     beta= 0.40
     Davidson diagonalization with overlap

---- Real-time Memory Report at c_bands before calling an iterative solver
           725 MiB given to the printing process from OS
           821 MiB allocation reported by mallinfo(arena+hblkhd)
          9429 MiB available memory on the node where the printing process lives
------------------
     ethr =  8.64E-12,  avg # of iterations =  4.0

     negative rho (up, down):  2.482E-07 0.000E+00

     total cpu time spent up to now is       25.7 secs

     WARNING: integrated charge=    28.00905617, expected=    28.00000000

     total energy              =    -280.64032062 Ry
     estimated scf accuracy    <          5.4E-10 Ry

     iteration #  9     ecut=    40.00 Ry     beta= 0.40
     Davidson diagonalization with overlap

---- Real-time Memory Report at c_bands before calling an iterative solver
           749 MiB given to the printing process from OS
           844 MiB allocation reported by mallinfo(arena+hblkhd)
          9237 MiB available memory on the node where the printing process lives
------------------
     ethr =  1.94E-12,  avg # of iterations =  3.0

     total cpu time spent up to now is       27.9 secs

     End of self-consistent calculation

          k = 0.0000 0.0000 0.0000 ( 97521 PWs)   bands (ev):

   -21.3409 -21.3409 -21.3409 -21.3409 -21.3407 -21.3407 -21.3401 -21.3401
   -18.7705 -18.7705 -18.7704 -18.7704 -18.7701 -18.7701 -18.7698 -18.7698
   -18.7698 -18.7698 -18.7693 -18.7693 -10.9447 -10.9447 -10.9433 -10.9433
    -3.7140  -3.7140  -3.6920  -3.6920  -2.3997  -2.3997  -2.3494  -2.3494
    -2.3191  -2.3191  -2.2667  -2.2667

     occupation numbers 
     1.0000   1.0000   1.0000   1.0000   1.0000   1.0000   1.0000   1.0000
     1.0000   1.0000   1.0000   1.0000   1.0000   1.0000   1.0000   1.0000
     1.0000   1.0000   1.0000   1.0000   1.0000   1.0000   1.0000   1.0000
     1.0010   1.0010   1.0014   1.0014   0.0013   0.0013   0.0005   0.0005
     0.0003   0.0003   0.0001   0.0001

     the Fermi energy is    -2.8732 ev

     WARNING: integrated charge=    28.00905818, expected=    28.00000000

 %%%%%%%%%%%%%%%%%%%%%%%%%%%%%%%%%%%%%%%%%%%%%%%%%%%%%%%%%%%%%%%%%%%%%%%%%%%%%%
     Error in routine energy_xdm (1):
     nspin > 2 not implemented
 %%%%%%%%%%%%%%%%%%%%%%%%%%%%%%%%%%%%%%%%%%%%%%%%%%%%%%%%%%%%%%%%%%%%%%%%%%%%%%

     stopping ...
--------------------------------------------------------------------------
MPI_ABORT was invoked on rank 4 in communicator MPI_COMM_WORLD
with errorcode 1.

NOTE: invoking MPI_ABORT causes Open MPI to kill all MPI processes.
You may or may not see output from other processes, depending on
exactly when Open MPI kills them.
--------------------------------------------------------------------------
[DESKTOP-7OTLCGO:05228] 7 more processes have sent help message help-mpi-api.txt / mpi-abort
[DESKTOP-7OTLCGO:05228] Set MCA parameter "orte_base_help_aggregate" to 0 to see all help / error messages
