LAMMPS (9 Nov 2016)
OMP_NUM_THREADS environment is not set. Defaulting to 1 thread. (../comm.cpp:90)
  using 1 OpenMP thread(s) per MPI task
#
# LAMMPS Input File for Grain Boundaries
# Mark Tschopp, Dec2009
# This file will generate a single Sigma5(310) STGB
#

# ---------- Initialize Simulation ---------------------
clear
OMP_NUM_THREADS environment is not set. Defaulting to 1 thread. (../comm.cpp:90)
  using 1 OpenMP thread(s) per MPI task
units metal
dimension 3
boundary p p p
atom_style atomic

# ---------- Create Atomistic Structure ---------------------
lattice fcc 4.05
Lattice spacing in x,y,z = 4.05 4.05 4.05
region whole block 0.000000 12.807225 -64.0361225 64.0361225 0.000000 4.050000 units box
create_box 2 whole
Created orthogonal box = (0 -64.0361 0) to (12.8072 64.0361 4.05)
  1 by 1 by 1 MPI processor grid
region upper block INF INF 0.000000 64.0361225 INF INF units box
lattice fcc 4.05 orient x  0  3  1 orient y  0 -1  3 orient z  1  0  0
Lattice spacing in x,y,z = 5.12289 5.12289 4.05
create_atoms 1 region upper
Created 200 atoms
region lower block INF INF -64.0361225 0.000000 INF INF units box
lattice fcc 4.05 orient x  0  3 -1 orient y  0  1  3 orient z  1  0  0
Lattice spacing in x,y,z = 5.12289 5.12289 4.05
create_atoms 2 region lower
Created 200 atoms
group upper type 1
200 atoms in group upper
group lower type 2
200 atoms in group lower

# ---------- Define Interatomic Potential ---------------------
pair_style eam/alloy
pair_coeff * * Al99.eam.alloy Al Al
neighbor 2.0 bin
neigh_modify delay 10 check yes

# ---------- Displace atoms and delete overlapping atoms ---------------------
displace_atoms upper move 0 0 0 units lattice
delete_atoms overlap 0.35 lower upper
Neighbor list info ...
  2 neighbor list requests
  update every 1 steps, delay 10 steps, check yes
  max neighbors/atom: 2000, page size: 100000
  master list distance cutoff = 8.28721
  ghost atom cutoff = 8.28721
  binsize = 4.1436 -> bins = 4 31 1
Deleted 2 atoms, new total = 398

# ---------- Define Settings ---------------------
compute csym all centro/atom fcc
compute eng all pe/atom
compute eatoms all reduce sum c_eng

# ---------- Run Minimization ---------------------
reset_timestep 0
thermo 10
thermo_style custom step pe lx ly lz press pxx pyy pzz c_eatoms
dump 		1 all cfg 25 dump.sig5_minimization_*.cfg mass type xs ys zs c_csym c_eng fx fy fz
dump_modify     1 element Al Al
min_style cg
minimize 1e-15 1e-15 5000 5000
WARNING: Resetting reneighboring criteria during minimization (../min.cpp:168)
Neighbor list info ...
  2 neighbor list requests
  update every 1 steps, delay 0 steps, check yes
  max neighbors/atom: 2000, page size: 100000
  master list distance cutoff = 8.28721
  ghost atom cutoff = 8.28721
  binsize = 4.1436 -> bins = 4 31 1
Memory usage per processor = 5.67055 Mbytes
Step PotEng Lx Ly Lz Press Pxx Pyy Pzz c_eatoms 
       0   -1318.9843    12.807225    128.07225         4.05    875.32429   -2675.7752    7333.2608   -2031.5128   -1318.9843 
      10   -1329.8293    12.807225    128.07225         4.05    4863.0678    2399.3262     9226.618    2963.2592   -1329.8293 
      20   -1330.1813    12.807225    128.07225         4.05    5739.7373    3277.6653    10380.205    3561.3418   -1330.1813 
      30    -1330.212    12.807225    128.07225         4.05    5799.4078    3324.6136    10511.649    3561.9611    -1330.212 
      40   -1330.2137    12.807225    128.07225         4.05    5823.0131    3345.3792    10560.649    3563.0112   -1330.2137 
      50   -1330.2144    12.807225    128.07225         4.05    5832.2375    3357.8939    10569.301    3569.5176   -1330.2144 
      60   -1330.2146    12.807225    128.07225         4.05    5829.3139    3356.4392    10559.179    3572.3232   -1330.2146 
      70   -1330.2147    12.807225    128.07225         4.05    5826.5788     3359.271    10546.817    3573.6486   -1330.2147 
      80   -1330.2148    12.807225    128.07225         4.05    5827.0603    3369.2954    10538.855     3573.031   -1330.2148 
      90   -1330.2149    12.807225    128.07225         4.05    5827.8483    3370.9088    10540.535    3572.1008   -1330.2149 
     100   -1330.2149    12.807225    128.07225         4.05    5827.4309    3370.2637    10540.434    3571.5951   -1330.2149 
     110   -1330.2149    12.807225    128.07225         4.05    5827.2641     3370.103      10540.1    3571.5894   -1330.2149 
     120   -1330.2149    12.807225    128.07225         4.05    5827.1959    3370.2252    10539.733    3571.6293   -1330.2149 
     130   -1330.2149    12.807225    128.07225         4.05    5827.2147    3370.2646    10539.782    3571.5977   -1330.2149 
     140   -1330.2149    12.807225    128.07225         4.05    5827.2184    3370.2755    10539.789    3571.5903   -1330.2149 
     150   -1330.2149    12.807225    128.07225         4.05    5827.2224    3370.2832    10539.793    3571.5908   -1330.2149 
     160   -1330.2184    12.807225    128.07225         4.05    5890.1006    3593.9061    10554.021    3522.3744   -1330.2184 
     170   -1331.0778    12.807225    128.07225         4.05    3363.4114    1976.0181    6867.2229    1246.9931   -1331.0778 
     180   -1332.2028    12.807225    128.07225         4.05    887.83423    108.08119     3014.253   -458.83148   -1332.2028 
     190   -1332.6266    12.807225    128.07225         4.05     508.3929   -493.02789    2287.1835   -268.97693   -1332.6266 
     200   -1332.8494    12.807225    128.07225         4.05    584.57482   -586.13363    2641.6978   -301.83971   -1332.8494 
     210   -1333.1457    12.807225    128.07225         4.05    362.74086   -373.83536     1979.452    -517.3941   -1333.1457 
     220   -1333.2654    12.807225    128.07225         4.05    335.96609   -404.13416    1996.6089   -584.57652   -1333.2654 
     230   -1333.3066    12.807225    128.07225         4.05    285.92306   -449.64193    1942.4063   -634.99523   -1333.3066 
     240   -1333.4351    12.807225    128.07225         4.05   -158.54002   -729.53121    1235.6965   -981.78532   -1333.4351 
     250   -1333.5032    12.807225    128.07225         4.05   -205.75081   -678.50847    1033.4206   -972.16453   -1333.5032 
     260   -1333.5342    12.807225    128.07225         4.05   -39.583009   -364.88479     1252.201   -1006.0652   -1333.5342 
     270   -1333.5719    12.807225    128.07225         4.05    169.77134   -17.099819    1487.1073   -960.69345   -1333.5719 
     280    -1333.599    12.807225    128.07225         4.05    168.11579   -37.922539    1503.5999   -961.32997    -1333.599 
     290   -1333.6146    12.807225    128.07225         4.05    170.49145   -5.4202631    1495.7844   -978.88982   -1333.6146 
     300   -1333.6214    12.807225    128.07225         4.05    163.85097  -0.51008357    1471.4509   -979.38792   -1333.6214 
     310   -1333.6224    12.807225    128.07225         4.05    165.64539  -0.22457313    1481.3914   -984.23067   -1333.6224 
     320    -1333.623    12.807225    128.07225         4.05    162.51303   -2.0704805    1474.8855   -985.27592    -1333.623 
     330   -1333.6231    12.807225    128.07225         4.05    162.47033  -0.18879661    1473.5023   -985.90255   -1333.6231 
     340   -1333.6232    12.807225    128.07225         4.05    162.67746  0.069726045    1473.4338   -985.47117   -1333.6232 
     350   -1333.6232    12.807225    128.07225         4.05    162.88427    2.0849681    1472.3991   -985.83125   -1333.6232 
     360   -1333.6232    12.807225    128.07225         4.05    162.88953    2.2651336    1472.3225   -985.91908   -1333.6232 
     370   -1333.6232    12.807225    128.07225         4.05    162.77074    2.9347945    1471.4062   -986.02881   -1333.6232 
     380   -1333.6232    12.807225    128.07225         4.05    162.70892    3.3748007    1470.7803   -986.02837   -1333.6232 
     390   -1333.6232    12.807225    128.07225         4.05    162.71073    3.5454484    1470.6244   -986.03761   -1333.6232 
     400   -1333.6232    12.807225    128.07225         4.05    162.76193    3.6531303    1470.7469   -986.11421   -1333.6232 
     410   -1333.6232    12.807225    128.07225         4.05    162.77144    3.7039631    1470.7087   -986.09837   -1333.6232 
     420   -1333.6232    12.807225    128.07225         4.05    162.75774    3.6852329    1470.6866   -986.09863   -1333.6232 
     430   -1333.6232    12.807225    128.07225         4.05     162.7561     3.701587    1470.6666    -986.0999   -1333.6232 
     440   -1333.6232    12.807225    128.07225         4.05    162.75655    3.7056533    1470.6688   -986.10476   -1333.6232 
     450   -1333.6232    12.807225    128.07225         4.05    162.75532    3.6976367    1470.6728   -986.10443   -1333.6232 
     460   -1333.6232    12.807225    128.07225         4.05    162.75595    3.6991523    1470.6734   -986.10467   -1333.6232 
     470   -1333.6232    12.807225    128.07225         4.05    162.75646    3.7050593    1470.6699    -986.1056   -1333.6232 
     477   -1333.6232    12.807225    128.07225         4.05    162.75648    3.7042736    1470.6718   -986.10669   -1333.6232 
Loop time of 2.16402 on 1 procs for 477 steps with 398 atoms

98.6% CPU use with 1 MPI tasks x 1 OpenMP threads

Minimization stats:
  Stopping criterion = energy tolerance
  Energy initial, next-to-last, final = 
        -1318.98429985      -1333.6231802      -1333.6231802
  Force two-norm initial, final = 17.5886 5.69143e-06
  Force max component initial, final = 6.25036 1.10791e-06
  Final line search alpha, max atom move = 1 1.10791e-06
  Iterations, force evaluations = 477 930

MPI task timing breakdown:
Section |  min time  |  avg time  |  max time  |%varavg| %total
---------------------------------------------------------------
Pair    | 1.9471     | 1.9471     | 1.9471     |   0.0 | 89.97
Neigh   | 0.0047197  | 0.0047197  | 0.0047197  |   0.0 |  0.22
Comm    | 0.080195   | 0.080195   | 0.080195   |   0.0 |  3.71
Output  | 0.091716   | 0.091716   | 0.091716   |   0.0 |  4.24
Modify  | 0          | 0          | 0          |   0.0 |  0.00
Other   |            | 0.04033    |            |       |  1.86

Nlocal:    398 ave 398 max 398 min
Histogram: 1 0 0 0 0 0 0 0 0 0
Nghost:    5281 ave 5281 max 5281 min
Histogram: 1 0 0 0 0 0 0 0 0 0
Neighs:    27720 ave 27720 max 27720 min
Histogram: 1 0 0 0 0 0 0 0 0 0
FullNghs:  55436 ave 55436 max 55436 min
Histogram: 1 0 0 0 0 0 0 0 0 0

Total # of neighbors = 55436
Ave neighs/atom = 139.286
Neighbor list builds = 3
Dangerous builds = 0
undump 1

# ---------- Run Minimization 2---------------------
# Now allow the box to expand/contract perpendicular to the grain boundary
reset_timestep 0
thermo 10
thermo_style custom step pe lx ly lz press pxx pyy pzz c_eatoms
fix 1 all box/relax y 0 vmax 0.001
min_style cg
minimize 1e-15 1e-15 5000 5000
WARNING: Resetting reneighboring criteria during minimization (../min.cpp:168)
Memory usage per processor = 4.39019 Mbytes
Step PotEng Lx Ly Lz Press Pxx Pyy Pzz c_eatoms 
       0   -1333.6232    12.807225    128.07225         4.05    162.75648    3.7042736    1470.6718   -986.10669   -1333.6232 
      10   -1333.6271    12.807225    128.23639         4.05   -843.17167   -752.01912    2.4879548   -1779.9839   -1333.6271 
      20   -1333.6271    12.807225    128.23694         4.05   -845.42449   -753.17452   0.50470996   -1783.6037   -1333.6271 
      30   -1333.6271    12.807225    128.23691         4.05   -845.75547   -753.65596   0.46149758    -1784.072   -1333.6271 
      40   -1333.6271    12.807225    128.23717         4.05    -846.4245   -754.23505   0.30592786   -1785.3444   -1333.6271 
      50   -1333.6271    12.807225    128.23732         4.05   -847.31255    -755.4133     0.433084   -1786.9574   -1333.6271 
      60   -1333.6271    12.807225    128.23717         4.05   -846.43603   -754.47227   0.38986353   -1785.2257   -1333.6271 
      70   -1333.6271    12.807225    128.23722         4.05   -846.82106   -754.95806   0.36230166   -1785.8674   -1333.6271 
      80   -1333.6271    12.807225    128.23727         4.05   -847.16656   -755.70425    0.3392705   -1786.1347   -1333.6271 
      90   -1333.6271    12.807225    128.23721         4.05   -846.87878   -755.31349   0.33075677   -1785.6536   -1333.6271 
     100   -1333.6271    12.807225    128.23722         4.05   -847.07413    -755.6895   0.31358884   -1785.8465   -1333.6271 
     110   -1333.6271    12.807225    128.23722         4.05   -847.09313   -756.19346    0.3157026   -1785.4016   -1333.6271 
     120   -1333.6271    12.807225    128.23726         4.05   -847.15194   -756.10344   0.41009355   -1785.7625   -1333.6271 
     130   -1333.6271    12.807225    128.23734         4.05   -847.49062   -756.14392   0.31079815   -1786.6387   -1333.6271 
     140   -1333.6271    12.807225    128.23733         4.05    -847.2731   -755.76001    0.4240138   -1786.4833   -1333.6271 
     150   -1333.6271    12.807225    128.23734         4.05   -847.32768   -755.68715   0.35080239   -1786.6467   -1333.6271 
     160   -1333.6271    12.807225    128.23734         4.05   -847.49834   -756.34228   0.37191668   -1786.5247   -1333.6271 
     170   -1333.6271    12.807225    128.23732         4.05   -847.44122   -756.74176   0.38515687   -1785.9671   -1333.6271 
     180   -1333.6271    12.807225    128.23734         4.05    -847.6339   -756.96389   0.31157914   -1786.2494   -1333.6271 
     190   -1333.6271    12.807225    128.23734         4.05    -847.8131    -757.3629   0.34183655   -1786.4183   -1333.6271 
     200   -1333.6271    12.807225     128.2373         4.05   -847.68052   -757.58412   0.37088417   -1785.8283   -1333.6271 
     210   -1333.6271    12.807225    128.23731         4.05   -847.75218   -757.61671   0.33100062   -1785.9708   -1333.6271 
     220   -1333.6271    12.807225    128.23737         4.05   -847.94514   -757.67105   0.39056299   -1786.5549   -1333.6271 
     230   -1333.6271    12.807225    128.23741         4.05   -848.05235   -758.00115   0.30565769   -1786.4616   -1333.6271 
     240   -1333.6271    12.807225    128.23744         4.05   -848.19022   -758.31321   0.28079337   -1786.5383   -1333.6271 
     250   -1333.6271    12.807225    128.23742         4.05   -848.16219   -758.28721   0.28396429   -1786.4833   -1333.6271 
     260   -1333.6271    12.807225    128.23742         4.05   -848.15471    -758.4768   0.23367722    -1786.221   -1333.6271 
     270   -1333.6271    12.807225    128.23745         4.05   -848.39173   -758.92271   0.24771911   -1786.5002   -1333.6271 
     280   -1333.6271    12.807225    128.23743         4.05   -848.33319   -758.90714   0.25980294   -1786.3522   -1333.6271 
     290   -1333.6271    12.807225    128.23741         4.05   -848.24676   -758.96019   0.24365427   -1786.0237   -1333.6271 
     300   -1333.6271    12.807225    128.23748         4.05   -848.60269   -759.19567   0.24299228   -1786.8554   -1333.6271 
     310   -1333.6271    12.807225    128.23748         4.05   -848.52593   -758.88691    0.2036751   -1786.8946   -1333.6271 
     320   -1333.6271    12.807225    128.23747         4.05   -848.52489   -758.92757   0.14433806   -1786.7914   -1333.6271 
     330   -1333.6271    12.807225    128.23753         4.05   -848.78661   -759.20053   0.14260523   -1787.3019   -1333.6271 
     340   -1333.6271    12.807225    128.23752         4.05   -848.62374    -759.0006   0.14594823   -1787.0166   -1333.6271 
     350   -1333.6271    12.807225    128.23752         4.05   -848.73081   -759.17549   0.15655087   -1787.1735   -1333.6271 
     360   -1333.6271    12.807225    128.23752         4.05   -848.77434   -759.16622   0.15519768    -1787.312   -1333.6271 
     370   -1333.6271    12.807225    128.23749         4.05   -848.52523   -758.92876   0.15073928   -1786.7977   -1333.6271 
     380   -1333.6271    12.807225    128.23752         4.05   -848.76248   -759.22381   0.10527089   -1787.1689   -1333.6271 
     390   -1333.6271    12.807225    128.23752         4.05   -848.78411   -759.29681   0.12410968   -1787.1796   -1333.6271 
     400   -1333.6271    12.807225    128.23749         4.05     -848.558   -759.07821    0.1471954    -1786.743   -1333.6271 
     410   -1333.6271    12.807225    128.23751         4.05   -848.73203   -759.20055   0.12997645   -1787.1255   -1333.6271 
     420   -1333.6271    12.807225    128.23753         4.05   -848.83685   -759.30871   0.14736383   -1787.3492   -1333.6271 
     430   -1333.6271    12.807225    128.23751         4.05   -848.65889   -759.14123   0.13402321   -1786.9695   -1333.6271 
     440   -1333.6271    12.807225    128.23752         4.05   -848.71415   -759.13316   0.11941479   -1787.1287   -1333.6271 
     450   -1333.6271    12.807225    128.23754         4.05   -848.80504   -759.16787   0.14244067   -1787.3897   -1333.6271 
     460   -1333.6271    12.807225    128.23751         4.05   -848.65179   -759.00837   0.12965295   -1787.0766   -1333.6271 
     470   -1333.6271    12.807225    128.23751         4.05   -848.61612   -758.97884   0.13414112   -1787.0037   -1333.6271 
     480   -1333.6271    12.807225    128.23752         4.05   -848.75612   -759.14938   0.13013127   -1787.2491   -1333.6271 
     490   -1333.6271    12.807225     128.2375         4.05   -848.68211   -759.16866    0.1221076   -1786.9998   -1333.6271 
     500   -1333.6271    12.807225    128.23749         4.05   -848.59975   -759.14129    0.1320399     -1786.79   -1333.6271 
     510   -1333.6271    12.807225    128.23751         4.05   -848.75033   -759.27144   0.12331834   -1787.1029   -1333.6271 
     520   -1333.6271    12.807225     128.2375         4.05   -848.75081   -759.25843   0.10015072   -1787.0942   -1333.6271 
     530   -1333.6271    12.807225    128.23748         4.05   -848.63797   -759.16659  0.086436147   -1786.8338   -1333.6271 
     540   -1333.6271    12.807225     128.2375         4.05   -848.71839   -759.27166  0.068793493   -1786.9523   -1333.6271 
     550   -1333.6271    12.807225    128.23751         4.05   -848.80249   -759.38358  0.070496223   -1787.0944   -1333.6271 
     560   -1333.6271    12.807225     128.2375         4.05   -848.71557   -759.31209  0.081644853   -1786.9163   -1333.6271 
     570   -1333.6271    12.807225    128.23749         4.05   -848.68455   -759.26725  0.086518541   -1786.8729   -1333.6271 
     580   -1333.6271    12.807225     128.2375         4.05   -848.78472   -759.36702  0.096497624   -1787.0836   -1333.6271 
     590   -1333.6271    12.807225    128.23749         4.05   -848.72812   -759.30007  0.099485885   -1786.9838   -1333.6271 
     600   -1333.6271    12.807225    128.23748         4.05    -848.6151   -759.10125   0.11276428   -1786.8568   -1333.6271 
     610   -1333.6271    12.807225     128.2375         4.05   -848.68959   -759.08015   0.11900782   -1787.1076   -1333.6271 
     620   -1333.6271    12.807225    128.23749         4.05   -848.62054   -758.92185   0.14120283    -1787.081   -1333.6271 
     630   -1333.6271    12.807225    128.23747         4.05   -848.45165   -758.61771   0.13313349   -1786.8704   -1333.6271 
     640   -1333.6271    12.807225    128.23748         4.05   -848.50872   -758.55293   0.12937935   -1787.1026   -1333.6271 
     650   -1333.6271    12.807225    128.23748         4.05   -848.50023   -758.50043   0.10662403   -1787.1069   -1333.6271 
     660   -1333.6271    12.807225    128.23747         4.05   -848.38178   -758.31644  0.088822148   -1786.9177   -1333.6271 
     670   -1333.6271    12.807225    128.23747         4.05   -848.42614   -758.32819  0.089834003   -1787.0401   -1333.6271 
     680   -1333.6271    12.807225    128.23747         4.05   -848.40837   -758.33493  0.098100723   -1786.9883   -1333.6271 
     690   -1333.6271    12.807225    128.23744         4.05   -848.23826   -758.14397   0.11150997   -1786.6823   -1333.6271 
     700   -1333.6271    12.807225    128.23743         4.05   -848.25786   -758.11892    0.1053529     -1786.76   -1333.6271 
     710   -1333.6271    12.807225    128.23744         4.05   -848.28494   -758.16576   0.11337144   -1786.8024   -1333.6271 
     720   -1333.6271    12.807225    128.23742         4.05     -848.184   -758.05662   0.10621874   -1786.6016   -1333.6271 
     730   -1333.6271    12.807225    128.23741         4.05   -848.16483   -758.02187   0.12631132   -1786.5989   -1333.6271 
     740   -1333.6271    12.807225    128.23742         4.05   -848.20346   -758.09635   0.12103079   -1786.6351   -1333.6271 
     750   -1333.6271    12.807225    128.23741         4.05   -848.14141   -758.01752   0.10920231   -1786.5159   -1333.6271 
     760   -1333.6271    12.807225    128.23741         4.05   -848.14428   -757.96274   0.10240074   -1786.5725   -1333.6271 
     770   -1333.6271    12.807225    128.23741         4.05   -848.17081    -757.9829  0.089972207   -1786.6195   -1333.6271 
     780   -1333.6271    12.807225    128.23741         4.05   -848.11674   -757.91668   0.08797264   -1786.5215   -1333.6271 
     790   -1333.6271    12.807225    128.23741         4.05   -848.09941   -757.84892  0.084031708   -1786.5333   -1333.6271 
     800   -1333.6271    12.807225    128.23741         4.05   -848.11507   -757.86264  0.071324545   -1786.5539   -1333.6271 
     810   -1333.6271    12.807225     128.2374         4.05   -848.08339   -757.84482  0.078273296   -1786.4836   -1333.6271 
     820   -1333.6271    12.807225     128.2374         4.05    -848.0853   -757.80564  0.069136475   -1786.5194   -1333.6271 
     830   -1333.6271    12.807225     128.2374         4.05   -848.09454   -757.78575  0.082848341   -1786.5807   -1333.6271 
     840   -1333.6271    12.807225     128.2374         4.05    -848.0851   -757.79929  0.078958088    -1786.535   -1333.6271 
     850   -1333.6271    12.807225     128.2374         4.05   -848.07775   -757.80563  0.076752431   -1786.5044   -1333.6271 
     860   -1333.6271    12.807225     128.2374         4.05   -848.08564   -757.79036  0.080355011   -1786.5469   -1333.6271 
     870   -1333.6271    12.807225     128.2374         4.05   -848.07696   -757.76979  0.077807288   -1786.5389   -1333.6271 
     880   -1333.6271    12.807225     128.2374         4.05   -848.05618   -757.76881  0.087736377   -1786.4875   -1333.6271 
     890   -1333.6271    12.807225     128.2374         4.05   -848.07882   -757.79982  0.082375704    -1786.519   -1333.6271 
     900   -1333.6271    12.807225    128.23741         4.05    -848.0994   -757.81515  0.084689319   -1786.5678   -1333.6271 
     910   -1333.6271    12.807225    128.23741         4.05   -848.09803   -757.82469  0.081802406   -1786.5512   -1333.6271 
     920   -1333.6271    12.807225     128.2374         4.05   -848.08577   -757.83065  0.081513649   -1786.5082   -1333.6271 
     930   -1333.6271    12.807225     128.2374         4.05   -848.08556   -757.83074  0.088823496   -1786.5148   -1333.6271 
     940   -1333.6271    12.807225    128.23741         4.05   -848.10457     -757.827  0.082734897   -1786.5695   -1333.6271 
     950   -1333.6271    12.807225    128.23741         4.05   -848.10677   -757.81386  0.090760075   -1786.5972   -1333.6271 
     960   -1333.6271    12.807225    128.23741         4.05   -848.12005   -757.83066  0.073178543   -1786.6027   -1333.6271 
     970   -1333.6271    12.807225    128.23741         4.05    -848.1237   -757.84763  0.077487755    -1786.601   -1333.6271 
     980   -1333.6271    12.807225    128.23742         4.05   -848.13818   -757.86007  0.069035121   -1786.6235   -1333.6271 
     990   -1333.6271    12.807225    128.23742         4.05   -848.14174   -757.84967  0.060986146   -1786.6365   -1333.6271 
    1000   -1333.6271    12.807225    128.23742         4.05   -848.13083   -757.82724  0.064474734   -1786.6297   -1333.6271 
    1010   -1333.6271    12.807225    128.23742         4.05   -848.13777   -757.83149  0.054251497   -1786.6361   -1333.6271 
    1020   -1333.6271    12.807225    128.23742         4.05   -848.14768   -757.84811  0.057927727   -1786.6528   -1333.6271 
    1030   -1333.6271    12.807225    128.23742         4.05   -848.15904   -757.86682  0.064362615   -1786.6747   -1333.6271 
    1040   -1333.6271    12.807225    128.23742         4.05    -848.1618   -757.87118  0.059115422   -1786.6733   -1333.6271 
    1050   -1333.6271    12.807225    128.23742         4.05   -848.14039   -757.85592   0.06793527   -1786.6332   -1333.6271 
    1060   -1333.6271    12.807225    128.23741         4.05   -848.11971   -757.85217  0.081008071    -1786.588   -1333.6271 
    1070   -1333.6271    12.807225    128.23741         4.05   -848.13593   -757.88672  0.081109667   -1786.6022   -1333.6271 
    1080   -1333.6271    12.807225    128.23742         4.05   -848.16566   -757.92725  0.090420596   -1786.6602   -1333.6271 
    1090   -1333.6271    12.807225    128.23742         4.05   -848.18418   -757.94318  0.098720416   -1786.7081   -1333.6271 
    1100   -1333.6271    12.807225    128.23742         4.05    -848.1711   -757.92067  0.089630981   -1786.6823   -1333.6271 
    1110   -1333.6271    12.807225    128.23741         4.05   -848.12905    -757.8823  0.089422736   -1786.5943   -1333.6271 
    1120   -1333.6271    12.807225    128.23741         4.05   -848.09903   -757.87537  0.093869076   -1786.5156   -1333.6271 
    1130   -1333.6271    12.807225    128.23741         4.05   -848.12665   -757.92993   0.08247581   -1786.5325   -1333.6271 
    1140   -1333.6271    12.807225    128.23742         4.05   -848.17393   -757.99436  0.078855615   -1786.6063   -1333.6271 
    1150   -1333.6271    12.807225    128.23742         4.05   -848.20306   -758.03028  0.089315911   -1786.6682   -1333.6271 
    1160   -1333.6271    12.807225    128.23742         4.05   -848.19524   -758.01621  0.086424058   -1786.6559   -1333.6271 
    1170   -1333.6271    12.807225    128.23742         4.05   -848.15668   -757.96957  0.077377595   -1786.5779   -1333.6271 
    1180   -1333.6271    12.807225    128.23741         4.05   -848.12107   -757.93229  0.078262218   -1786.5092   -1333.6271 
    1190   -1333.6271    12.807225    128.23741         4.05    -848.1351   -757.94709  0.071943603   -1786.5302   -1333.6271 
    1200   -1333.6271    12.807225    128.23742         4.05   -848.19734   -758.00988 0.00064058426   -1786.5828   -1333.6271 
    1210   -1333.6271    12.807225    128.23737         4.05   -847.86959    -757.7471   0.52900415   -1786.3907   -1333.6271 
    1220   -1333.6271    12.807225    128.23742         4.05   -848.19227   -757.98244  0.056925895   -1786.6513   -1333.6271 
    1227   -1333.6271    12.807225    128.23743         4.05   -848.24115   -758.01797 -0.018967943   -1786.6865   -1333.6271 
Loop time of 5.7994 on 1 procs for 1227 steps with 398 atoms

99.0% CPU use with 1 MPI tasks x 1 OpenMP threads

Minimization stats:
  Stopping criterion = energy tolerance
  Energy initial, next-to-last, final = 
         -1333.6231802      -1333.6271111      -1333.6271111
  Force two-norm initial, final = 6.09776 0.000113945
  Force max component initial, final = 6.09776 7.86457e-05
  Final line search alpha, max atom move = 1 7.86457e-05
  Iterations, force evaluations = 1227 2453

MPI task timing breakdown:
Section |  min time  |  avg time  |  max time  |%varavg| %total
---------------------------------------------------------------
Pair    | 5.2154     | 5.2154     | 5.2154     |   0.0 | 89.93
Neigh   | 0          | 0          | 0          |   0.0 |  0.00
Comm    | 0.16073    | 0.16073    | 0.16073    |   0.0 |  2.77
Output  | 0.015344   | 0.015344   | 0.015344   |   0.0 |  0.26
Modify  | 0          | 0          | 0          |   0.0 |  0.00
Other   |            | 0.4079     |            |       |  7.03

Nlocal:    398 ave 398 max 398 min
Histogram: 1 0 0 0 0 0 0 0 0 0
Nghost:    5167 ave 5167 max 5167 min
Histogram: 1 0 0 0 0 0 0 0 0 0
Neighs:    27706 ave 27706 max 27706 min
Histogram: 1 0 0 0 0 0 0 0 0 0
FullNghs:  55436 ave 55436 max 55436 min
Histogram: 1 0 0 0 0 0 0 0 0 0

Total # of neighbors = 55436
Ave neighs/atom = 139.286
Neighbor list builds = 0
Dangerous builds = 0

# ---------- Calculate GB Energy ---------------------
variable minimumenergy equal -3.360000
variable esum equal "v_minimumenergy * count(all)"
variable xseng equal "c_eatoms - (v_minimumenergy * count(all))"
variable gbarea equal "lx * lz * 2"
variable gbe equal "(c_eatoms - (v_minimumenergy * count(all)))/v_gbarea"
variable gbemJm2 equal ${gbe}*16021.7733
variable gbemJm2 equal 0.0352124631661503*16021.7733
variable gbernd equal round(${gbemJm2})
variable gbernd equal round(564.16610218266)
print "GB energy is ${gbemJm2} mJ/m^2"
GB energy is 564.16610218266 mJ/m^2

# ---------- Dump data into Data file -------------
reset_timestep 0
dump 		1 all cfg 10000 dump.al_sig5_310_*.cfg mass type xs ys zs c_csym c_eng fx fy fz
dump_modify     1 element Al Al
minimize 1e-15 1e-15 5000 5000
WARNING: Resetting reneighboring criteria during minimization (../min.cpp:168)
Memory usage per processor = 5.67055 Mbytes
Step PotEng Lx Ly Lz Press Pxx Pyy Pzz c_eatoms 
       0   -1333.6271    12.807225    128.23743         4.05   -848.24115   -758.01797 -0.018967943   -1786.6865   -1333.6271 
      10   -1333.6271    12.807225    128.23743         4.05   -848.23303   -758.03164 -0.0037472753   -1786.6637   -1333.6271 
      20   -1333.6271    12.807225    128.23743         4.05   -848.25105   -758.04599 -0.023085595   -1786.6841   -1333.6271 
Loop time of 0.104377 on 1 procs for 20 steps with 398 atoms

93.4% CPU use with 1 MPI tasks x 1 OpenMP threads

Minimization stats:
  Stopping criterion = energy tolerance
  Energy initial, next-to-last, final = 
         -1333.6271111      -1333.6271111      -1333.6271111
  Force two-norm initial, final = 0.000114015 0.000127141
  Force max component initial, final = 7.87471e-05 9.58419e-05
  Final line search alpha, max atom move = 1 9.58419e-05
  Iterations, force evaluations = 20 40

MPI task timing breakdown:
Section |  min time  |  avg time  |  max time  |%varavg| %total
---------------------------------------------------------------
Pair    | 0.090576   | 0.090576   | 0.090576   |   0.0 | 86.78
Neigh   | 0          | 0          | 0          |   0.0 |  0.00
Comm    | 0.0025525  | 0.0025525  | 0.0025525  |   0.0 |  2.45
Output  | 0.00028844 | 0.00028844 | 0.00028844 |   0.0 |  0.28
Modify  | 0          | 0          | 0          |   0.0 |  0.00
Other   |            | 0.01096    |            |       | 10.50

Nlocal:    398 ave 398 max 398 min
Histogram: 1 0 0 0 0 0 0 0 0 0
Nghost:    5167 ave 5167 max 5167 min
Histogram: 1 0 0 0 0 0 0 0 0 0
Neighs:    27706 ave 27706 max 27706 min
Histogram: 1 0 0 0 0 0 0 0 0 0
FullNghs:  55412 ave 55412 max 55412 min
Histogram: 1 0 0 0 0 0 0 0 0 0

Total # of neighbors = 55412
Ave neighs/atom = 139.226
Neighbor list builds = 0
Dangerous builds = 0
undump 1

write_restart restart.al_sig5_310_stgb
Neighbor list info ...
  2 neighbor list requests
  update every 1 steps, delay 10 steps, check yes
  max neighbors/atom: 2000, page size: 100000
  master list distance cutoff = 8.28721
  ghost atom cutoff = 8.28721
  binsize = 4.1436 -> bins = 4 31 1

print "All done"
All done
Total wall time: 0:00:08
