 argument  1 = pspw_MgO.nw
                                         
                                         


              Northwest Computational Chemistry Package (NWChem) 6.5
              ------------------------------------------------------


                    Environmental Molecular Sciences Laboratory
                       Pacific Northwest National Laboratory
                                Richland, WA 99352

                              Copyright (c) 1994-2014
                       Pacific Northwest National Laboratory
                            Battelle Memorial Institute

             NWChem is an open-source computational chemistry package
                        distributed under the terms of the
                      Educational Community License (ECL) 2.0
             A copy of the license is included with this distribution
                              in the LICENSE.TXT file

                                  ACKNOWLEDGMENT
                                  --------------

            This software and its documentation were developed at the
            EMSL at Pacific Northwest National Laboratory, a multiprogram
            national laboratory, operated for the U.S. Department of Energy
            by Battelle under Contract Number DE-AC05-76RL01830. Support
            for this work was provided by the Department of Energy Office
            of Biological and Environmental Research, Office of Basic
            Energy Sciences, and the Office of Advanced Scientific Computing.


           Job information
           ---------------

    hostname        = lxir127
    program         = nwchem
    date            = Sun Jul 12 16:51:15 2020

    compiled        = Sun_Nov_23_17:10:25_2014
    source          = /build/nwchem-cguOg2/nwchem-6.5+r26243
    nwchem branch   = 6.5
    nwchem revision = 26243
    ga revision     = 10506
    input           = pspw_MgO.nw
    prefix          = MgO.
    data base       = ./MgO.db
    status          = startup
    nproc           =        2
    time left       =     -1s



           Memory information
           ------------------

    heap     =    3276796 doubles =     25.0 Mbytes
    stack    =    2883585 doubles =     22.0 Mbytes
    global   =    2883584 doubles =     22.0 Mbytes (distinct from heap & stack)
    total    =    9043965 doubles =     69.0 Mbytes
    verify   = yes
    hardfail = no 


           Directory information
           ---------------------

  0 permanent = .
  0 scratch   = .




                                NWChem Input Module
                                -------------------


                                     MgO cell
                                     --------

 Scaling coordinates for geometry "geometry" by  1.889725989
 (inverse scale =  0.529177249)

 C4V symmetry detected

          ------
          auto-z
          ------
      warning. autoz generated   13 bonds for atom    2
      warning. autoz generated   13 bonds for atom    3
      warning. autoz generated   13 bonds for atom    4
      warning. autoz generated   13 bonds for atom    6
      warning. autoz generated   13 bonds for atom    8
      warning. autoz generated   13 bonds for atom   11
  autoz: too many torsions 
     1 autoz failed with cvr_scaling = 1.2 changing to 1.3
      warning. autoz generated   13 bonds for atom    2
      warning. autoz generated   13 bonds for atom    3
      warning. autoz generated   13 bonds for atom    4
      warning. autoz generated   13 bonds for atom    6
      warning. autoz generated   13 bonds for atom    8
      warning. autoz generated   13 bonds for atom   11
  autoz: too many torsions 
     2 autoz failed with cvr_scaling = 1.3 changing to 1.4
      warning. autoz generated   13 bonds for atom    2
      warning. autoz generated   13 bonds for atom    3
      warning. autoz generated   13 bonds for atom    4
      warning. autoz generated   13 bonds for atom    6
      warning. autoz generated   13 bonds for atom    8
      warning. autoz generated   13 bonds for atom   11
  autoz: too many torsions 
     3 autoz failed with cvr_scaling = 1.4 changing to 1.5
      warning. autoz generated    9 bonds for atom    1
      warning. autoz generated   14 bonds for atom    2
      warning. autoz generated   14 bonds for atom    3
      warning. autoz generated   14 bonds for atom    4
      warning. autoz generated    9 bonds for atom    5
      warning. autoz generated   14 bonds for atom    6
      warning. autoz generated    9 bonds for atom    7
      warning. autoz generated   14 bonds for atom    8
      warning. autoz generated    9 bonds for atom    9
      warning. autoz generated    9 bonds for atom   10
      warning. autoz generated   14 bonds for atom   11
      warning. autoz generated    9 bonds for atom   12
      warning. autoz generated    9 bonds for atom   13
      warning. autoz generated    9 bonds for atom   14
  autoz: too many torsions 
     4 autoz failed with cvr_scaling = 1.5 changing to 1.6
      warning. autoz generated    9 bonds for atom    1
      warning. autoz generated   14 bonds for atom    2
      warning. autoz generated   14 bonds for atom    3
      warning. autoz generated   14 bonds for atom    4
      warning. autoz generated    9 bonds for atom    5
      warning. autoz generated   14 bonds for atom    6
      warning. autoz generated    9 bonds for atom    7
      warning. autoz generated   14 bonds for atom    8
      warning. autoz generated    9 bonds for atom    9
      warning. autoz generated    9 bonds for atom   10
      warning. autoz generated   14 bonds for atom   11
      warning. autoz generated    9 bonds for atom   12
      warning. autoz generated    9 bonds for atom   13
      warning. autoz generated    9 bonds for atom   14
  autoz: too many torsions 
     5 autoz failed with cvr_scaling = 1.6 changing to 1.7
      warning. autoz generated    9 bonds for atom    1
      warning. autoz generated   14 bonds for atom    2
      warning. autoz generated   14 bonds for atom    3
      warning. autoz generated   14 bonds for atom    4
      warning. autoz generated    9 bonds for atom    5
      warning. autoz generated   14 bonds for atom    6
      warning. autoz generated    9 bonds for atom    7
      warning. autoz generated   14 bonds for atom    8
      warning. autoz generated    9 bonds for atom    9
      warning. autoz generated    9 bonds for atom   10
      warning. autoz generated   14 bonds for atom   11
      warning. autoz generated    9 bonds for atom   12
      warning. autoz generated    9 bonds for atom   13
      warning. autoz generated    9 bonds for atom   14
  autoz: too many torsions 

 AUTOZ failed to generate good internal coordinates.
 Cartesian coordinates will be used in optimizations.



                             Geometry "geometry" -> ""
                             -------------------------

 Output coordinates in angstroms (scale by  1.889725989 to convert to a.u.)

  No.       Tag          Charge          X              Y              Z
 ---- ---------------- ---------- -------------- -------------- --------------
    1 Mg                  12.0000     2.97974798     0.00000000     2.10669118
    2 Mg                  12.0000     0.00000000     0.00000000     2.10669118
    3 Mg                  12.0000     1.48987399    -1.48987399    -0.00030882
    4 Mg                  12.0000     1.48987399     1.48987399    -0.00030882
    5 Mg                  12.0000     2.97974798     0.00000000    -2.10730882
    6 Mg                  12.0000     0.00000000     0.00000000    -2.10030882
    7 Mg                  12.0000     0.00000000    -2.97974798     2.10669118
    8 Mg                  12.0000    -1.48987399    -1.48987399    -0.00030882
    9 Mg                  12.0000    -0.00000000    -2.97974798    -2.10730882
   10 Mg                  12.0000     0.00000000     2.97974798     2.10669118
   11 Mg                  12.0000    -1.48987399     1.48987399    -0.00030882
   12 Mg                  12.0000     0.00000000     2.97974798    -2.10730882
   13 Mg                  12.0000    -2.97974798     0.00000000     2.10669118
   14 Mg                  12.0000    -2.97974798    -0.00000000    -2.10730882
   15 O                    8.0000     0.00000000     0.00000000    -0.00030882
   16 O                    8.0000     2.97974798     0.00000000    -0.00030882
   17 O                    8.0000     1.48987399     1.48987399     2.10669118
   18 O                    8.0000     1.48987399    -1.48987399     2.10669118
   19 O                    8.0000     1.48987399     1.48987399    -2.10730882
   20 O                    8.0000     1.48987399    -1.48987399    -2.10730882
   21 O                    8.0000     0.00000000    -2.97974798    -0.00030882
   22 O                    8.0000    -1.48987399    -1.48987399     2.10669118
   23 O                    8.0000    -1.48987399    -1.48987399    -2.10730882
   24 O                    8.0000     0.00000000     2.97974798    -0.00030882
   25 O                    8.0000    -1.48987399     1.48987399     2.10669118
   26 O                    8.0000    -1.48987399     1.48987399    -2.10730882
   27 O                    8.0000    -2.97974798     0.00000000    -0.00030882

      Atomic Mass 
      ----------- 

      Mg                23.985040
      O                 15.994910


 Effective nuclear repulsion energy (a.u.)    5155.7438965227

            Nuclear Dipole moment (a.u.) 
            ----------------------------
        X                 Y               Z
 ---------------- ---------------- ----------------
     0.0000000000    -0.0000000000     0.0000000000

      Symmetry information
      --------------------

 Group name             C4v       
 Group number             18
 Group order               8
 No. of unique centers     9

      Symmetry unique atoms

     1    2    3    5    6   15   16   17   19

 ==============================================================================
                                internuclear distances
 ------------------------------------------------------------------------------
       center one      |      center two      | atomic units |  angstroms
 ------------------------------------------------------------------------------
    2 Mg               |   1 Mg               |     5.63091  |     2.97975
    3 Mg               |   1 Mg               |     5.63091  |     2.97975
    3 Mg               |   2 Mg               |     5.63091  |     2.97975
    4 Mg               |   1 Mg               |     5.63091  |     2.97975
    4 Mg               |   2 Mg               |     5.63091  |     2.97975
    4 Mg               |   3 Mg               |     5.63091  |     2.97975
    5 Mg               |   3 Mg               |     5.63091  |     2.97975
    5 Mg               |   4 Mg               |     5.63091  |     2.97975
    6 Mg               |   3 Mg               |     5.62156  |     2.97480
    6 Mg               |   4 Mg               |     5.62156  |     2.97480
    6 Mg               |   5 Mg               |     5.63092  |     2.97976
    7 Mg               |   2 Mg               |     5.63091  |     2.97975
    7 Mg               |   3 Mg               |     5.63091  |     2.97975
    8 Mg               |   2 Mg               |     5.63091  |     2.97975
    8 Mg               |   3 Mg               |     5.63091  |     2.97975
    8 Mg               |   6 Mg               |     5.62156  |     2.97480
    8 Mg               |   7 Mg               |     5.63091  |     2.97975
    9 Mg               |   3 Mg               |     5.63091  |     2.97975
    9 Mg               |   6 Mg               |     5.63092  |     2.97976
    9 Mg               |   8 Mg               |     5.63091  |     2.97975
   10 Mg               |   2 Mg               |     5.63091  |     2.97975
   10 Mg               |   4 Mg               |     5.63091  |     2.97975
   11 Mg               |   2 Mg               |     5.63091  |     2.97975
   11 Mg               |   4 Mg               |     5.63091  |     2.97975
   11 Mg               |   6 Mg               |     5.62156  |     2.97480
   11 Mg               |   8 Mg               |     5.63091  |     2.97975
   11 Mg               |  10 Mg               |     5.63091  |     2.97975
   12 Mg               |   4 Mg               |     5.63091  |     2.97975
   12 Mg               |   6 Mg               |     5.63092  |     2.97976
   12 Mg               |  11 Mg               |     5.63091  |     2.97975
   13 Mg               |   2 Mg               |     5.63091  |     2.97975
   13 Mg               |   8 Mg               |     5.63091  |     2.97975
   13 Mg               |  11 Mg               |     5.63091  |     2.97975
   14 Mg               |   6 Mg               |     5.63092  |     2.97976
   14 Mg               |   8 Mg               |     5.63091  |     2.97975
   14 Mg               |  11 Mg               |     5.63091  |     2.97975
   15 O                |   2 Mg               |     3.98165  |     2.10700
   15 O                |   3 Mg               |     3.98165  |     2.10700
   15 O                |   4 Mg               |     3.98165  |     2.10700
   15 O                |   6 Mg               |     3.96842  |     2.10000
   15 O                |   8 Mg               |     3.98165  |     2.10700
   15 O                |  11 Mg               |     3.98165  |     2.10700
   16 O                |   1 Mg               |     3.98165  |     2.10700
   16 O                |   3 Mg               |     3.98165  |     2.10700
   16 O                |   4 Mg               |     3.98165  |     2.10700
   16 O                |   5 Mg               |     3.98165  |     2.10700
   17 O                |   1 Mg               |     3.98165  |     2.10700
   17 O                |   2 Mg               |     3.98165  |     2.10700
   17 O                |   4 Mg               |     3.98165  |     2.10700
   17 O                |  10 Mg               |     3.98165  |     2.10700
   18 O                |   1 Mg               |     3.98165  |     2.10700
   18 O                |   2 Mg               |     3.98165  |     2.10700
   18 O                |   3 Mg               |     3.98165  |     2.10700
   18 O                |   7 Mg               |     3.98165  |     2.10700
   19 O                |   4 Mg               |     3.98165  |     2.10700
   19 O                |   5 Mg               |     3.98165  |     2.10700
   19 O                |   6 Mg               |     3.98167  |     2.10701
   19 O                |  12 Mg               |     3.98165  |     2.10700
   20 O                |   3 Mg               |     3.98165  |     2.10700
   20 O                |   5 Mg               |     3.98165  |     2.10700
   20 O                |   6 Mg               |     3.98167  |     2.10701
   20 O                |   9 Mg               |     3.98165  |     2.10700
   21 O                |   3 Mg               |     3.98165  |     2.10700
   21 O                |   7 Mg               |     3.98165  |     2.10700
   21 O                |   8 Mg               |     3.98165  |     2.10700
   21 O                |   9 Mg               |     3.98165  |     2.10700
   22 O                |   2 Mg               |     3.98165  |     2.10700
   22 O                |   7 Mg               |     3.98165  |     2.10700
   22 O                |   8 Mg               |     3.98165  |     2.10700
   22 O                |  13 Mg               |     3.98165  |     2.10700
   23 O                |   6 Mg               |     3.98167  |     2.10701
   23 O                |   8 Mg               |     3.98165  |     2.10700
   23 O                |   9 Mg               |     3.98165  |     2.10700
   23 O                |  14 Mg               |     3.98165  |     2.10700
   24 O                |   4 Mg               |     3.98165  |     2.10700
   24 O                |  10 Mg               |     3.98165  |     2.10700
   24 O                |  11 Mg               |     3.98165  |     2.10700
   24 O                |  12 Mg               |     3.98165  |     2.10700
   25 O                |   2 Mg               |     3.98165  |     2.10700
   25 O                |  10 Mg               |     3.98165  |     2.10700
   25 O                |  11 Mg               |     3.98165  |     2.10700
   25 O                |  13 Mg               |     3.98165  |     2.10700
   26 O                |   6 Mg               |     3.98167  |     2.10701
   26 O                |  11 Mg               |     3.98165  |     2.10700
   26 O                |  12 Mg               |     3.98165  |     2.10700
   26 O                |  14 Mg               |     3.98165  |     2.10700
   27 O                |   8 Mg               |     3.98165  |     2.10700
   27 O                |  11 Mg               |     3.98165  |     2.10700
   27 O                |  13 Mg               |     3.98165  |     2.10700
   27 O                |  14 Mg               |     3.98165  |     2.10700
 ------------------------------------------------------------------------------
                         number of included internuclear distances:         90
 ==============================================================================



 ==============================================================================
                                 internuclear angles
 ------------------------------------------------------------------------------
        center 1       |       center 2       |       center 3       |  degrees
 ------------------------------------------------------------------------------
    1 Mg               |   3 Mg               |   2 Mg               |    60.00
    1 Mg               |   4 Mg               |   2 Mg               |    60.00
    2 Mg               |   1 Mg               |  16 O                |    90.00
    1 Mg               |  17 O                |   2 Mg               |    90.00
    1 Mg               |  18 O                |   2 Mg               |    90.00
    3 Mg               |   1 Mg               |   4 Mg               |    60.00
    1 Mg               |  16 O                |   3 Mg               |    90.00
    3 Mg               |   1 Mg               |  17 O                |    90.00
    1 Mg               |  18 O                |   3 Mg               |    90.00
    1 Mg               |  16 O                |   4 Mg               |    90.00
    1 Mg               |  17 O                |   4 Mg               |    90.00
    4 Mg               |   1 Mg               |  18 O                |    90.00
   16 O                |   1 Mg               |  17 O                |    90.00
   16 O                |   1 Mg               |  18 O                |    90.00
   17 O                |   1 Mg               |  18 O                |    90.00
    2 Mg               |   3 Mg               |   1 Mg               |    60.00
    2 Mg               |   4 Mg               |   1 Mg               |    60.00
    1 Mg               |   2 Mg               |   7 Mg               |    90.00
    1 Mg               |   2 Mg               |   8 Mg               |   120.00
    1 Mg               |   2 Mg               |  10 Mg               |    90.00
    1 Mg               |   2 Mg               |  11 Mg               |   120.00
    1 Mg               |   2 Mg               |  13 Mg               |   180.00
    1 Mg               |   2 Mg               |  15 O                |    90.00
    2 Mg               |  17 O                |   1 Mg               |    90.00
    2 Mg               |  18 O                |   1 Mg               |    90.00
    1 Mg               |   2 Mg               |  22 O                |   135.00
    1 Mg               |   2 Mg               |  25 O                |   135.00
    3 Mg               |   2 Mg               |   4 Mg               |    60.00
    2 Mg               |   3 Mg               |   7 Mg               |    60.00
    2 Mg               |   3 Mg               |   8 Mg               |    60.00
    3 Mg               |   2 Mg               |  10 Mg               |   120.00
    3 Mg               |   2 Mg               |  11 Mg               |    90.00
    3 Mg               |   2 Mg               |  13 Mg               |   120.00
    2 Mg               |  15 O                |   3 Mg               |    90.00
    3 Mg               |   2 Mg               |  17 O                |    90.00
    2 Mg               |  18 O                |   3 Mg               |    90.00
    3 Mg               |   2 Mg               |  22 O                |    90.00
    3 Mg               |   2 Mg               |  25 O                |   135.00
    4 Mg               |   2 Mg               |   7 Mg               |   120.00
    4 Mg               |   2 Mg               |   8 Mg               |    90.00
    4 Mg               |   2 Mg               |  10 Mg               |    60.00
    2 Mg               |   4 Mg               |  11 Mg               |    60.00
    4 Mg               |   2 Mg               |  13 Mg               |   120.00
    2 Mg               |  15 O                |   4 Mg               |    90.00
    2 Mg               |  17 O                |   4 Mg               |    90.00
    4 Mg               |   2 Mg               |  18 O                |    90.00
    4 Mg               |   2 Mg               |  22 O                |   135.00
    4 Mg               |   2 Mg               |  25 O                |    90.00
    2 Mg               |   8 Mg               |   7 Mg               |    60.00
    7 Mg               |   2 Mg               |  10 Mg               |   180.00
    7 Mg               |   2 Mg               |  11 Mg               |   120.00
    7 Mg               |   2 Mg               |  13 Mg               |    90.00
    7 Mg               |   2 Mg               |  15 O                |    90.00
    7 Mg               |   2 Mg               |  17 O                |   135.00
    2 Mg               |  18 O                |   7 Mg               |    90.00
    2 Mg               |  22 O                |   7 Mg               |    90.00
    7 Mg               |   2 Mg               |  25 O                |   135.00
    8 Mg               |   2 Mg               |  10 Mg               |   120.00
    2 Mg               |   8 Mg               |  11 Mg               |    60.00
    2 Mg               |   8 Mg               |  13 Mg               |    60.00
    2 Mg               |  15 O                |   8 Mg               |    90.00
    8 Mg               |   2 Mg               |  17 O                |   135.00
    8 Mg               |   2 Mg               |  18 O                |    90.00
    2 Mg               |  22 O                |   8 Mg               |    90.00
    8 Mg               |   2 Mg               |  25 O                |    90.00
    2 Mg               |  10 Mg               |  11 Mg               |    60.00
   10 Mg               |   2 Mg               |  13 Mg               |    90.00
   10 Mg               |   2 Mg               |  15 O                |    90.00
    2 Mg               |  17 O                |  10 Mg               |    90.00
   10 Mg               |   2 Mg               |  18 O                |   135.00
   10 Mg               |   2 Mg               |  22 O                |   135.00
    2 Mg               |  25 O                |  10 Mg               |    90.00
    2 Mg               |  11 Mg               |  13 Mg               |    60.00
    2 Mg               |  15 O                |  11 Mg               |    90.00
   11 Mg               |   2 Mg               |  17 O                |    90.00
   11 Mg               |   2 Mg               |  18 O                |   135.00
   11 Mg               |   2 Mg               |  22 O                |    90.00
    2 Mg               |  25 O                |  11 Mg               |    90.00
   13 Mg               |   2 Mg               |  15 O                |    90.00
   13 Mg               |   2 Mg               |  17 O                |   135.00
   13 Mg               |   2 Mg               |  18 O                |   135.00
    2 Mg               |  22 O                |  13 Mg               |    90.00
    2 Mg               |  25 O                |  13 Mg               |    90.00
   15 O                |   2 Mg               |  17 O                |    90.00
   15 O                |   2 Mg               |  18 O                |    90.00
   15 O                |   2 Mg               |  22 O                |    90.00
   15 O                |   2 Mg               |  25 O                |    90.00
   17 O                |   2 Mg               |  18 O                |    90.00
   17 O                |   2 Mg               |  22 O                |   180.00
   17 O                |   2 Mg               |  25 O                |    90.00
   18 O                |   2 Mg               |  22 O                |    90.00
   18 O                |   2 Mg               |  25 O                |   180.00
   22 O                |   2 Mg               |  25 O                |    90.00
    1 Mg               |   3 Mg               |   2 Mg               |    60.00
    3 Mg               |   1 Mg               |   4 Mg               |    60.00
    1 Mg               |   3 Mg               |   5 Mg               |    90.00
    1 Mg               |   3 Mg               |   6 Mg               |   119.94
    1 Mg               |   3 Mg               |   7 Mg               |    90.00
    1 Mg               |   3 Mg               |   8 Mg               |   120.00
    1 Mg               |   3 Mg               |   9 Mg               |   180.00
    1 Mg               |   3 Mg               |  15 O                |    90.00
    3 Mg               |  16 O                |   1 Mg               |    90.00
    3 Mg               |  18 O                |   1 Mg               |    90.00
    1 Mg               |   3 Mg               |  20 O                |   135.00
    1 Mg               |   3 Mg               |  21 O                |   135.00
    3 Mg               |   2 Mg               |   4 Mg               |    60.00
    2 Mg               |   3 Mg               |   5 Mg               |   120.00
    2 Mg               |   3 Mg               |   6 Mg               |    89.90
    2 Mg               |   3 Mg               |   7 Mg               |    60.00
    3 Mg               |   2 Mg               |   8 Mg               |    60.00
    2 Mg               |   3 Mg               |   9 Mg               |   120.00
    3 Mg               |  15 O                |   2 Mg               |    90.00
    2 Mg               |   3 Mg               |  16 O                |    90.00
    3 Mg               |  18 O                |   2 Mg               |    90.00
    2 Mg               |   3 Mg               |  20 O                |   135.00
    2 Mg               |   3 Mg               |  21 O                |    90.00
    3 Mg               |   5 Mg               |   4 Mg               |    60.00
    3 Mg               |   6 Mg               |   4 Mg               |    60.11
    4 Mg               |   3 Mg               |   7 Mg               |   120.00
    4 Mg               |   3 Mg               |   8 Mg               |    90.00
    4 Mg               |   3 Mg               |   9 Mg               |   120.00
    3 Mg               |  15 O                |   4 Mg               |    90.00
    3 Mg               |  16 O                |   4 Mg               |    90.00
    4 Mg               |   3 Mg               |  18 O                |    90.00
    4 Mg               |   3 Mg               |  20 O                |    90.00
    4 Mg               |   3 Mg               |  21 O                |   135.00
    5 Mg               |   3 Mg               |   6 Mg               |    60.06
    5 Mg               |   3 Mg               |   7 Mg               |   180.00
    5 Mg               |   3 Mg               |   8 Mg               |   120.00
    5 Mg               |   3 Mg               |   9 Mg               |    90.00
    5 Mg               |   3 Mg               |  15 O                |    90.00
    3 Mg               |  16 O                |   5 Mg               |    90.00
    5 Mg               |   3 Mg               |  18 O                |   135.00
    3 Mg               |  20 O                |   5 Mg               |    90.00
    5 Mg               |   3 Mg               |  21 O                |   135.00
    6 Mg               |   3 Mg               |   7 Mg               |   119.94
    3 Mg               |   6 Mg               |   8 Mg               |    60.11
    6 Mg               |   3 Mg               |   9 Mg               |    60.06
    3 Mg               |  15 O                |   6 Mg               |    90.00
    6 Mg               |   3 Mg               |  16 O                |    90.00
    6 Mg               |   3 Mg               |  18 O                |   134.90
    3 Mg               |  20 O                |   6 Mg               |    89.81
    6 Mg               |   3 Mg               |  21 O                |    90.00
    3 Mg               |   7 Mg               |   8 Mg               |    60.00
    7 Mg               |   3 Mg               |   9 Mg               |    90.00
    7 Mg               |   3 Mg               |  15 O                |    90.00
    7 Mg               |   3 Mg               |  16 O                |   135.00
    3 Mg               |  18 O                |   7 Mg               |    90.00
    7 Mg               |   3 Mg               |  20 O                |   135.00
    3 Mg               |  21 O                |   7 Mg               |    90.00
    3 Mg               |   8 Mg               |   9 Mg               |    60.00
    3 Mg               |  15 O                |   8 Mg               |    90.00
    8 Mg               |   3 Mg               |  16 O                |   135.00
    8 Mg               |   3 Mg               |  18 O                |    90.00
    8 Mg               |   3 Mg               |  20 O                |    90.00
    3 Mg               |  21 O                |   8 Mg               |    90.00
    9 Mg               |   3 Mg               |  15 O                |    90.00
    9 Mg               |   3 Mg               |  16 O                |   135.00
    9 Mg               |   3 Mg               |  18 O                |   135.00
    3 Mg               |  20 O                |   9 Mg               |    90.00
    3 Mg               |  21 O                |   9 Mg               |    90.00
   15 O                |   3 Mg               |  16 O                |    90.00
   15 O                |   3 Mg               |  18 O                |    90.00
   15 O                |   3 Mg               |  20 O                |    90.00
   15 O                |   3 Mg               |  21 O                |    90.00
   16 O                |   3 Mg               |  18 O                |    90.00
   16 O                |   3 Mg               |  20 O                |    90.00
   16 O                |   3 Mg               |  21 O                |   180.00
   18 O                |   3 Mg               |  20 O                |   180.00
   18 O                |   3 Mg               |  21 O                |    90.00
   20 O                |   3 Mg               |  21 O                |    90.00
    1 Mg               |   4 Mg               |   2 Mg               |    60.00
    4 Mg               |   1 Mg               |   3 Mg               |    60.00
    1 Mg               |   4 Mg               |   5 Mg               |    90.00
    1 Mg               |   4 Mg               |   6 Mg               |   119.94
    1 Mg               |   4 Mg               |  10 Mg               |    90.00
    1 Mg               |   4 Mg               |  11 Mg               |   120.00
    1 Mg               |   4 Mg               |  12 Mg               |   180.00
    1 Mg               |   4 Mg               |  15 O                |    90.00
    4 Mg               |  16 O                |   1 Mg               |    90.00
    4 Mg               |  17 O                |   1 Mg               |    90.00
    1 Mg               |   4 Mg               |  19 O                |   135.00
    1 Mg               |   4 Mg               |  24 O                |   135.00
    4 Mg               |   2 Mg               |   3 Mg               |    60.00
    2 Mg               |   4 Mg               |   5 Mg               |   120.00
    2 Mg               |   4 Mg               |   6 Mg               |    89.90
    4 Mg               |   2 Mg               |  10 Mg               |    60.00
    4 Mg               |   2 Mg               |  11 Mg               |    60.00
    2 Mg               |   4 Mg               |  12 Mg               |   120.00
    4 Mg               |  15 O                |   2 Mg               |    90.00
    2 Mg               |   4 Mg               |  16 O                |    90.00
    4 Mg               |  17 O                |   2 Mg               |    90.00
    2 Mg               |   4 Mg               |  19 O                |   135.00
    2 Mg               |   4 Mg               |  24 O                |    90.00
    4 Mg               |   5 Mg               |   3 Mg               |    60.00
    4 Mg               |   6 Mg               |   3 Mg               |    60.11
    3 Mg               |   4 Mg               |  10 Mg               |   120.00
    3 Mg               |   4 Mg               |  11 Mg               |    90.00
    3 Mg               |   4 Mg               |  12 Mg               |   120.00
    4 Mg               |  15 O                |   3 Mg               |    90.00
    4 Mg               |  16 O                |   3 Mg               |    90.00
    3 Mg               |   4 Mg               |  17 O                |    90.00
    3 Mg               |   4 Mg               |  19 O                |    90.00
    3 Mg               |   4 Mg               |  24 O                |   135.00
    5 Mg               |   4 Mg               |   6 Mg               |    60.06
    5 Mg               |   4 Mg               |  10 Mg               |   180.00
    5 Mg               |   4 Mg               |  11 Mg               |   120.00
    5 Mg               |   4 Mg               |  12 Mg               |    90.00
    5 Mg               |   4 Mg               |  15 O                |    90.00
    4 Mg               |  16 O                |   5 Mg               |    90.00
    5 Mg               |   4 Mg               |  17 O                |   135.00
    4 Mg               |  19 O                |   5 Mg               |    90.00
    5 Mg               |   4 Mg               |  24 O                |   135.00
    6 Mg               |   4 Mg               |  10 Mg               |   119.94
    4 Mg               |   6 Mg               |  11 Mg               |    60.11
    6 Mg               |   4 Mg               |  12 Mg               |    60.06
    4 Mg               |  15 O                |   6 Mg               |    90.00
    6 Mg               |   4 Mg               |  16 O                |    90.00
    6 Mg               |   4 Mg               |  17 O                |   134.90
    4 Mg               |  19 O                |   6 Mg               |    89.81
    6 Mg               |   4 Mg               |  24 O                |    90.00
    4 Mg               |  11 Mg               |  10 Mg               |    60.00
   10 Mg               |   4 Mg               |  12 Mg               |    90.00
   10 Mg               |   4 Mg               |  15 O                |    90.00
   10 Mg               |   4 Mg               |  16 O                |   135.00
    4 Mg               |  17 O                |  10 Mg               |    90.00
   10 Mg               |   4 Mg               |  19 O                |   135.00
    4 Mg               |  24 O                |  10 Mg               |    90.00
    4 Mg               |  11 Mg               |  12 Mg               |    60.00
    4 Mg               |  15 O                |  11 Mg               |    90.00
   11 Mg               |   4 Mg               |  16 O                |   135.00
   11 Mg               |   4 Mg               |  17 O                |    90.00
   11 Mg               |   4 Mg               |  19 O                |    90.00
    4 Mg               |  24 O                |  11 Mg               |    90.00
   12 Mg               |   4 Mg               |  15 O                |    90.00
   12 Mg               |   4 Mg               |  16 O                |   135.00
   12 Mg               |   4 Mg               |  17 O                |   135.00
    4 Mg               |  19 O                |  12 Mg               |    90.00
    4 Mg               |  24 O                |  12 Mg               |    90.00
   15 O                |   4 Mg               |  16 O                |    90.00
   15 O                |   4 Mg               |  17 O                |    90.00
   15 O                |   4 Mg               |  19 O                |    90.00
   15 O                |   4 Mg               |  24 O                |    90.00
   16 O                |   4 Mg               |  17 O                |    90.00
   16 O                |   4 Mg               |  19 O                |    90.00
   16 O                |   4 Mg               |  24 O                |   180.00
   17 O                |   4 Mg               |  19 O                |   180.00
   17 O                |   4 Mg               |  24 O                |    90.00
   19 O                |   4 Mg               |  24 O                |    90.00
    3 Mg               |   5 Mg               |   4 Mg               |    60.00
    5 Mg               |   3 Mg               |   6 Mg               |    60.06
    5 Mg               |  16 O                |   3 Mg               |    90.00
    3 Mg               |   5 Mg               |  19 O                |    90.00
    5 Mg               |  20 O                |   3 Mg               |    90.00
    5 Mg               |   4 Mg               |   6 Mg               |    60.06
    5 Mg               |  16 O                |   4 Mg               |    90.00
    5 Mg               |  19 O                |   4 Mg               |    90.00
    4 Mg               |   5 Mg               |  20 O                |    90.00
    6 Mg               |   5 Mg               |  16 O                |    89.87
    5 Mg               |  19 O                |   6 Mg               |    90.00
    5 Mg               |  20 O                |   6 Mg               |    90.00
   16 O                |   5 Mg               |  19 O                |    90.00
   16 O                |   5 Mg               |  20 O                |    90.00
   19 O                |   5 Mg               |  20 O                |    90.00
    3 Mg               |   6 Mg               |   4 Mg               |    60.11
    6 Mg               |   3 Mg               |   5 Mg               |    60.06
    3 Mg               |   6 Mg               |   8 Mg               |    60.11
    6 Mg               |   3 Mg               |   9 Mg               |    60.06
    3 Mg               |   6 Mg               |  11 Mg               |    90.19
    3 Mg               |   6 Mg               |  12 Mg               |   120.16
    3 Mg               |   6 Mg               |  14 Mg               |   120.16
    6 Mg               |  15 O                |   3 Mg               |    90.00
    3 Mg               |   6 Mg               |  19 O                |    90.13
    6 Mg               |  20 O                |   3 Mg               |    89.81
    3 Mg               |   6 Mg               |  23 O                |    90.13
    3 Mg               |   6 Mg               |  26 O                |   135.29
    6 Mg               |   4 Mg               |   5 Mg               |    60.06
    4 Mg               |   6 Mg               |   8 Mg               |    90.19
    4 Mg               |   6 Mg               |   9 Mg               |   120.16
    4 Mg               |   6 Mg               |  11 Mg               |    60.11
    6 Mg               |   4 Mg               |  12 Mg               |    60.06
    4 Mg               |   6 Mg               |  14 Mg               |   120.16
    6 Mg               |  15 O                |   4 Mg               |    90.00
    6 Mg               |  19 O                |   4 Mg               |    89.81
    4 Mg               |   6 Mg               |  20 O                |    90.13
    4 Mg               |   6 Mg               |  23 O                |   135.29
    4 Mg               |   6 Mg               |  26 O                |    90.13
    5 Mg               |   6 Mg               |   8 Mg               |   120.16
    5 Mg               |   6 Mg               |   9 Mg               |    90.00
    5 Mg               |   6 Mg               |  11 Mg               |   120.16
    5 Mg               |   6 Mg               |  12 Mg               |    90.00
    5 Mg               |   6 Mg               |  14 Mg               |   179.73
    5 Mg               |   6 Mg               |  15 O                |    90.13
    6 Mg               |  19 O                |   5 Mg               |    90.00
    6 Mg               |  20 O                |   5 Mg               |    90.00
    5 Mg               |   6 Mg               |  23 O                |   135.00
    5 Mg               |   6 Mg               |  26 O                |   135.00
    6 Mg               |   8 Mg               |   9 Mg               |    60.06
    8 Mg               |   6 Mg               |  11 Mg               |    60.11
    8 Mg               |   6 Mg               |  12 Mg               |   120.16
    6 Mg               |   8 Mg               |  14 Mg               |    60.06
    6 Mg               |  15 O                |   8 Mg               |    90.00
    8 Mg               |   6 Mg               |  19 O                |   135.29
    8 Mg               |   6 Mg               |  20 O                |    90.13
    6 Mg               |  23 O                |   8 Mg               |    89.81
    8 Mg               |   6 Mg               |  26 O                |    90.13
    9 Mg               |   6 Mg               |  11 Mg               |   120.16
    9 Mg               |   6 Mg               |  12 Mg               |   179.73
    9 Mg               |   6 Mg               |  14 Mg               |    90.00
    9 Mg               |   6 Mg               |  15 O                |    90.13
    9 Mg               |   6 Mg               |  19 O                |   135.00
    6 Mg               |  20 O                |   9 Mg               |    90.00
    6 Mg               |  23 O                |   9 Mg               |    90.00
    9 Mg               |   6 Mg               |  26 O                |   135.00
    6 Mg               |  11 Mg               |  12 Mg               |    60.06
    6 Mg               |  11 Mg               |  14 Mg               |    60.06
    6 Mg               |  15 O                |  11 Mg               |    90.00
   11 Mg               |   6 Mg               |  19 O                |    90.13
   11 Mg               |   6 Mg               |  20 O                |   135.29
   11 Mg               |   6 Mg               |  23 O                |    90.13
    6 Mg               |  26 O                |  11 Mg               |    89.81
   12 Mg               |   6 Mg               |  14 Mg               |    90.00
   12 Mg               |   6 Mg               |  15 O                |    90.13
    6 Mg               |  19 O                |  12 Mg               |    90.00
   12 Mg               |   6 Mg               |  20 O                |   135.00
   12 Mg               |   6 Mg               |  23 O                |   135.00
    6 Mg               |  26 O                |  12 Mg               |    90.00
   14 Mg               |   6 Mg               |  15 O                |    90.13
   14 Mg               |   6 Mg               |  19 O                |   135.00
   14 Mg               |   6 Mg               |  20 O                |   135.00
    6 Mg               |  23 O                |  14 Mg               |    90.00
    6 Mg               |  26 O                |  14 Mg               |    90.00
   15 O                |   6 Mg               |  19 O                |    90.19
   15 O                |   6 Mg               |  20 O                |    90.19
   15 O                |   6 Mg               |  23 O                |    90.19
   15 O                |   6 Mg               |  26 O                |    90.19
   19 O                |   6 Mg               |  20 O                |    90.00
   19 O                |   6 Mg               |  23 O                |   179.62
   19 O                |   6 Mg               |  26 O                |    90.00
   20 O                |   6 Mg               |  23 O                |    90.00
   20 O                |   6 Mg               |  26 O                |   179.62
   23 O                |   6 Mg               |  26 O                |    90.00
    7 Mg               |   3 Mg               |   2 Mg               |    60.00
    7 Mg               |   8 Mg               |   2 Mg               |    60.00
    7 Mg               |  18 O                |   2 Mg               |    90.00
    2 Mg               |   7 Mg               |  21 O                |    90.00
    7 Mg               |  22 O                |   2 Mg               |    90.00
    7 Mg               |   3 Mg               |   8 Mg               |    60.00
    7 Mg               |  18 O                |   3 Mg               |    90.00
    7 Mg               |  21 O                |   3 Mg               |    90.00
    3 Mg               |   7 Mg               |  22 O                |    90.00
    8 Mg               |   7 Mg               |  18 O                |    90.00
    7 Mg               |  21 O                |   8 Mg               |    90.00
    7 Mg               |  22 O                |   8 Mg               |    90.00
   18 O                |   7 Mg               |  21 O                |    90.00
   18 O                |   7 Mg               |  22 O                |    90.00
   21 O                |   7 Mg               |  22 O                |    90.00
    8 Mg               |   2 Mg               |   3 Mg               |    60.00
    2 Mg               |   8 Mg               |   6 Mg               |    89.90
    2 Mg               |   8 Mg               |   7 Mg               |    60.00
    2 Mg               |   8 Mg               |   9 Mg               |   120.00
    8 Mg               |   2 Mg               |  11 Mg               |    60.00
    8 Mg               |   2 Mg               |  13 Mg               |    60.00
    2 Mg               |   8 Mg               |  14 Mg               |   120.00
    8 Mg               |  15 O                |   2 Mg               |    90.00
    2 Mg               |   8 Mg               |  21 O                |    90.00
    8 Mg               |  22 O                |   2 Mg               |    90.00
    2 Mg               |   8 Mg               |  23 O                |   135.00
    2 Mg               |   8 Mg               |  27 O                |    90.00
    8 Mg               |   6 Mg               |   3 Mg               |    60.11
    8 Mg               |   3 Mg               |   7 Mg               |    60.00
    8 Mg               |   3 Mg               |   9 Mg               |    60.00
    3 Mg               |   8 Mg               |  11 Mg               |    90.00
    3 Mg               |   8 Mg               |  13 Mg               |   120.00
    3 Mg               |   8 Mg               |  14 Mg               |   120.00
    8 Mg               |  15 O                |   3 Mg               |    90.00
    8 Mg               |  21 O                |   3 Mg               |    90.00
    3 Mg               |   8 Mg               |  22 O                |    90.00
    3 Mg               |   8 Mg               |  23 O                |    90.00
    3 Mg               |   8 Mg               |  27 O                |   135.00
    6 Mg               |   8 Mg               |   7 Mg               |   119.94
    6 Mg               |   8 Mg               |   9 Mg               |    60.06
    8 Mg               |   6 Mg               |  11 Mg               |    60.11
    6 Mg               |   8 Mg               |  13 Mg               |   119.94
    6 Mg               |   8 Mg               |  14 Mg               |    60.06
    8 Mg               |  15 O                |   6 Mg               |    90.00
    6 Mg               |   8 Mg               |  21 O                |    90.00
    6 Mg               |   8 Mg               |  22 O                |   134.90
    8 Mg               |  23 O                |   6 Mg               |    89.81
    6 Mg               |   8 Mg               |  27 O                |    90.00
    7 Mg               |   8 Mg               |   9 Mg               |    90.00
    7 Mg               |   8 Mg               |  11 Mg               |   120.00
    7 Mg               |   8 Mg               |  13 Mg               |    90.00
    7 Mg               |   8 Mg               |  14 Mg               |   180.00
    7 Mg               |   8 Mg               |  15 O                |    90.00
    8 Mg               |  21 O                |   7 Mg               |    90.00
    8 Mg               |  22 O                |   7 Mg               |    90.00
    7 Mg               |   8 Mg               |  23 O                |   135.00
    7 Mg               |   8 Mg               |  27 O                |   135.00
    9 Mg               |   8 Mg               |  11 Mg               |   120.00
    9 Mg               |   8 Mg               |  13 Mg               |   180.00
    9 Mg               |   8 Mg               |  14 Mg               |    90.00
    9 Mg               |   8 Mg               |  15 O                |    90.00
    8 Mg               |  21 O                |   9 Mg               |    90.00
    9 Mg               |   8 Mg               |  22 O                |   135.00
    8 Mg               |  23 O                |   9 Mg               |    90.00
    9 Mg               |   8 Mg               |  27 O                |   135.00
    8 Mg               |  11 Mg               |  13 Mg               |    60.00
    8 Mg               |  11 Mg               |  14 Mg               |    60.00
    8 Mg               |  15 O                |  11 Mg               |    90.00
   11 Mg               |   8 Mg               |  21 O                |   135.00
   11 Mg               |   8 Mg               |  22 O                |    90.00
   11 Mg               |   8 Mg               |  23 O                |    90.00
    8 Mg               |  27 O                |  11 Mg               |    90.00
   13 Mg               |   8 Mg               |  14 Mg               |    90.00
   13 Mg               |   8 Mg               |  15 O                |    90.00
   13 Mg               |   8 Mg               |  21 O                |   135.00
    8 Mg               |  22 O                |  13 Mg               |    90.00
   13 Mg               |   8 Mg               |  23 O                |   135.00
    8 Mg               |  27 O                |  13 Mg               |    90.00
   14 Mg               |   8 Mg               |  15 O                |    90.00
   14 Mg               |   8 Mg               |  21 O                |   135.00
   14 Mg               |   8 Mg               |  22 O                |   135.00
    8 Mg               |  23 O                |  14 Mg               |    90.00
    8 Mg               |  27 O                |  14 Mg               |    90.00
   15 O                |   8 Mg               |  21 O                |    90.00
   15 O                |   8 Mg               |  22 O                |    90.00
   15 O                |   8 Mg               |  23 O                |    90.00
   15 O                |   8 Mg               |  27 O                |    90.00
   21 O                |   8 Mg               |  22 O                |    90.00
   21 O                |   8 Mg               |  23 O                |    90.00
   21 O                |   8 Mg               |  27 O                |   180.00
   22 O                |   8 Mg               |  23 O                |   180.00
   22 O                |   8 Mg               |  27 O                |    90.00
   23 O                |   8 Mg               |  27 O                |    90.00
    9 Mg               |   3 Mg               |   6 Mg               |    60.06
    9 Mg               |   3 Mg               |   8 Mg               |    60.00
    9 Mg               |  20 O                |   3 Mg               |    90.00
    9 Mg               |  21 O                |   3 Mg               |    90.00
    3 Mg               |   9 Mg               |  23 O                |    90.00
    9 Mg               |   8 Mg               |   6 Mg               |    60.06
    9 Mg               |  20 O                |   6 Mg               |    90.00
    6 Mg               |   9 Mg               |  21 O                |    89.87
    9 Mg               |  23 O                |   6 Mg               |    90.00
    8 Mg               |   9 Mg               |  20 O                |    90.00
    9 Mg               |  21 O                |   8 Mg               |    90.00
    9 Mg               |  23 O                |   8 Mg               |    90.00
   20 O                |   9 Mg               |  21 O                |    90.00
   20 O                |   9 Mg               |  23 O                |    90.00
   21 O                |   9 Mg               |  23 O                |    90.00
   10 Mg               |   2 Mg               |   4 Mg               |    60.00
   10 Mg               |   2 Mg               |  11 Mg               |    60.00
   10 Mg               |  17 O                |   2 Mg               |    90.00
    2 Mg               |  10 Mg               |  24 O                |    90.00
   10 Mg               |  25 O                |   2 Mg               |    90.00
   10 Mg               |  11 Mg               |   4 Mg               |    60.00
   10 Mg               |  17 O                |   4 Mg               |    90.00
   10 Mg               |  24 O                |   4 Mg               |    90.00
    4 Mg               |  10 Mg               |  25 O                |    90.00
   11 Mg               |  10 Mg               |  17 O                |    90.00
   10 Mg               |  24 O                |  11 Mg               |    90.00
   10 Mg               |  25 O                |  11 Mg               |    90.00
   17 O                |  10 Mg               |  24 O                |    90.00
   17 O                |  10 Mg               |  25 O                |    90.00
   24 O                |  10 Mg               |  25 O                |    90.00
   11 Mg               |   2 Mg               |   4 Mg               |    60.00
    2 Mg               |  11 Mg               |   6 Mg               |    89.90
   11 Mg               |   2 Mg               |   8 Mg               |    60.00
   11 Mg               |   2 Mg               |  10 Mg               |    60.00
    2 Mg               |  11 Mg               |  12 Mg               |   120.00
   11 Mg               |   2 Mg               |  13 Mg               |    60.00
    2 Mg               |  11 Mg               |  14 Mg               |   120.00
   11 Mg               |  15 O                |   2 Mg               |    90.00
    2 Mg               |  11 Mg               |  24 O                |    90.00
   11 Mg               |  25 O                |   2 Mg               |    90.00
    2 Mg               |  11 Mg               |  26 O                |   135.00
    2 Mg               |  11 Mg               |  27 O                |    90.00
   11 Mg               |   6 Mg               |   4 Mg               |    60.11
    4 Mg               |  11 Mg               |   8 Mg               |    90.00
    4 Mg               |  11 Mg               |  10 Mg               |    60.00
   11 Mg               |   4 Mg               |  12 Mg               |    60.00
    4 Mg               |  11 Mg               |  13 Mg               |   120.00
    4 Mg               |  11 Mg               |  14 Mg               |   120.00
   11 Mg               |  15 O                |   4 Mg               |    90.00
   11 Mg               |  24 O                |   4 Mg               |    90.00
    4 Mg               |  11 Mg               |  25 O                |    90.00
    4 Mg               |  11 Mg               |  26 O                |    90.00
    4 Mg               |  11 Mg               |  27 O                |   135.00
   11 Mg               |   6 Mg               |   8 Mg               |    60.11
    6 Mg               |  11 Mg               |  10 Mg               |   119.94
    6 Mg               |  11 Mg               |  12 Mg               |    60.06
    6 Mg               |  11 Mg               |  13 Mg               |   119.94
    6 Mg               |  11 Mg               |  14 Mg               |    60.06
   11 Mg               |  15 O                |   6 Mg               |    90.00
    6 Mg               |  11 Mg               |  24 O                |    90.00
    6 Mg               |  11 Mg               |  25 O                |   134.90
   11 Mg               |  26 O                |   6 Mg               |    89.81
    6 Mg               |  11 Mg               |  27 O                |    90.00
    8 Mg               |  11 Mg               |  10 Mg               |   120.00
    8 Mg               |  11 Mg               |  12 Mg               |   120.00
   11 Mg               |   8 Mg               |  13 Mg               |    60.00
   11 Mg               |   8 Mg               |  14 Mg               |    60.00
   11 Mg               |  15 O                |   8 Mg               |    90.00
    8 Mg               |  11 Mg               |  24 O                |   135.00
    8 Mg               |  11 Mg               |  25 O                |    90.00
    8 Mg               |  11 Mg               |  26 O                |    90.00
   11 Mg               |  27 O                |   8 Mg               |    90.00
   10 Mg               |  11 Mg               |  12 Mg               |    90.00
   10 Mg               |  11 Mg               |  13 Mg               |    90.00
   10 Mg               |  11 Mg               |  14 Mg               |   180.00
   10 Mg               |  11 Mg               |  15 O                |    90.00
   11 Mg               |  24 O                |  10 Mg               |    90.00
   11 Mg               |  25 O                |  10 Mg               |    90.00
   10 Mg               |  11 Mg               |  26 O                |   135.00
   10 Mg               |  11 Mg               |  27 O                |   135.00
   12 Mg               |  11 Mg               |  13 Mg               |   180.00
   12 Mg               |  11 Mg               |  14 Mg               |    90.00
   12 Mg               |  11 Mg               |  15 O                |    90.00
   11 Mg               |  24 O                |  12 Mg               |    90.00
   12 Mg               |  11 Mg               |  25 O                |   135.00
   11 Mg               |  26 O                |  12 Mg               |    90.00
   12 Mg               |  11 Mg               |  27 O                |   135.00
   13 Mg               |  11 Mg               |  14 Mg               |    90.00
   13 Mg               |  11 Mg               |  15 O                |    90.00
   13 Mg               |  11 Mg               |  24 O                |   135.00
   11 Mg               |  25 O                |  13 Mg               |    90.00
   13 Mg               |  11 Mg               |  26 O                |   135.00
   11 Mg               |  27 O                |  13 Mg               |    90.00
   14 Mg               |  11 Mg               |  15 O                |    90.00
   14 Mg               |  11 Mg               |  24 O                |   135.00
   14 Mg               |  11 Mg               |  25 O                |   135.00
   11 Mg               |  26 O                |  14 Mg               |    90.00
   11 Mg               |  27 O                |  14 Mg               |    90.00
   15 O                |  11 Mg               |  24 O                |    90.00
   15 O                |  11 Mg               |  25 O                |    90.00
   15 O                |  11 Mg               |  26 O                |    90.00
   15 O                |  11 Mg               |  27 O                |    90.00
   24 O                |  11 Mg               |  25 O                |    90.00
   24 O                |  11 Mg               |  26 O                |    90.00
   24 O                |  11 Mg               |  27 O                |   180.00
   25 O                |  11 Mg               |  26 O                |   180.00
   25 O                |  11 Mg               |  27 O                |    90.00
   26 O                |  11 Mg               |  27 O                |    90.00
   12 Mg               |   4 Mg               |   6 Mg               |    60.06
   12 Mg               |   4 Mg               |  11 Mg               |    60.00
   12 Mg               |  19 O                |   4 Mg               |    90.00
   12 Mg               |  24 O                |   4 Mg               |    90.00
    4 Mg               |  12 Mg               |  26 O                |    90.00
   12 Mg               |  11 Mg               |   6 Mg               |    60.06
   12 Mg               |  19 O                |   6 Mg               |    90.00
    6 Mg               |  12 Mg               |  24 O                |    89.87
   12 Mg               |  26 O                |   6 Mg               |    90.00
   11 Mg               |  12 Mg               |  19 O                |    90.00
   12 Mg               |  24 O                |  11 Mg               |    90.00
   12 Mg               |  26 O                |  11 Mg               |    90.00
   19 O                |  12 Mg               |  24 O                |    90.00
   19 O                |  12 Mg               |  26 O                |    90.00
   24 O                |  12 Mg               |  26 O                |    90.00
   13 Mg               |   2 Mg               |   8 Mg               |    60.00
   13 Mg               |   2 Mg               |  11 Mg               |    60.00
   13 Mg               |  22 O                |   2 Mg               |    90.00
   13 Mg               |  25 O                |   2 Mg               |    90.00
    2 Mg               |  13 Mg               |  27 O                |    90.00
   13 Mg               |   8 Mg               |  11 Mg               |    60.00
   13 Mg               |  22 O                |   8 Mg               |    90.00
    8 Mg               |  13 Mg               |  25 O                |    90.00
   13 Mg               |  27 O                |   8 Mg               |    90.00
   11 Mg               |  13 Mg               |  22 O                |    90.00
   13 Mg               |  25 O                |  11 Mg               |    90.00
   13 Mg               |  27 O                |  11 Mg               |    90.00
   22 O                |  13 Mg               |  25 O                |    90.00
   22 O                |  13 Mg               |  27 O                |    90.00
   25 O                |  13 Mg               |  27 O                |    90.00
   14 Mg               |   8 Mg               |   6 Mg               |    60.06
   14 Mg               |  11 Mg               |   6 Mg               |    60.06
   14 Mg               |  23 O                |   6 Mg               |    90.00
   14 Mg               |  26 O                |   6 Mg               |    90.00
    6 Mg               |  14 Mg               |  27 O                |    89.87
   14 Mg               |   8 Mg               |  11 Mg               |    60.00
   14 Mg               |  23 O                |   8 Mg               |    90.00
    8 Mg               |  14 Mg               |  26 O                |    90.00
   14 Mg               |  27 O                |   8 Mg               |    90.00
   11 Mg               |  14 Mg               |  23 O                |    90.00
   14 Mg               |  26 O                |  11 Mg               |    90.00
   14 Mg               |  27 O                |  11 Mg               |    90.00
   23 O                |  14 Mg               |  26 O                |    90.00
   23 O                |  14 Mg               |  27 O                |    90.00
   26 O                |  14 Mg               |  27 O                |    90.00
    2 Mg               |  15 O                |   3 Mg               |    90.00
    2 Mg               |  15 O                |   4 Mg               |    90.00
    2 Mg               |  15 O                |   6 Mg               |   180.00
    2 Mg               |  15 O                |   8 Mg               |    90.00
    2 Mg               |  15 O                |  11 Mg               |    90.00
    3 Mg               |  15 O                |   4 Mg               |    90.00
    3 Mg               |  15 O                |   6 Mg               |    90.00
    3 Mg               |  15 O                |   8 Mg               |    90.00
    3 Mg               |  15 O                |  11 Mg               |   180.00
    4 Mg               |  15 O                |   6 Mg               |    90.00
    4 Mg               |  15 O                |   8 Mg               |   180.00
    4 Mg               |  15 O                |  11 Mg               |    90.00
    6 Mg               |  15 O                |   8 Mg               |    90.00
    6 Mg               |  15 O                |  11 Mg               |    90.00
    8 Mg               |  15 O                |  11 Mg               |    90.00
    1 Mg               |  16 O                |   3 Mg               |    90.00
    1 Mg               |  16 O                |   4 Mg               |    90.00
    1 Mg               |  16 O                |   5 Mg               |   180.00
    3 Mg               |  16 O                |   4 Mg               |    90.00
    3 Mg               |  16 O                |   5 Mg               |    90.00
    4 Mg               |  16 O                |   5 Mg               |    90.00
    1 Mg               |  17 O                |   2 Mg               |    90.00
    1 Mg               |  17 O                |   4 Mg               |    90.00
    1 Mg               |  17 O                |  10 Mg               |   180.00
    2 Mg               |  17 O                |   4 Mg               |    90.00
    2 Mg               |  17 O                |  10 Mg               |    90.00
    4 Mg               |  17 O                |  10 Mg               |    90.00
    1 Mg               |  18 O                |   2 Mg               |    90.00
    1 Mg               |  18 O                |   3 Mg               |    90.00
    1 Mg               |  18 O                |   7 Mg               |   180.00
    2 Mg               |  18 O                |   3 Mg               |    90.00
    2 Mg               |  18 O                |   7 Mg               |    90.00
    3 Mg               |  18 O                |   7 Mg               |    90.00
    4 Mg               |  19 O                |   5 Mg               |    90.00
    4 Mg               |  19 O                |   6 Mg               |    89.81
    4 Mg               |  19 O                |  12 Mg               |    90.00
    5 Mg               |  19 O                |   6 Mg               |    90.00
    5 Mg               |  19 O                |  12 Mg               |   180.00
    6 Mg               |  19 O                |  12 Mg               |    90.00
    3 Mg               |  20 O                |   5 Mg               |    90.00
    3 Mg               |  20 O                |   6 Mg               |    89.81
    3 Mg               |  20 O                |   9 Mg               |    90.00
    5 Mg               |  20 O                |   6 Mg               |    90.00
    5 Mg               |  20 O                |   9 Mg               |   180.00
    6 Mg               |  20 O                |   9 Mg               |    90.00
    3 Mg               |  21 O                |   7 Mg               |    90.00
    3 Mg               |  21 O                |   8 Mg               |    90.00
    3 Mg               |  21 O                |   9 Mg               |    90.00
    7 Mg               |  21 O                |   8 Mg               |    90.00
    7 Mg               |  21 O                |   9 Mg               |   180.00
    8 Mg               |  21 O                |   9 Mg               |    90.00
    2 Mg               |  22 O                |   7 Mg               |    90.00
    2 Mg               |  22 O                |   8 Mg               |    90.00
    2 Mg               |  22 O                |  13 Mg               |    90.00
    7 Mg               |  22 O                |   8 Mg               |    90.00
    7 Mg               |  22 O                |  13 Mg               |   180.00
    8 Mg               |  22 O                |  13 Mg               |    90.00
    6 Mg               |  23 O                |   8 Mg               |    89.81
    6 Mg               |  23 O                |   9 Mg               |    90.00
    6 Mg               |  23 O                |  14 Mg               |    90.00
    8 Mg               |  23 O                |   9 Mg               |    90.00
    8 Mg               |  23 O                |  14 Mg               |    90.00
    9 Mg               |  23 O                |  14 Mg               |   180.00
    4 Mg               |  24 O                |  10 Mg               |    90.00
    4 Mg               |  24 O                |  11 Mg               |    90.00
    4 Mg               |  24 O                |  12 Mg               |    90.00
   10 Mg               |  24 O                |  11 Mg               |    90.00
   10 Mg               |  24 O                |  12 Mg               |   180.00
   11 Mg               |  24 O                |  12 Mg               |    90.00
    2 Mg               |  25 O                |  10 Mg               |    90.00
    2 Mg               |  25 O                |  11 Mg               |    90.00
    2 Mg               |  25 O                |  13 Mg               |    90.00
   10 Mg               |  25 O                |  11 Mg               |    90.00
   10 Mg               |  25 O                |  13 Mg               |   180.00
   11 Mg               |  25 O                |  13 Mg               |    90.00
    6 Mg               |  26 O                |  11 Mg               |    89.81
    6 Mg               |  26 O                |  12 Mg               |    90.00
    6 Mg               |  26 O                |  14 Mg               |    90.00
   11 Mg               |  26 O                |  12 Mg               |    90.00
   11 Mg               |  26 O                |  14 Mg               |    90.00
   12 Mg               |  26 O                |  14 Mg               |   180.00
    8 Mg               |  27 O                |  11 Mg               |    90.00
    8 Mg               |  27 O                |  13 Mg               |    90.00
    8 Mg               |  27 O                |  14 Mg               |    90.00
   11 Mg               |  27 O                |  13 Mg               |    90.00
   11 Mg               |  27 O                |  14 Mg               |    90.00
   13 Mg               |  27 O                |  14 Mg               |   180.00
 ------------------------------------------------------------------------------
                            number of included internuclear angles:        675
 ==============================================================================



 >>>> PSPW Serial Module - 1d pseudopotential solver <<<<
All electron atom solver

Atom name: Mg
Zcharge  : 1.200000e+01
Amass    : 2.400000e+01
Ncore    : 3
Nvalence : 1
         : restricted calculation

------ Solver information ------
solver type      : Pauli
hartree type     : On
exchange type    : Dirac
           alpha : 0.666667
correlation type : Vosko parameterization
Solver iterations: 25

------- Grid information -------
Zcharge  : 1.200000e+01
amesh    : 1.005000e+00
R_max    : 4.468454e+01
Ngrid    : 2924
------------------------------------------------------------
n	l	population	Eigenvalue	Outer Peak
1	s	2.00		-4.606268e+01	8.503226e-02
2	s	2.00		-2.914405e+00	5.464177e-01
2	p	6.00		-1.717436e+00	4.751985e-01
3	s	2.00		-1.756896e-01	2.501345e+00
------------------------------------------------------------
electronic charge      = -1.200000e+01
electronic core charge = -1.000000e+01
total atom charge      = -4.973799e-14

Total E       = -1.994604e+02

E_Hartree     = 9.581172e+01
<Vh>          = 1.916234e+02

E_exchange    = -1.459101e+01
<Vx>          = -1.945468e+01

E_correlation = -8.918228e-01
<Vc>          = -9.896793e-01


Hamann pseudopotential check

l	rcore     rmatch    E in       E psp      norm test slope test
0	1.500807  3.997453  -0.175690  -0.175690  1.000000  1.000002
1	1.900794  4.759875  -0.175690  -0.175690  1.000000  1.000000
2	1.500807  3.746490  -0.175690  -0.175690  1.000000  1.000000


Hamann pseudopotential extra states

l	n	E psp


PSP solver information

Atom name: Mg
Zcharge  : 2.000000e+00
Nvalence : 3
         : restricted calculation

------ Solver information ------
solver type      : Hamann
hartree type     : On
exchange type    : Dirac
           alpha : 0.666667
correlation type : Vosko parameterization
----------------------------------------------------------------------------
n	l	population	Ecut		Rcut		Outer Peak
1	s	2.00		-1.756896e-01	1.500807e+00	2.513852e+00
2	p	0.00		-1.756896e-01	1.900794e+00	4.468454e+01
3	d	0.00		-1.756896e-01	1.500807e+00	4.468454e+01
----------------------------------------------------------------------------
Pseudopotential ion charge       = 2.000000
Pseudopotential electronic charge= -2.000000
Pseudopotential atom charge      = 0.000000

Total E       = -8.344835e-01

E_Hartree     = 5.777005e-01
<Vh>          = 1.155401e+00

E_exchange    = -2.498133e-01
<Vx>          = -3.330843e-01

E_correlation = -6.498055e-02
<Vc>          = -7.630579e-02

Outputing pseudowavefunctions: ./Mg.psw.plt
Outputing pseudopotentials: ./Mg.psp.plt
 Creating datafile for Kleinman-Bylander input: ./Mg.psp
  + Appending pseudopotentials:    s thru d
  + Appending pseudowavefunctions and aewavefunctions: s thru d
Outputing all-electron wavefunctions: ./Mg.1s ./Mg.2s ./Mg.2p ./Mg.3s ./Mg.3d
Outputing atom density: ./Mg.dns.plt
Outputing core density: ./Mg.cdns.plt
Outputing core density gradient: ./Mg.cddns.plt
Outputing semicore density: ./Mg.sdns.plt
Outputing semicore density gradient: ./Mg.sddns.plt
Outputing all-electron potential(non-screened): ./Mg.pot.plt
     >>>  JOB COMPLETED     AT Sun Jul 12 16:51:16 2020  <<<
 >>>> PSPW Serial Module - 1d pseudopotential solver <<<<
All electron atom solver

Atom name: O
Zcharge  : 8.000000e+00
Amass    : 1.600000e+01
Ncore    : 1
Nvalence : 2
         : restricted calculation

------ Solver information ------
solver type      : Pauli
hartree type     : On
exchange type    : Dirac
           alpha : 0.666667
correlation type : Vosko parameterization
Solver iterations: 24

------- Grid information -------
Zcharge  : 8.000000e+00
amesh    : 1.005000e+00
R_max    : 4.475046e+01
Ngrid    : 2843
------------------------------------------------------------
n	l	population	Eigenvalue	Outer Peak
1	s	2.00		-1.877414e+01	1.294712e-01
2	s	2.00		-8.730657e-01	8.701793e-01
2	p	4.00		-3.381244e-01	8.114913e-01
------------------------------------------------------------
electronic charge      = -8.000000e+00
electronic core charge = -2.000000e+00
total atom charge      = -2.955503e-11

Total E       = -7.452872e+01

E_Hartree     = 3.635470e+01
<Vh>          = 7.270941e+01

E_exchange    = -7.226535e+00
<Vx>          = -9.635380e+00

E_correlation = -5.484436e-01
<Vc>          = -6.124950e-01


Hamann pseudopotential check

l	rcore     rmatch    E in       E psp      norm test slope test
0	0.700000  1.418675  -0.873066  -0.873066  1.000003  1.000108
1	0.700000  1.469079  -0.338124  -0.338124  0.999997  0.999871
2	0.700000  1.749272  -0.338124  -0.338124  1.000000  1.000000


Hamann pseudopotential extra states

l	n	E psp


PSP solver information

Atom name: O
Zcharge  : 6.000000e+00
Nvalence : 3
         : restricted calculation

------ Solver information ------
solver type      : Hamann
hartree type     : On
exchange type    : Dirac
           alpha : 0.666667
correlation type : Vosko parameterization
----------------------------------------------------------------------------
n	l	population	Ecut		Rcut		Outer Peak
1	s	2.00		-8.730657e-01	7.000000e-01	9.101297e-01
2	p	4.00		-3.381244e-01	7.000000e-01	7.643480e-01
3	d	0.00		-3.381244e-01	7.000000e-01	4.475046e+01
----------------------------------------------------------------------------
Pseudopotential ion charge       = 6.000000
Pseudopotential electronic charge= -6.000000
Pseudopotential atom charge      = -0.000000

Total E       = -1.567182e+01

E_Hartree     = 1.355049e+01
<Vh>          = 2.710099e+01

E_exchange    = -2.795027e+00
<Vx>          = -3.726703e+00

E_correlation = -3.498520e-01
<Vc>          = -3.954820e-01

Outputing pseudowavefunctions: ./O.psw.plt
Outputing pseudopotentials: ./O.psp.plt
 Creating datafile for Kleinman-Bylander input: ./O.psp
  + Appending pseudopotentials:    s thru d
  + Appending pseudowavefunctions and aewavefunctions: s thru d
Outputing all-electron wavefunctions: ./O.1s ./O.2s ./O.2p ./O.3d
Outputing atom density: ./O.dns.plt
Outputing core density: ./O.cdns.plt
Outputing core density gradient: ./O.cddns.plt
Outputing semicore density: ./O.sdns.plt
Outputing semicore density gradient: ./O.sddns.plt
Outputing all-electron potential(non-screened): ./O.pot.plt
     >>>  JOB COMPLETED     AT Sun Jul 12 16:51:16 2020  <<<
 >>>> PSPW parallel Module - psp_formatter <<<<

 Formatting rtdb psp inputblock: kbppa                                             
                        1  of                     1

      ********************************************
      *                                          *
      *     KBPPV3 - Pseudopotential Formatter   *
      *                                          *
      *      version last updated 4/15/99        *
      *                                          *
      * This code was written by Eric J. Bylaska *
      * and was based upon algorithms and code   *
      * developed by the group of                *
      * Prof. John H. Weare                      *
      ********************************************
     >>>  JOB STARTED       AT Sun Jul 12 16:51:16 2020  <<<

 Pseudpotential Data
 -------------------
   atom     :Mg
   charge   :   2.0000000000000000     
   mass no. :   24.000000000000000     
   highest angular component      :                    2
   highest angular component used :                    2
   local potential used           :                    2
  cutoffs:      1.501     1.901     1.501

 Simulation Cell
 ---------------
  boundry: periodic
  ngrid  :  16   8   8
  unita  :    23.890     0.000     0.000
               0.000    11.945     0.000
               0.000     0.000    11.945

     >>>  JOB COMPLETED     AT Sun Jul 12 16:51:16 2020  <<<

 Task  times  cpu:        0.1s     wall:        0.1s


                                NWChem Input Module
                                -------------------


 >>>> PSPW parallel Module - psp_formatter <<<<

 Formatting rtdb psp inputblock: kbppa                                             
                        1  of                     2

      ********************************************
[...]
 writing <spin= 1,psi= 38>    -     (  3  7  7 :   2)
  Random noise is added to this psi. P=   1.4601335664807431     
 writing <spin= 1,psi= 39>    -     (  3  7  7 :  -2)
  Random noise is added to this psi. P=  0.46361473382615748     
 writing <spin= 1,psi= 40>    -     (  0  0  4 :   2)
  Random noise is added to this psi. P=   1.2348090216070791     
 writing <spin= 1,psi= 41>    -     (  0  0  4 :  -2)
  Random noise is added to this psi. P=   1.6280706898750983     
 writing <spin= 1,psi= 42>    -     (  0  1  4 :   2)
  Random noise is added to this psi. P=   1.3781800471894918     
 writing <spin= 1,psi= 43>    -     (  0  1  4 :  -2)
  Random noise is added to this psi. P=   1.7670498492802200     
 writing <spin= 1,psi= 44>    -     (  1  0  2 :   2)
  Random noise is added to this psi. P=   1.5985934860953135     
 writing <spin= 1,psi= 45>    -     (  1  0  2 :  -2)
  Random noise is added to this psi. P=   1.0057605714772813     
 writing <spin= 1,psi= 46>    -     (  0  2  4 :   2)
  Random noise is added to this psi. P=   1.1841846514985588     
 writing <spin= 1,psi= 47>    -     (  0  2  4 :  -2)
  Random noise is added to this psi. P=   1.7233668003137979     
 writing <spin= 1,psi= 48>    -     (  1  1  2 :   2)
  Random noise is added to this psi. P=   1.5951169623483155     
 writing <spin= 1,psi= 49>    -     (  1  1  2 :  -2)
  Random noise is added to this psi. P=   1.5116757348552539     
 writing <spin= 1,psi= 50>    -     (  2  1  2 :   2)
  Random noise is added to this psi. P=   1.5079603892101168     
 writing <spin= 1,psi= 51>    -     (  2  1  2 :  -2)
  Random noise is added to this psi. P=  0.97433589304074264     
 writing <spin= 1,psi= 52>    -     (  0  3  4 :   2)
  Random noise is added to this psi. P=   1.1053734489907028     
 writing <spin= 1,psi= 53>    -     (  0  3  4 :  -2)
  Random noise is added to this psi. P=   1.7155075984588317     
 writing <spin= 1,psi= 54>    -     (  1  7  2 :   2)
  Random noise is added to this psi. P=   1.5912284622004649     
 writing <spin= 1,psi= 55>    -     (  1  7  2 :  -2)
  Random noise is added to this psi. P=   1.5060111461483638     
 writing <spin= 1,psi= 56>    -     (  2  7  2 :   2)
  Random noise is added to this psi. P=   1.5220118398302571     
 writing <spin= 1,psi= 57>    -     (  2  7  2 :  -2)
  JOB HAS BEEN COMPLETED.  CODE=                    0
     >>>  JOB COMPLETED     AT Sun Jul 12 16:51:25 2020  <<<

 Task  times  cpu:        0.0s     wall:        0.0s


                                NWChem Input Module
                                -------------------


 >>>> PSPW Parallel Module - steepest_descent <<<<
          ****************************************************
          *                                                  *
          *     Car-Parrinello microcluster calculation      *
          *                                                  *
          *     [     steepest descent minimization   ]      *
          *                                                  *
          *     [ NorthWest Chemistry implementation ]       *
          *                                                  *
          *            version #5.00   06/01/99              *
          *                                                  *
          *    This code was developed by Eric J. Bylaska,   *
          *    and was based upon algorithms and code        *
          *    developed by the group of Prof. John H. Weare *
          *                                                  *
          ****************************************************
     >>>  JOB STARTED       AT Sun Jul 12 16:51:25 2020  <<<
          ================ PSPW input data ===================

 ======================================================
 || Some distances are very short. Check coordinates ||
 ======================================================


 Generated formatted_filename: ./Mg.vpp

 Generated formatted_filename: ./O.vpp
 wavefunction adjust, new psi:MgO.movecs                                        
 -   spin, nalpha, nbeta:                    1                   53                    0

 input psi filename:./MgO.movecs
 Warning: Gram-Schmidt being performed on psi2

 number of processors used:         2
 processor grid           :   2 x   1
 parallel mapping         :   2d hilbert
 parallel mapping         :     balanced
 parallel io              :       off

 options:
      ionic motion         = no
      boundary conditions  = periodic    (version3)
      electron spin        = restricted
      exchange-correlation = LDA (Vosko et al) parameterization

 elements involved in the cluster:
      1: Mg  valence charge:  2.0000  lmax=  2
             comment    : Hamann pseudopotential
             pseudpotential type            :   0
             highest angular component      :   2
             local potential used           :   2
             number of non-local projections:   4
             cutoff =   1.501   1.901   1.501

      2: O   valence charge:  6.0000  lmax=  2
             comment    : Hamann pseudopotential
             pseudpotential type            :   0
             highest angular component      :   2
             local potential used           :   2
             number of non-local projections:   4
             cutoff =   0.700   0.700   0.700


 total charge=   0.000

 atomic composition:
     Mg:   14     O :   13

 initial position of ions:
        1 Mg   (    5.63091    0.00000    3.98107 ) - atomic mass=  23.985          
        2 Mg   (    0.00000    0.00000    3.98107 ) - atomic mass=  23.985          
        3 Mg   (    2.81545   -2.81545   -0.00058 ) - atomic mass=  23.985          
        4 Mg   (    2.81545    2.81545   -0.00058 ) - atomic mass=  23.985          
        5 Mg   (    5.63091    0.00000   -3.98224 ) - atomic mass=  23.985          
        6 Mg   (    0.00000    0.00000   -3.96901 ) - atomic mass=  23.985          
        7 Mg   (    0.00000   -5.63091    3.98107 ) - atomic mass=  23.985          
        8 Mg   (   -2.81545   -2.81545   -0.00058 ) - atomic mass=  23.985          
        9 Mg   (   -0.00000   -5.63091   -3.98224 ) - atomic mass=  23.985          
       10 Mg   (    0.00000    5.63091    3.98107 ) - atomic mass=  23.985          
       11 Mg   (   -2.81545    2.81545   -0.00058 ) - atomic mass=  23.985          
       12 Mg   (    0.00000    5.63091   -3.98224 ) - atomic mass=  23.985          
       13 Mg   (   -5.63091    0.00000    3.98107 ) - atomic mass=  23.985          
       14 Mg   (   -5.63091   -0.00000   -3.98224 ) - atomic mass=  23.985          
       15 O    (    0.00000    0.00000   -0.00058 ) - atomic mass=  15.995          
       16 O    (    5.63091    0.00000   -0.00058 ) - atomic mass=  15.995          
       17 O    (    2.81545    2.81545    3.98107 ) - atomic mass=  15.995          
       18 O    (    2.81545   -2.81545    3.98107 ) - atomic mass=  15.995          
       19 O    (    2.81545    2.81545   -3.98224 ) - atomic mass=  15.995          
       20 O    (    2.81545   -2.81545   -3.98224 ) - atomic mass=  15.995          
       21 O    (    0.00000   -5.63091   -0.00058 ) - atomic mass=  15.995          
       22 O    (   -2.81545   -2.81545    3.98107 ) - atomic mass=  15.995          
       23 O    (   -2.81545   -2.81545   -3.98224 ) - atomic mass=  15.995          
       24 O    (    0.00000    5.63091   -0.00058 ) - atomic mass=  15.995          
       25 O    (   -2.81545    2.81545    3.98107 ) - atomic mass=  15.995          
       26 O    (   -2.81545    2.81545   -3.98224 ) - atomic mass=  15.995          
       27 O    (   -5.63091    0.00000   -0.00058 ) - atomic mass=  15.995          
        G.C.   (    0.00000   -0.00000   -0.00009 )
        C.O.M. (    0.00000   -0.00000   -0.00000 )
        number of constraints =      0 ( DOF =     75 )

 number of electrons: spin up=    53 (  53 per task)  down=    53 (  53 per task) (Fourier space)
 number of orbitals : spin up=    53 (  53 per task)  down=    53 (  53 per task) (Fourier space)

 supercell:
      lattice:    a1=<  23.890   0.000   0.000 >
                  a2=<   0.000  11.945   0.000 >
                  a3=<   0.000   0.000  11.945 >
      reciprocal: b1=<   0.263   0.000   0.000 >
                  b2=<   0.000   0.526   0.000 >
                  b3=<   0.000   0.000   0.526 >
      volume :       3408.7
      density cutoff=  2.213  fft= 16x  8x  8(      254 waves      127 per task)
      wavefnc cutoff=  2.213  fft= 16x  8x  8(      254 waves      127 per task)
      ewald summation: cut radius=    3.80  and  8
                        madelung= 1.41143267

 technical parameters:
      translation constrained
      time step=     15.80     ficticious mass=  400000.0
      tolerance=.100E-08 (energy)   0.100E-08 (electron)   0.100E-03 (ion)
      maximum iterations =      1000 (  100 inner     10 outer )



          ================ iteration =========================
     >>>  ITERATION STARTED AT Sun Jul 12 16:51:25 2020  <<<
    iter.           Energy         DeltaE       DeltaRho 
    ------------------------------------------------------
     100   -0.1296785065E+03   -0.82075E-01    0.17681E-02    0.00000E+00
     200   -0.1359900312E+03   -0.39946E-02    0.59039E-03    0.00000E+00
     300   -0.1379609968E+03   -0.12474E-02    0.39776E-03    0.00000E+00
     400   -0.1391119572E+03   -0.72846E-03    0.56080E-03    0.00000E+00
     500   -0.1402454917E+03   -0.71743E-03    0.31338E-03    0.00000E+00
     600   -0.1410899953E+03   -0.53450E-03    0.13237E-03    0.00000E+00
     700   -0.1415568327E+03   -0.29547E-03    0.74755E-04    0.00000E+00
     800   -0.1418096236E+03   -0.15999E-03    0.55814E-04    0.00000E+00
     900   -0.1419962049E+03   -0.11809E-03    0.58828E-04    0.00000E+00
    1000   -0.1421493621E+03   -0.96935E-04    0.41036E-04    0.00000E+00
 *** arived at the Maximum iiteration.   terminated.
     >>>  ITERATION ENDED   AT Sun Jul 12 16:51:33 2020  <<<



          =============  summary of results  =================
 final position of ions:
        1 Mg   (    5.63091    0.00000    3.98107 ) - atomic mass=  23.985          
        2 Mg   (    0.00000    0.00000    3.98107 ) - atomic mass=  23.985          
        3 Mg   (    2.81545   -2.81545   -0.00058 ) - atomic mass=  23.985          
        4 Mg   (    2.81545    2.81545   -0.00058 ) - atomic mass=  23.985          
        5 Mg   (    5.63091    0.00000   -3.98224 ) - atomic mass=  23.985          
        6 Mg   (    0.00000    0.00000   -3.96901 ) - atomic mass=  23.985          
        7 Mg   (    0.00000   -5.63091    3.98107 ) - atomic mass=  23.985          
        8 Mg   (   -2.81545   -2.81545   -0.00058 ) - atomic mass=  23.985          
        9 Mg   (   -0.00000   -5.63091   -3.98224 ) - atomic mass=  23.985          
       10 Mg   (    0.00000    5.63091    3.98107 ) - atomic mass=  23.985          
       11 Mg   (   -2.81545    2.81545   -0.00058 ) - atomic mass=  23.985          
       12 Mg   (    0.00000    5.63091   -3.98224 ) - atomic mass=  23.985          
       13 Mg   (   -5.63091    0.00000    3.98107 ) - atomic mass=  23.985          
       14 Mg   (   -5.63091   -0.00000   -3.98224 ) - atomic mass=  23.985          
       15 O    (    0.00000    0.00000   -0.00058 ) - atomic mass=  15.995          
       16 O    (    5.63091    0.00000   -0.00058 ) - atomic mass=  15.995          
       17 O    (    2.81545    2.81545    3.98107 ) - atomic mass=  15.995          
       18 O    (    2.81545   -2.81545    3.98107 ) - atomic mass=  15.995          
       19 O    (    2.81545    2.81545   -3.98224 ) - atomic mass=  15.995          
       20 O    (    2.81545   -2.81545   -3.98224 ) - atomic mass=  15.995          
       21 O    (    0.00000   -5.63091   -0.00058 ) - atomic mass=  15.995          
       22 O    (   -2.81545   -2.81545    3.98107 ) - atomic mass=  15.995          
       23 O    (   -2.81545   -2.81545   -3.98224 ) - atomic mass=  15.995          
       24 O    (    0.00000    5.63091   -0.00058 ) - atomic mass=  15.995          
       25 O    (   -2.81545    2.81545    3.98107 ) - atomic mass=  15.995          
       26 O    (   -2.81545    2.81545   -3.98224 ) - atomic mass=  15.995          
       27 O    (   -5.63091    0.00000   -0.00058 ) - atomic mass=  15.995          
        G.C.   (    0.00000   -0.00000   -0.00009 )
        C.O.M. (    0.00000   -0.00000   -0.00000 )
        number of constraints =      0 ( DOF =     75 )

 number of electrons: spin up=   53.00000  down=   53.00000 (real space)


 total     energy    :  -0.1421493621E+03 (   -0.52648E+01/ion)
 total orbital energy:  -0.4103218169E+02 (   -0.77419E+00/electron)
 hartree   energy    :   0.2882550508E+03 (    0.54388E+01/electron)
 exc-corr  energy    :  -0.4169386262E+02 (   -0.78668E+00/electron)
 ion-ion   energy    :   0.1743201826E+03 (    0.64563E+01/ion)

 K.S. kinetic energy :   0.7848167182E+02 (    0.14808E+01/electron)
 K.S. V_l  energy    :  -0.6531838103E+03 (   -0.12324E+02/electron)
 K.S. V_nl energy    :   0.1167140560E+02 (    0.22022E+00/electron)
 K.S. V_Hart energy  :   0.5765101015E+03 (    0.10878E+02/electron)
 K.S. V_xc energy    :  -0.5451155032E+02 (   -0.10285E+01/electron)
 Virial Coefficient  :  -0.1522825021E+01

 orbital energies:
     0.1650391E+00 (   4.491eV)
     0.9757286E-01 (   2.655eV)
     0.5869061E-01 (   1.597eV)
     0.1444946E-01 (   0.393eV)
    -0.2679619E-01 (  -0.729eV)
    -0.3509161E-01 (  -0.955eV)
    -0.4842016E-01 (  -1.318eV)
    -0.5521325E-01 (  -1.502eV)
    -0.6620290E-01 (  -1.801eV)
    -0.7089684E-01 (  -1.929eV)
    -0.7232954E-01 (  -1.968eV)
    -0.7915087E-01 (  -2.154eV)
    -0.1038622E+00 (  -2.826eV)
    -0.1118483E+00 (  -3.044eV)
    -0.1205857E+00 (  -3.281eV)
    -0.1284410E+00 (  -3.495eV)
    -0.1293660E+00 (  -3.520eV)
    -0.1477547E+00 (  -4.021eV)
    -0.1584305E+00 (  -4.311eV)
    -0.1682492E+00 (  -4.578eV)
    -0.1745232E+00 (  -4.749eV)
    -0.1897498E+00 (  -5.163eV)
    -0.2006297E+00 (  -5.459eV)
    -0.2091637E+00 (  -5.692eV)
    -0.2167739E+00 (  -5.899eV)
    -0.2233990E+00 (  -6.079eV)
    -0.2240012E+00 (  -6.095eV)
    -0.2252778E+00 (  -6.130eV)
    -0.2318980E+00 (  -6.310eV)
    -0.2359178E+00 (  -6.420eV)
    -0.2405247E+00 (  -6.545eV)
    -0.2414762E+00 (  -6.571eV)
    -0.2421981E+00 (  -6.591eV)
    -0.2701894E+00 (  -7.352eV)
    -0.2764054E+00 (  -7.521eV)
    -0.2770942E+00 (  -7.540eV)
    -0.2939490E+00 (  -7.999eV)
    -0.5652409E+00 ( -15.381eV)
    -0.7616041E+00 ( -20.724eV)
    -0.7682163E+00 ( -20.904eV)
    -0.7686125E+00 ( -20.915eV)
    -0.7706124E+00 ( -20.970eV)
    -0.7752838E+00 ( -21.097eV)
    -0.8168283E+00 ( -22.227eV)
    -0.8228415E+00 ( -22.391eV)
    -0.8238492E+00 ( -22.418eV)
    -0.8246276E+00 ( -22.439eV)
    -0.8409625E+00 ( -22.884eV)
    -0.8438380E+00 ( -22.962eV)
    -0.9633772E+00 ( -26.215eV)
    -0.1173358E+01 ( -31.929eV)
    -0.1189891E+01 ( -32.379eV)
    -0.2646889E+01 ( -72.026eV)

 Total PSPW energy   :  -0.1421493621E+03


=== Spin Contamination ===

 <Sexact^2> =    0.0000000000000000     
 <S^2>      =    0.0000000000000000     



== Center of Charge ==

spin up     (   -0.0016,    0.0023,    0.0005 )
spin down   (   -0.0016,    0.0023,    0.0005 )
     total  (   -0.0016,    0.0023,    0.0005 )
ionic       (    0.0000,   -0.0000,   -0.0003 )
crystal     (    0.0000,    0.0000,    0.0255 )


== Crystal Dipole ==

mu   =  (    0.1688,   -0.2392,    2.6532 ) au
|mu| =     2.6693 au,       6.7843 Debye


== Molecular Dipole wrt Center of Mass ==

mu   =  (    0.1688,   -0.2392,   -0.0871 ) au
|mu| =     0.3055 au,       0.7764 Debye

 output psi filename:./MgO.movecs

 -----------------
 cputime in seconds
 prologue    :   0.19121003150939941     
 main loop   :    8.1293849945068359     
 epilogue    :   0.12118816375732422     
 total       :    8.4417831897735596     
 cputime/step:    8.1293849945068362E-003



Time spent doing                        total          step       percent
  total time                 :   0.844183E+01  0.844183E-02       100.0 %
  i/o time                   :   0.115756E+00  0.115756E-03         1.4 %
  FFTs                       :   0.715439E-01  0.715439E-04         0.8 %
  dot products               :   0.123939E+01  0.123939E-02        14.7 %
  geodesic                   :   0.115869E+01  0.115869E-02        13.7 %
  ffm_dgemm                  :   0.903497E+00  0.903497E-03        10.7 %
  fmf_dgemm                  :   0.231033E+00  0.231033E-03         2.7 %
  m_diagonalize              :   0.135112E-02  0.135112E-05         0.0 %
  exchange correlation       :   0.931741E-01  0.931741E-04         1.1 %
  local pseudopotentials     :   0.335434E-01  0.335434E-04         0.4 %
  non-local pseudopotentials :   0.216569E+01  0.216569E-02        25.7 %
  hartree potentials         :   0.284688E-03  0.284688E-06         0.0 %
  ion-ion interaction        :   0.115465E+01  0.115465E-02        13.7 %
  structure factors          :   0.542959E-01  0.542959E-04         0.6 %
  phase factors              :   0.124686E-01  0.124686E-04         0.1 %
  masking and packing        :   0.268229E+00  0.268229E-03         3.2 %
  queue fft                  :   0.226760E+01  0.226760E-02        26.9 %
  queue fft (serial)         :   0.886916E+00  0.886916E-03        10.5 %
  queue fft (message passing):   0.130882E+01  0.130882E-02        15.5 %
     >>>  JOB COMPLETED     AT Sun Jul 12 16:51:33 2020  <<<

 Task  times  cpu:        8.4s     wall:        8.4s


                                NWChem Input Module
                                -------------------


 task_energy: unknown theory                   0
 ------------------------------------------------------------------------
 ------------------------------------------------------------------------
  current input line : 
     0: 
 ------------------------------------------------------------------------
 ------------------------------------------------------------------------
 There is an error in the input file
 ------------------------------------------------------------------------
 For more information see the NWChem manual at http://www.nwchem-sw.org/index.php/NWChem_Documentation


 ------------------------------------------------------------------------
 task_energy: unknown theory                   0
 ------------------------------------------------------------------------
 ------------------------------------------------------------------------
  current input line : 
   194: task cg_pspw energy
 ------------------------------------------------------------------------
 ------------------------------------------------------------------------
 There is an error in the input file
 ------------------------------------------------------------------------
 For more information see the NWChem manual at http://www.nwchem-sw.org/index.php/NWChem_Documentation


 For further details see manual section:                                                                                                                                                                                                                                                                
0:0:task_energy: unknown theory:: -1
(rank:0 hostname:lxir127 pid:19103):ARMCI DASSERT fail. ../../ga-5-3/armci/src/common/armci.c:ARMCI_Error():208 cond:0
 For further details see manual section:                                                                                                                                                                                                                                                                
1:1:task_energy: unknown theory:: -1
(rank:1 hostname:lxir127 pid:19104):ARMCI DASSERT fail. ../../ga-5-3/armci/src/common/armci.c:ARMCI_Error():208 cond:0
