

 Parallel Execution: Process Information
 ==============================================================================
 Rank   Node Name                              NodeID   MyNodeRank  NodeMaster
    0   adf1                                      0          0          0
    1   adf1                                      0          1         -1
    2   adf1                                      0          2         -1
    3   adf1                                      0          3         -1
    4   adf1                                      0          4         -1
    5   adf1                                      0          5         -1
    6   adf1                                      0          6         -1
    7   adf1                                      0          7         -1
    8   adf1                                      0          8         -1
    9   adf1                                      0          9         -1
   10   adf1                                      0         10         -1
   11   adf1                                      0         11         -1
 ==============================================================================


May use up to 22932MB of RAM as shared memory on node 0

 *******************************************************************************
 *                                                                             *
 *  --------------------------------                                           *
 *   Amsterdam Modeling Suite (AMS)              2020.202                      *
 *  --------------------------------                                           *
 *                                               r90167 2020-12-05             *
 *                                                                             *
 *                                                                             *
 *                              =================                              *
 *                              |               |                              *
 *                              |     A M S     |                              *
 *                              |               |                              *
 *                              =================                              *
 *                                                                             *
 *                                                                             *
 *   Online information and documentation:  https://www.scm.com/support/       *
 *   E-mail:  support@scm.com   info@scm.com                                   *
 *                                                                             *
 *   Scientific publications using AMS results must be properly referenced     *
 *   See the User Manuals (or the web site) for recommended citations          *
 *   The terms and conditions of the End User License Agreement apply to       *
 *   the use of AMS, https://www.scm.com/license-terms/                        *
 *                                                                             *
 **********************  x86_64_linux_intel / intelmpi  ************************
 
 Licensed to: Dr. Miroslav Ilias / Matej Bel University, Department Chemistry, Fac. Natural Sciences / Banska Bystrica / SLOVAKIA
 SCM User ID: u17848
  
 AMS 2020.202  RunTime: Mar06-2021 06:24:34  Nodes: 1  Procs: 12

 AMS jobname: ams
 AMS jobid  : 636398808

 Start   directory: /home/milias/Work/projects/open-collection/theoretical_chemistry/projects/nmr_diplomovky/HD/ams/pbe0_tz2p_good/cosmo-benzene/tmp.milias.19242.0.noindex/
 Results directory: /home/milias/Work/projects/open-collection/theoretical_chemistry/projects/nmr_diplomovky/HD/ams/pbe0_tz2p_good/cosmo-benzene/HD.geopt_freq_nmr_shield_pbe0_tz2p_good_cosmo-benzene.results/
 Scratch directory: /tmp/amstmp_ams_kid0.636398808/


 Communication costs MPI_COMM_WORLD:      2.759 usec per message,   0.0862 usec per 8-byte item
 Communication costs for intra-node:      2.791 usec per message,   0.0273 usec per 8-byte item

 RNG seed: -1061752186 -1135670850 1656160861 1860798382 1139069925 1205799198 2099279446 -1474327364



                       *********************************************************************
                       *  ADF 2020.202  RunTime: Mar06-2021 06:24:35  Nodes: 1  Procs: 12  *
                       *********************************************************************
  
       ***************************
       *  GEOMETRY OPTIMIZATION  *
       ***************************

Optimization Method                    Quasi Newton
Optimization Coordinates               Delocalized Coordinates
Optimize lattice                       F
 
 ------------------------------------------------------
 Convergence criteria (Hartree,Angstrom)
 ------------------------------------------------------
 Maximum gradient               0.001000000000
 Maximum rms gradient           0.000666666667
 Maximum step allowed           0.001000000000
 Maximum rms step allowed       0.000666666667
 Maximum energy change allowe   0.000150000000
 Maximum stress energy allowe   0.000500000000
 
Initial model Hessian                  Automatic Hessian
 
------------------------------------
Quasi-Newton Optimizer Parameters
------------------------------------
Hessian Update Method                  BFGS
Maximum number of steps                  250
First GDIIS cycle                          0
Maximum GDIIS vectors                      0
Trust radius (bohr)                        0.200000
Trust radius varies                        T
Constraints converged at all steps         T
Use projector                              T
 
 Rigid motions settings for: old optimizer
 Atomic rotations (x,y,z):     T T T
 Atomic translations (x,y,z):  T T T
 Tolerance:                   1.000000000000000E-006
 
--------
Geometry
--------
Atoms
  Index Symbol   x (angstrom)   y (angstrom)   z (angstrom)
      1      S     0.00000000     0.00000000    -0.96305464       adf.R=1.792
      2      C     1.37516212    -0.00000000     0.21741316       adf.R=1.700
      3      H     1.30708701     0.88839015     0.84606310       adf.R=1.350
      4      H     1.30708701    -0.88839015     0.84606310       adf.R=1.350
      5      C     2.66954682    -0.00000000    -0.55853959       adf.R=1.700
      6      H     2.77051719     0.88798365    -1.17778132       adf.R=1.350
      7      H     2.77051719    -0.88798365    -1.17778132       adf.R=1.350
      8      C    -1.37516212     0.00000000     0.21741316       adf.R=1.700
      9      H    -1.30708701    -0.88839015     0.84606310       adf.R=1.350
     10      H    -1.30708701     0.88839015     0.84606310       adf.R=1.350
     11      C    -2.66954682     0.00000000    -0.55853959       adf.R=1.700
     12      H    -2.77051719     0.88798365    -1.17778132       adf.R=1.350
     13      H    -2.77051719    -0.88798365    -1.17778132       adf.R=1.350
     14     Cl     4.06530829    -0.00000000     0.56413975       adf.R=1.725
     15     Cl    -4.06530829     0.00000000     0.56413975       adf.R=1.725
 
Total System Charge             0.00000
Bonding info available!
 
 
----------------
ADF Engine Input
----------------
 
 Basis
 Type TZ2P
 Core None
 End
 Save TAPE10
 XC
 Hybrid PBE0
 End
 Relativity
 Level None
 End
 Solvation
 Surf Delley
 Solv name=Benzene cav0=0.0 cav1=0.0067639
 Charged method=CONJ
 C-Mat POT
 SCF VAR ALL
 CSMRSP
 End
 NumericalQuality Good
 

 Title: *** (NO TITLE) ***

Number of symmetry operators: 4
Schoenflies symbol:           C(2V)
 Using automatic Hessian for delocalized coordinates.
 *** GOStep1 ***

 SOLVATION
-------------------------------------------

  The Delley construction of COSMO surface surface is calculated

       Division Level for Surface Triangles (NDIV)                  3
       Final Division Level for Triangles (NFDIV)                   1
       Radius of the Solvent (RSOL)                           3.28000 angstr
  Dielectric Constant (EPSL)                                  2.30000

       COSMO equation is solved iteratively-               conjugate-gradient

       Maximun of Iterations for Charges (NCIX)                  1000
       Criterion for Charge convergence (CCNV)                1.0E-08

  COSMO charges included variationally in SCF

       COSMO included at every SCF cycle

  Geometry-dependent empirical factor                         0.00000

  C-Matrix calculated in cspmtx

  In cspmtx, C-Matrix calculated using fitted potential

-------------------------------------------



 -------------------------------------------
  COSMO surface
  Area             =          599.064
  Volume           =         1038.897
  Number of Points =         1349
 -------------------------------------------



 ======================
 RI Hartree-Fock Scheme
 ======================
  
 Fit Set Quality     : GOOD
 Integration Quality : GOOD
 Threshold Quality   : GOOD
 Response Quality    : DEFAULT
 Is Range Separated  :  F
 
 RIHartreeFock Dependency: number of modified vectors:          12
 cosmo_calcen: 0.5 (esolb+esolc) (Hartrees) =   -0.004624

 Solvation energy (screening term,uncorrected) =     -2.901729 kcal/mol

 Solvation energy (dispersion and cavitation terms) =      0.641340 kcal/mol
 Solvation Energy Contributions (Hartrees)
          esola   esolb+esolc
     0.00462420   -0.00924840
 esol last cycle   -0.00462420
  
 Hartree-Fock exchange energy:   -103.691498888132     
 cosmo_calcen: 0.5 (esolb+esolc) (Hartrees) =   -0.004624

 Solvation energy (screening term,uncorrected) =     -2.901729 kcal/mol

 Solvation energy (dispersion and cavitation terms) =      0.641340 kcal/mol
 Solvation Energy Contributions (Hartrees)
          esola   esolb+esolc
     0.00462420   -0.00924840
 esol last cycle   -0.00462420
  pauli hf:                              1.355416715490907         36.8828           850.54          3558.65
  elstat hf:                            -1.320546855600817        -35.9339          -828.66         -3467.10

 Energy gradients wrt nuclear displacements
 ==========================================

     Atom      Cartesian (a.u./angstrom)
                 X         Y         Z
 ----------------------------------------
     1 S     0.000000  0.000000  0.000668
     2 C     0.001141  0.000000  0.001326
     3 H    -0.000635 -0.000005 -0.000324
     4 H    -0.000635  0.000005 -0.000324
     5 C    -0.001896 -0.000000 -0.002358
     6 H     0.000526 -0.000113  0.000319
     7 H     0.000526  0.000113  0.000319
     8 C    -0.001141 -0.000000  0.001326
     9 H     0.000635  0.000005 -0.000324
    10 H     0.000635 -0.000005 -0.000324
    11 C     0.001896  0.000000 -0.002358
    12 H    -0.000526 -0.000113  0.000319
    13 H    -0.000526  0.000113  0.000319
    14 Cl    0.000781 -0.000000  0.000709
    15 Cl   -0.000781  0.000000  0.000709
 ----------------------------------------
 Mulliken charges used for AMS results%charges...
 
----------------------------------------------------------------------
Geometry Convergence after Step   1       (Hartree/Angstrom,Angstrom)
----------------------------------------------------------------------
current energy                               -3.34726367 Hartree
energy change                      -3.34726367     0.00015000    F
constrained gradient max            0.00235763     0.00100000    F
constrained gradient rms            0.00082588     0.00066667    F
gradient max                        0.00235763
gradient rms                        0.00082588
cart. step max                      0.00283565     0.00100000    F
cart. step rms                      0.00124646     0.00066667    F
 
 
--------
Geometry
--------
Atoms
  Index Symbol   x (angstrom)   y (angstrom)   z (angstrom)
      1      S    -0.00000000    -0.00000000    -0.96281569       adf.R=1.792
      2      C     1.37556247    -0.00000000     0.21750208       adf.R=1.700
      3      H     1.30992266     0.88817530     0.84686100       adf.R=1.350
      4      H     1.30992266    -0.88817530     0.84686100       adf.R=1.350
      5      C     2.67000479    -0.00000000    -0.55785696       adf.R=1.700
      6      H     2.76846340     0.88780624    -1.17797774       adf.R=1.350
      7      H     2.76846340    -0.88780624    -1.17797774       adf.R=1.350
      8      C    -1.37556247     0.00000000     0.21750208       adf.R=1.700
      9      H    -1.30992266    -0.88817530     0.84686100       adf.R=1.350
     10      H    -1.30992266     0.88817530     0.84686100       adf.R=1.350
     11      C    -2.67000479     0.00000000    -0.55785696       adf.R=1.700
     12      H    -2.76846340     0.88780624    -1.17797774       adf.R=1.350
     13      H    -2.76846340    -0.88780624    -1.17797774       adf.R=1.350
     14     Cl     4.06722580    -0.00000000     0.56204579       adf.R=1.725
     15     Cl    -4.06722580     0.00000000     0.56204579       adf.R=1.725
 
Total System Charge             0.00000
Bonding info available!
 
 *** GOStep2 ***

 SOLVATION
-------------------------------------------

  The Delley construction of COSMO surface surface is calculated

       Division Level for Surface Triangles (NDIV)                  3
       Final Division Level for Triangles (NFDIV)                   1
       Radius of the Solvent (RSOL)                           3.28000 angstr
  Dielectric Constant (EPSL)                                  2.30000

       COSMO equation is solved iteratively-               conjugate-gradient

       Maximun of Iterations for Charges (NCIX)                  1000
       Criterion for Charge convergence (CCNV)                1.0E-08

  COSMO charges included variationally in SCF

       COSMO included at every SCF cycle

  Geometry-dependent empirical factor                         0.00000

  C-Matrix calculated in cspmtx

  In cspmtx, C-Matrix calculated using fitted potential

-------------------------------------------



 -------------------------------------------
  COSMO surface
  Area             =          599.104
  Volume           =         1039.008
  Number of Points =         1349
 -------------------------------------------



 ======================
 RI Hartree-Fock Scheme
 ======================
  
 Fit Set Quality     : GOOD
 Integration Quality : GOOD
 Threshold Quality   : GOOD
 Response Quality    : DEFAULT
 Is Range Separated  :  F
 
 RIHartreeFock Dependency: number of modified vectors:          12
 cosmo_calcen: 0.5 (esolb+esolc) (Hartrees) =   -0.004599

 Solvation energy (screening term,uncorrected) =     -2.886108 kcal/mol

 Solvation energy (dispersion and cavitation terms) =      0.641383 kcal/mol
 Solvation Energy Contributions (Hartrees)
          esola   esolb+esolc
     0.00459931   -0.00919861
 esol last cycle   -0.00459931
  
 Hartree-Fock exchange energy:   -103.691447280039     
 cosmo_calcen: 0.5 (esolb+esolc) (Hartrees) =   -0.004599

 Solvation energy (screening term,uncorrected) =     -2.886108 kcal/mol

 Solvation energy (dispersion and cavitation terms) =      0.641383 kcal/mol
 Solvation Energy Contributions (Hartrees)
          esola   esolb+esolc
     0.00459931   -0.00919861
 esol last cycle   -0.00459931
  pauli hf:                              1.356676172131667         36.9170           851.33          3561.95
  elstat hf:                            -1.320681500394596        -35.9376          -828.74         -3467.45

 Energy gradients wrt nuclear displacements
 ==========================================

     Atom      Cartesian (a.u./angstrom)
                 X         Y         Z
 ----------------------------------------
     1 S     0.000000  0.000000 -0.000124
     2 C     0.000607  0.000000  0.000345
     3 H    -0.000115 -0.000017 -0.000184
     4 H    -0.000115  0.000017 -0.000184
     5 C    -0.001330  0.000000 -0.000955
     6 H     0.000117 -0.000065  0.000201
     7 H     0.000117  0.000065  0.000201
     8 C    -0.000607 -0.000000  0.000345
     9 H     0.000115  0.000017 -0.000184
    10 H     0.000115 -0.000017 -0.000184
    11 C     0.001330  0.000000 -0.000955
    12 H    -0.000117 -0.000065  0.000201
    13 H    -0.000117  0.000065  0.000201
    14 Cl    0.000958 -0.000000  0.000639
    15 Cl   -0.000958  0.000000  0.000639
 ----------------------------------------
 Mulliken charges used for AMS results%charges...

 dE(predicted):    -0.81676E-05, dE(actual):    -0.76318E-05, Trust radius:    0.200000, all in a.u.
 
----------------------------------------------------------------------
Geometry Convergence after Step   2       (Hartree/Angstrom,Angstrom)
----------------------------------------------------------------------
current energy                               -3.34727130 Hartree
energy change                      -0.00000763     0.00015000    T
constrained gradient max            0.00132997     0.00100000    F
constrained gradient rms            0.00045770     0.00066667    T
gradient max                        0.00132997
gradient rms                        0.00045770
cart. step max                      0.00146730     0.00100000    F
cart. step rms                      0.00067915     0.00066667    F
 
 
--------
Geometry
--------
Atoms
  Index Symbol   x (angstrom)   y (angstrom)   z (angstrom)
      1      S    -0.00000000    -0.00000000    -0.96244546       adf.R=1.792
      2      C     1.37542469    -0.00000000     0.21783321       adf.R=1.700
      3      H     1.31092423     0.88800758     0.84771723       adf.R=1.350
      4      H     1.31092423    -0.88800758     0.84771723       adf.R=1.350
      5      C     2.66974085    -0.00000000    -0.55787719       adf.R=1.700
      6      H     2.76699610     0.88769632    -1.17858643       adf.R=1.350
      7      H     2.76699610    -0.88769632    -1.17858643       adf.R=1.350
      8      C    -1.37542469     0.00000000     0.21783321       adf.R=1.700
      9      H    -1.31092423    -0.88800758     0.84771723       adf.R=1.350
     10      H    -1.31092423     0.88800758     0.84771723       adf.R=1.350
     11      C    -2.66974085     0.00000000    -0.55787719       adf.R=1.700
     12      H    -2.76699610     0.88769632    -1.17858643       adf.R=1.350
     13      H    -2.76699610    -0.88769632    -1.17858643       adf.R=1.350
     14     Cl     4.06649887    -0.00000000     0.56105469       adf.R=1.725
     15     Cl    -4.06649887     0.00000000     0.56105469       adf.R=1.725
 
Total System Charge             0.00000
Bonding info available!
 
 *** GOStep3 ***

 SOLVATION
-------------------------------------------

  The Delley construction of COSMO surface surface is calculated

       Division Level for Surface Triangles (NDIV)                  3
       Final Division Level for Triangles (NFDIV)                   1
       Radius of the Solvent (RSOL)                           3.28000 angstr
  Dielectric Constant (EPSL)                                  2.30000

       COSMO equation is solved iteratively-               conjugate-gradient

       Maximun of Iterations for Charges (NCIX)                  1000
       Criterion for Charge convergence (CCNV)                1.0E-08

  COSMO charges included variationally in SCF

       COSMO included at every SCF cycle

  Geometry-dependent empirical factor                         0.00000

  C-Matrix calculated in cspmtx

  In cspmtx, C-Matrix calculated using fitted potential

-------------------------------------------



 -------------------------------------------
  COSMO surface
  Area             =          599.043
  Volume           =         1038.947
  Number of Points =         1349
 -------------------------------------------



 ======================
 RI Hartree-Fock Scheme
 ======================
  
 Fit Set Quality     : GOOD
 Integration Quality : GOOD
 Threshold Quality   : GOOD
 Response Quality    : DEFAULT
 Is Range Separated  :  F
 
 RIHartreeFock Dependency: number of modified vectors:          12
 cosmo_calcen: 0.5 (esolb+esolc) (Hartrees) =   -0.004585

 Solvation energy (screening term,uncorrected) =     -2.877403 kcal/mol

 Solvation energy (dispersion and cavitation terms) =      0.641318 kcal/mol
 Solvation Energy Contributions (Hartrees)
          esola   esolb+esolc
     0.00458543   -0.00917087
 esol last cycle   -0.00458543
  
 Hartree-Fock exchange energy:   -103.691806961523     
 cosmo_calcen: 0.5 (esolb+esolc) (Hartrees) =   -0.004585

 Solvation energy (screening term,uncorrected) =     -2.877403 kcal/mol

 Solvation energy (dispersion and cavitation terms) =      0.641318 kcal/mol
 Solvation Energy Contributions (Hartrees)
          esola   esolb+esolc
     0.00458543   -0.00917087
 esol last cycle   -0.00458543
  pauli hf:                              1.357617408936260         36.9426           851.92          3564.42
  elstat hf:                            -1.321070361545015        -35.9482          -828.98         -3468.47

 Energy gradients wrt nuclear displacements
 ==========================================

     Atom      Cartesian (a.u./angstrom)
                 X         Y         Z
 ----------------------------------------
     1 S     0.000000  0.000000 -0.000524
     2 C     0.000272 -0.000000  0.000133
     3 H     0.000069 -0.000010 -0.000022
     4 H     0.000069  0.000010 -0.000022
     5 C    -0.000736 -0.000000 -0.000338
     6 H    -0.000012  0.000000  0.000059
     7 H    -0.000012 -0.000000  0.000059
     8 C    -0.000272  0.000000  0.000133
     9 H    -0.000069  0.000010 -0.000022
    10 H    -0.000069 -0.000010 -0.000022
    11 C     0.000736  0.000000 -0.000338
    12 H     0.000012  0.000000  0.000059
    13 H     0.000012 -0.000000  0.000059
    14 Cl    0.000496  0.000000  0.000391
    15 Cl   -0.000496 -0.000000  0.000391
 ----------------------------------------
 Mulliken charges used for AMS results%charges...

 dE(predicted):    -0.20661E-05, dE(actual):    -0.37912E-05, Trust radius:    0.200000, all in a.u.
 
----------------------------------------------------------------------
Geometry Convergence after Step   3       (Hartree/Angstrom,Angstrom)
----------------------------------------------------------------------
current energy                               -3.34727510 Hartree
energy change                      -0.00000379     0.00015000    T
constrained gradient max            0.00073645     0.00100000    T
constrained gradient rms            0.00024061     0.00066667    T
gradient max                        0.00073645
gradient rms                        0.00024061
cart. step max                      0.00108831     0.00100000    F
cart. step rms                      0.00042101     0.00066667    T
 
 
--------
Geometry
--------
Atoms
  Index Symbol   x (angstrom)   y (angstrom)   z (angstrom)
      1      S     0.00000000    -0.00000000    -0.96141863       adf.R=1.792
      2      C     1.37572277    -0.00000000     0.21815722       adf.R=1.700
      3      H     1.31154079     0.88791937     0.84828561       adf.R=1.350
      4      H     1.31154079    -0.88791937     0.84828561       adf.R=1.350
      5      C     2.67008648    -0.00000000    -0.55792226       adf.R=1.700
      6      H     2.76674180     0.88758632    -1.17900684       adf.R=1.350
      7      H     2.76674180    -0.88758632    -1.17900684       adf.R=1.350
      8      C    -1.37572277     0.00000000     0.21815722       adf.R=1.700
      9      H    -1.31154079    -0.88791937     0.84828561       adf.R=1.350
     10      H    -1.31154079     0.88791937     0.84828561       adf.R=1.350
     11      C    -2.67008648     0.00000000    -0.55792226       adf.R=1.700
     12      H    -2.76674180     0.88758632    -1.17900684       adf.R=1.350
     13      H    -2.76674180    -0.88758632    -1.17900684       adf.R=1.350
     14     Cl     4.06667808    -0.00000000     0.55996637       adf.R=1.725
     15     Cl    -4.06667808     0.00000000     0.55996637       adf.R=1.725
 
Total System Charge             0.00000
Bonding info available!
 
 *** GOStep4 ***

 SOLVATION
-------------------------------------------

  The Delley construction of COSMO surface surface is calculated

       Division Level for Surface Triangles (NDIV)                  3
       Final Division Level for Triangles (NFDIV)                   1
       Radius of the Solvent (RSOL)                           3.28000 angstr
  Dielectric Constant (EPSL)                                  2.30000

       COSMO equation is solved iteratively-               conjugate-gradient

       Maximun of Iterations for Charges (NCIX)                  1000
       Criterion for Charge convergence (CCNV)                1.0E-08

  COSMO charges included variationally in SCF

       COSMO included at every SCF cycle

  Geometry-dependent empirical factor                         0.00000

  C-Matrix calculated in cspmtx

  In cspmtx, C-Matrix calculated using fitted potential

-------------------------------------------



 -------------------------------------------
  COSMO surface
  Area             =          599.035
  Volume           =         1038.929
  Number of Points =         1349
 -------------------------------------------



 ======================
 RI Hartree-Fock Scheme
 ======================
  
 Fit Set Quality     : GOOD
 Integration Quality : GOOD
 Threshold Quality   : GOOD
 Response Quality    : DEFAULT
 Is Range Separated  :  F
 
 RIHartreeFock Dependency: number of modified vectors:          12
 cosmo_calcen: 0.5 (esolb+esolc) (Hartrees) =   -0.004579

 Solvation energy (screening term,uncorrected) =     -2.873456 kcal/mol

 Solvation energy (dispersion and cavitation terms) =      0.641309 kcal/mol
 Solvation Energy Contributions (Hartrees)
          esola   esolb+esolc
     0.00457914   -0.00915829
 esol last cycle   -0.00457914
  
 Hartree-Fock exchange energy:   -103.692115912326     
 cosmo_calcen: 0.5 (esolb+esolc) (Hartrees) =   -0.004579

 Solvation energy (screening term,uncorrected) =     -2.873456 kcal/mol

 Solvation energy (dispersion and cavitation terms) =      0.641309 kcal/mol
 Solvation Energy Contributions (Hartrees)
          esola   esolb+esolc
     0.00457914   -0.00915829
 esol last cycle   -0.00457914
  pauli hf:                              1.358198699405428         36.9585           852.28          3565.95
  elstat hf:                            -1.321316939293848        -35.9549          -829.14         -3469.12

 Energy gradients wrt nuclear displacements
 ==========================================

     Atom      Cartesian (a.u./angstrom)
                 X         Y         Z
 ----------------------------------------
     1 S     0.000000  0.000000 -0.000230
     2 C     0.000132  0.000000 -0.000076
     3 H     0.000057 -0.000002  0.000038
     4 H     0.000057  0.000002  0.000038
     5 C    -0.000179  0.000000  0.000056
     6 H    -0.000019  0.000024 -0.000022
     7 H    -0.000019 -0.000024 -0.000022
     8 C    -0.000132 -0.000000 -0.000076
     9 H    -0.000057  0.000002  0.000038
    10 H    -0.000057 -0.000002  0.000038
    11 C     0.000179 -0.000000  0.000056
    12 H     0.000019  0.000024 -0.000022
    13 H     0.000019 -0.000024 -0.000022
    14 Cl    0.000138  0.000000  0.000104
    15 Cl   -0.000138 -0.000000  0.000104
 ----------------------------------------
 Mulliken charges used for AMS results%charges...
 
---------------------------------------------------------
Geometry Convergence after Step   4       ** CONVERGED **
---------------------------------------------------------
current energy                               -3.34727608 Hartree
energy change                      -0.00000099     0.00015000    T
constrained gradient max            0.00023048     0.00100000    T
constrained gradient rms            0.00007511     0.00066667    T
gradient max                        0.00023048
gradient rms                        0.00007511
cart. step max                      0.00053126     0.00100000    T
cart. step rms                      0.00020101     0.00066667    T
 
Geometry optimization converged

Optimized geometry:
 
--------
Geometry
--------
Atoms
  Index Symbol   x (angstrom)   y (angstrom)   z (angstrom)
      1      S     0.00000000    -0.00000000    -0.96141863       adf.R=1.792
      2      C     1.37572277    -0.00000000     0.21815722       adf.R=1.700
      3      H     1.31154079     0.88791937     0.84828561       adf.R=1.350
      4      H     1.31154079    -0.88791937     0.84828561       adf.R=1.350
      5      C     2.67008648    -0.00000000    -0.55792226       adf.R=1.700
      6      H     2.76674180     0.88758632    -1.17900684       adf.R=1.350
      7      H     2.76674180    -0.88758632    -1.17900684       adf.R=1.350
      8      C    -1.37572277     0.00000000     0.21815722       adf.R=1.700
      9      H    -1.31154079    -0.88791937     0.84828561       adf.R=1.350
     10      H    -1.31154079     0.88791937     0.84828561       adf.R=1.350
     11      C    -2.67008648     0.00000000    -0.55792226       adf.R=1.700
     12      H    -2.76674180     0.88758632    -1.17900684       adf.R=1.350
     13      H    -2.76674180    -0.88758632    -1.17900684       adf.R=1.350
     14     Cl     4.06667808    -0.00000000     0.55996637       adf.R=1.725
     15     Cl    -4.06667808     0.00000000     0.55996637       adf.R=1.725
 
Total System Charge             0.00000
Bonding info available!
 
Performing a single point calculation on the final geometry ...

 *** adf ***



 ===========================
 A T T A C H E D   F I L E S
 ===========================
  
 Restart/tmp/amstmp_ams_kid0.636398808/GOStep4.rkf*** GOStep4 ***



 ===============================
 M O D E L   P A R A M E T E R S
 ===============================
  
 DENSITY FUNCTIONAL POTENTIAL (scf)
    Hybrid:                            PBE0                                    == Not Default ==

 SPIN  (restricted / unrestr.)
    Molecule:                          Restricted                               
    Fragments:                         Restricted                               

 OTHER ASPECTS
    Relativistic Corrections:          ---                                     == Not Default ==

    Nuclear Charge Density Model:      Point Charge Nuclei                      
    Core Treatment:                    Frozen Orbital(s)                        

    Hyperfine or Zeeman Interaction:   ---                                      

 SOLVATION
-------------------------------------------

  The Delley construction of COSMO surface surface is calculated

       Division Level for Surface Triangles (NDIV)                  3
       Final Division Level for Triangles (NFDIV)                   1
       Radius of the Solvent (RSOL)                           3.28000 angstr
  Dielectric Constant (EPSL)                                  2.30000

       COSMO equation is solved iteratively-               conjugate-gradient

       Maximun of Iterations for Charges (NCIX)                  1000
       Criterion for Charge convergence (CCNV)                1.0E-08

  COSMO charges included variationally in SCF

       COSMO included at every SCF cycle

  Geometry-dependent empirical factor                         0.00000

  C-Matrix calculated in cspmtx

  In cspmtx, C-Matrix calculated using fitted potential

-------------------------------------------




 ===============
 G E O M E T R Y  ***  3D  Molecule  ***
 ===============
  

 ATOMS
 =====                            X Y Z                    CHARGE                     RADIUS
                                (Angstrom)             Nucl     +Core       At.Mass (Angstrom)
                       --------------------------    ----------------       ------- ----------
    1  S               0.0000   -0.0000   -0.9614     16.00     16.00       31.9721    1.7920
    2  C               1.3757   -0.0000    0.2182      6.00      6.00       12.0000    1.7000
    3  H               1.3115    0.8879    0.8483      1.00      1.00        1.0078    1.3500
    4  H               1.3115   -0.8879    0.8483      1.00      1.00        1.0078    1.3500
    5  C               2.6701   -0.0000   -0.5579      6.00      6.00       12.0000    1.7000
    6  H               2.7667    0.8876   -1.1790      1.00      1.00        1.0078    1.3500
    7  H               2.7667   -0.8876   -1.1790      1.00      1.00        1.0078    1.3500
    8  C              -1.3757    0.0000    0.2182      6.00      6.00       12.0000    1.7000
    9  H              -1.3115   -0.8879    0.8483      1.00      1.00        1.0078    1.3500
   10  H              -1.3115    0.8879    0.8483      1.00      1.00        1.0078    1.3500
   11  C              -2.6701    0.0000   -0.5579      6.00      6.00       12.0000    1.7000
   12  H              -2.7667    0.8876   -1.1790      1.00      1.00        1.0078    1.3500
   13  H              -2.7667   -0.8876   -1.1790      1.00      1.00        1.0078    1.3500
   14  Cl              4.0667   -0.0000    0.5600     17.00     17.00       34.9689    1.7250
   15  Cl             -4.0667    0.0000    0.5600     17.00     17.00       34.9689    1.7250


 FRAGMENTS
 =========                                     Atoms in this Fragment     Cart. coord.s (Angstrom)
                                               -------------------------------------------------------
    1  S                                                 1  S            0.0000   -0.0000   -0.9614
    2  C                                                 2  C            1.3757   -0.0000    0.2182
    3  C                                                 5  C            2.6701   -0.0000   -0.5579
    4  C                                                 8  C           -1.3757    0.0000    0.2182
    5  C                                                11  C           -2.6701    0.0000   -0.5579
    6  H                                                 3  H            1.3115    0.8879    0.8483
    7  H                                                 4  H            1.3115   -0.8879    0.8483
    8  H                                                 6  H            2.7667    0.8876   -1.1790
    9  H                                                 7  H            2.7667   -0.8876   -1.1790
   10  H                                                 9  H           -1.3115   -0.8879    0.8483
   11  H                                                10  H           -1.3115    0.8879    0.8483
   12  H                                                12  H           -2.7667    0.8876   -1.1790
   13  H                                                13  H           -2.7667   -0.8876   -1.1790
   14  Cl                                               14  Cl           4.0667   -0.0000    0.5600
   15  Cl                                               15  Cl          -4.0667    0.0000    0.5600


 Interatomic Distance Matrix (Angstrom)
 --------------------------------------

   1)     0.000
   2)     1.812   0.000
   3)     2.405   1.091   0.000
   4)     2.405   1.091   1.776   0.000
   5)     2.700   1.509   2.147   2.147   0.000
   6)     2.914   2.162   2.496   3.063   1.088   0.000
   7)     2.914   2.162   3.063   2.496   1.088   1.775   0.000
   8)     1.812   2.751   2.899   2.899   4.120   4.461   4.461   0.000
   9)     2.405   2.899   3.168   2.623   4.315   4.888   4.554   1.091   0.000
  10)     2.405   2.899   2.623   3.168   4.315   4.554   4.888   1.091   1.776   0.000
  11)     2.700   4.120   4.315   4.315   5.340   5.544   5.544   1.509   2.147   2.147
          0.000
  12)     2.914   4.461   4.554   4.888   5.544   5.533   5.811   2.162   3.063   2.496
          1.088   0.000
  13)     2.914   4.461   4.888   4.554   5.544   5.811   5.533   2.162   2.496   3.063
          1.088   1.775   0.000
  14)     4.342   2.713   2.909   2.909   1.789   2.346   2.346   5.453   5.459   5.459
          6.829   7.107   7.107   0.000
  15)     4.342   5.453   5.459   5.459   6.829   7.107   7.107   2.713   2.909   2.909
          1.789   2.346   2.346   8.133   0.000

 Min. Distance =    1.0876
 Max. Distance =    8.1334



 =====================================
 S Y M M E T R Y ,   E L E C T R O N S
 =====================================
  
 Symmetry: C(2V)

 Irreducible Representations, including subspecies
 -------------------------------------------------
 A1
 A2
 B1
 B2

 Symmetry is NOT used when fitting density


 Configuration of Valence Electrons
 ==================================
 ( determined in the SCF procedure )

 Total:   82

 Net Charge: 0 (Nuclei minus Electrons)

 Aufbau principle for MO occupations will be applied through SCF cycle no.     150
 Thereafter, the program will assign electrons to MOs that are spatially
 similar to the occupied MOs in a "reference" cycle ("KeepOrbitals").
 The reference cycle is always the PREVIOUS cycle: it will evolve with
 the SCF procedure.
1
 ***************************************************************************************************



                                      ****************************************
                                      *  B U I L D : (Fragments, Functions)  *
                                      ****************************************
  



 =======
 S F O s  ***  (Symmetrized Fragment Orbitals)  ***
 =======
  
 SFOs are linear combinations of (valence) Fragment Orbitals (FOs), such that the SFOs transform as the
 irreducible representations of the (molecular) symmetry group. Each SFO is therefore characterized by
 an irrep of the molecule and by a few (or only one) generating FOs.
 The SFOs constitute a symmetry-adapted basis for the Fock matrix. The MO eigenvector coefficients in
 this basis provide a direct interpretation of the MOs in terms of Frontier Orbital Theory.

 The SFOs are combined with auxiliary Core Functions (CFs) to ensure orthogonalization on the (frozen)
 Core Orbitals (COs). The Core-orthogonalized SFOs (CSFOs) constitute the true Fock basis.

 The FOs, and hence also the (C)SFOs are combinations of the elementary basis functions (BAS). The basis
 functions that participate in the description of the SFOs depend on the irrep. The indices of the
 involved functions are printed below for each irrep.
 (The complete list of primitive basis functions is printed in another section)

 Total nr. of (C)SFOs (summation over all irreps) :   294

 NOTE: a (C)SFO that is defined as a combination of more than one FO is usually NOT normalized.



                                       === A1 ===
 Nr. of SFOs :   98
 Cartesian basis functions that participate in this irrep (total number =   252) :
      1     2     3     4    11    12    13     7    10    16
     19    22    28    23    26    38    31    36    39    99
     40   100    41   101    42   102    43   103    46   106
     49   109    52   112    44   104    47   107    50   110
     58   118    55   115    53    56   113   116    68   128
     64   124    61    66   121   126    59    62   119   122
     69   129    70   130    71   131    72   132    73   133
     76   136    79   139    82   142    74   134    77   137
     80   140    88   148    85   145    83    86   143   146
     98   158    94   154    91    96   151   156    89    92
    149   152   159   171   207   219   160   172   208   220
    161   173   209   221   164   176   212   224   162   163
    174   175   210   211   222   223   170   182   218   230
    167   169   179   181   215   217   227   229   165   166
    168   177   178   180   213   214   216   225   226   228
    183   195   231   243   184   196   232   244   185   197
    233   245   188   200   236   248   186   187   198   199
    234   235   246   247   194   206   242   254   191   193
    203   205   239   241   251   253   189   190   192   201
    202   204   237   238   240   249   250   252   255   293
    256   294   257   295   258   296   265   303   266   304
    267   305   261   299   264   302   270   308   273   311
    276   314   259   297   262   300   268   306   271   309
    274   312   282   320   279   317   277   280   315   318
    292   330   288   326   285   290   323   328   283   286
    321   324

    SFO  (index         Fragment          Generating    Expansion in Fragment Orbitals
  indx  incl.CFs)   Occup   Orb.Energy   FragmentType  Coeff.   Orbital     on Fragment
 --------------------------------------------------------------------------------------
     1       1      2.000     -89.098 au  S             1.00      1 S               1
                        (   -2424.489 eV)
     2       2      2.000      -8.072 au  S             1.00      2 S               1
                        (    -219.643 eV)
     3       3      2.000      -0.710 au  S             1.00      3 S               1
                        (     -19.307 eV)
     4       4       --         0.231 au  S             1.00      4 S               1
                        (       6.280 eV)
     5       5       --         2.125 au  S             1.00      5 S               1
                        (      57.822 eV)
     6       6       --        12.877 au  S             1.00      6 S               1
                        (     350.390 eV)
     7       7       --       200.702 au  S             1.00      7 S               1
                        (    5461.371 eV)
     8       8      2.000      -6.002 au  S             1.00      1 P:z             1
                        (    -163.314 eV)
     9       9      1.333      -0.279 au  S             1.00      2 P:z             1
                        (      -7.592 eV)
    10      10       --         0.156 au  S             1.00      3 P:z             1
                        (       4.258 eV)
    11      11       --         1.281 au  S             1.00      4 P:z             1
                        (      34.851 eV)
    12      12       --        13.316 au  S             1.00      5 P:z             1
                        (     362.345 eV)
    13      13       --         0.491 au  S             1.00      1 D:z2            1
                        (      13.368 eV)
    14      14       --         0.491 au  S             1.00      1 D:x2-y2         1
                        (      13.368 eV)
    15      15       --         1.336 au  S             1.00      1 F:z3            1
                        (      36.349 eV)
    16      16       --         1.336 au  S             1.00      1 F:z             1
                        (      36.349 eV)
    17      17      2.000     -10.406 au  C             0.71      1 S               2
                        (    -283.169 eV)               0.71      1 S               4
    18      18      2.000      -0.583 au  C             0.71      2 S               2
                        (     -15.858 eV)               0.71      2 S               4
    19      19       --         0.415 au  C             0.71      3 S               2
                        (      11.281 eV)               0.71      3 S               4
    20      20       --         5.555 au  C             0.71      4 S               2
                        (     151.157 eV)               0.71      4 S               4
    21      21       --        50.670 au  C             0.71      5 S               2
                        (    1378.798 eV)               0.71      5 S               4
    22      22      0.667      -0.186 au  C             0.71      1 P:x             2
                        (      -5.051 eV)              -0.71      1 P:x             4
    23      23       --         0.203 au  C             0.71      2 P:x             2
                        (       5.518 eV)              -0.71      2 P:x             4
    24      24       --         2.125 au  C             0.71      3 P:x             2
                        (      57.838 eV)              -0.71      3 P:x             4
    25      25      0.667      -0.186 au  C             0.71      1 P:z             2
                        (      -5.051 eV)               0.71      1 P:z             4
    26      26       --         0.203 au  C             0.71      2 P:z             2
                        (       5.518 eV)               0.71      2 P:z             4
    27      27       --         2.125 au  C             0.71      3 P:z             2
                        (      57.838 eV)               0.71      3 P:z             4
    28      28       --         1.300 au  C             0.71      1 D:z2            2
                        (      35.363 eV)               0.71      1 D:z2            4
    29      29       --         1.300 au  C             0.71      1 D:x2-y2         2
                        (      35.363 eV)               0.71      1 D:x2-y2         4
    30      30       --         1.300 au  C             0.71      1 D:xz            2
                        (      35.363 eV)              -0.71      1 D:xz            4
    31      31       --         4.097 au  C             0.71      1 F:z3            2
                        (     111.488 eV)               0.71      1 F:z3            4
    32      32       --         4.097 au  C             0.71      1 F:z             2
                        (     111.488 eV)               0.71      1 F:z             4
    33      33       --         4.097 au  C             0.71      1 F:z2x           2
                        (     111.488 eV)              -0.71      1 F:z2x           4
    34      34       --         4.097 au  C             0.71      1 F:x             2
                        (     111.488 eV)              -0.71      1 F:x             4
    35      35      2.000     -10.406 au  C             0.71      1 S               3
                        (    -283.169 eV)               0.71      1 S               5
    36      36      2.000      -0.583 au  C             0.71      2 S               3
                        (     -15.858 eV)               0.71      2 S               5
    37      37       --         0.415 au  C             0.71      3 S               3
                        (      11.281 eV)               0.71      3 S               5
    38      38       --         5.555 au  C             0.71      4 S               3
                        (     151.157 eV)               0.71      4 S               5
    39      39       --        50.670 au  C             0.71      5 S               3
                        (    1378.798 eV)               0.71      5 S               5
    40      40      0.667      -0.186 au  C             0.71      1 P:x             3
                        (      -5.051 eV)              -0.71      1 P:x             5
    41      41       --         0.203 au  C             0.71      2 P:x             3
                        (       5.518 eV)              -0.71      2 P:x             5
    42      42       --         2.125 au  C             0.71      3 P:x             3
                        (      57.838 eV)              -0.71      3 P:x             5
    43      43      0.667      -0.186 au  C             0.71      1 P:z             3
                        (      -5.051 eV)               0.71      1 P:z             5
    44      44       --         0.203 au  C             0.71      2 P:z             3
                        (       5.518 eV)               0.71      2 P:z             5
    45      45       --         2.125 au  C             0.71      3 P:z             3
                        (      57.838 eV)               0.71      3 P:z             5
    46      46       --         1.300 au  C             0.71      1 D:z2            3
                        (      35.363 eV)               0.71      1 D:z2            5
    47      47       --         1.300 au  C             0.71      1 D:x2-y2         3
                        (      35.363 eV)               0.71      1 D:x2-y2         5
    48      48       --         1.300 au  C             0.71      1 D:xz            3
                        (      35.363 eV)              -0.71      1 D:xz            5
    49      49       --         4.097 au  C             0.71      1 F:z3            3
                        (     111.488 eV)               0.71      1 F:z3            5
    50      50       --         4.097 au  C             0.71      1 F:z             3
                        (     111.488 eV)               0.71      1 F:z             5
    51      51       --         4.097 au  C             0.71      1 F:z2x           3
                        (     111.488 eV)              -0.71      1 F:z2x           5
    52      52       --         4.097 au  C             0.71      1 F:x             3
                        (     111.488 eV)              -0.71      1 F:x             5
    53      53      1.000      -0.242 au  H             0.50      1 S               6
                        (      -6.582 eV)               0.50      1 S               7
                                                        0.50      1 S              10
                                                        0.50      1 S              11
    54      54       --         0.113 au  H             0.50      2 S               6
                        (       3.073 eV)               0.50      2 S               7
                                                        0.50      2 S              10
                                                        0.50      2 S              11
    55      55       --         1.599 au  H             0.50      3 S               6
                        (      43.507 eV)               0.50      3 S               7
                                                        0.50      3 S              10
                                                        0.50      3 S              11
    56      56       --         0.445 au  H             0.50      1 P:x             6
                        (      12.103 eV)               0.50      1 P:x             7
                                                       -0.50      1 P:x            10
                                                       -0.50      1 P:x            11
    57      57       --         0.445 au  H             0.50      1 P:y             6
                        (      12.103 eV)              -0.50      1 P:y             7
                                                       -0.50      1 P:y            10
                                                        0.50      1 P:y            11
    58      58       --         0.445 au  H             0.50      1 P:z             6
                        (      12.103 eV)               0.50      1 P:z             7
                                                        0.50      1 P:z            10
                                                        0.50      1 P:z            11
    59      59       --         2.628 au  H             0.50      1 D:z2            6
                        (      71.513 eV)               0.50      1 D:z2            7
                                                        0.50      1 D:z2           10
                                                        0.50      1 D:z2           11
    60      60       --         2.628 au  H             0.50      1 D:x2-y2         6
                        (      71.513 eV)               0.50      1 D:x2-y2         7
                                                        0.50      1 D:x2-y2        10
                                                        0.50      1 D:x2-y2        11
    61      61       --         2.628 au  H             0.50      1 D:xy            6
                        (      71.513 eV)              -0.50      1 D:xy            7
                                                        0.50      1 D:xy           10
                                                       -0.50      1 D:xy           11
    62      62       --         2.628 au  H             0.50      1 D:xz            6
                        (      71.513 eV)               0.50      1 D:xz            7
                                                       -0.50      1 D:xz           10
                                                       -0.50      1 D:xz           11
    63      63       --         2.628 au  H             0.50      1 D:yz            6
                        (      71.513 eV)              -0.50      1 D:yz            7
                                                       -0.50      1 D:yz           10
                                                        0.50      1 D:yz           11
    64      64      1.000      -0.242 au  H             0.50      1 S               8
                        (      -6.582 eV)               0.50      1 S               9
                                                        0.50      1 S              12
                                                        0.50      1 S              13
    65      65       --         0.113 au  H             0.50      2 S               8
                        (       3.073 eV)               0.50      2 S               9
                                                        0.50      2 S              12
                                                        0.50      2 S              13
    66      66       --         1.599 au  H             0.50      3 S               8
                        (      43.507 eV)               0.50      3 S               9
                                                        0.50      3 S              12
                                                        0.50      3 S              13
    67      67       --         0.445 au  H             0.50      1 P:x             8
                        (      12.103 eV)               0.50      1 P:x             9
                                                       -0.50      1 P:x            12
                                                       -0.50      1 P:x            13
    68      68       --         0.445 au  H             0.50      1 P:y             8
                        (      12.103 eV)              -0.50      1 P:y             9
                                                        0.50      1 P:y            12
                                                       -0.50      1 P:y            13
    69      69       --         0.445 au  H             0.50      1 P:z             8
                        (      12.103 eV)               0.50      1 P:z             9
                                                        0.50      1 P:z            12
                                                        0.50      1 P:z            13
    70      70       --         2.628 au  H             0.50      1 D:z2            8
                        (      71.513 eV)               0.50      1 D:z2            9
                                                        0.50      1 D:z2           12
                                                        0.50      1 D:z2           13
    71      71       --         2.628 au  H             0.50      1 D:x2-y2         8
                        (      71.513 eV)               0.50      1 D:x2-y2         9
                                                        0.50      1 D:x2-y2        12
                                                        0.50      1 D:x2-y2        13
    72      72       --         2.628 au  H             0.50      1 D:xy            8
                        (      71.513 eV)              -0.50      1 D:xy            9
                                                       -0.50      1 D:xy           12
                                                        0.50      1 D:xy           13
    73      73       --         2.628 au  H             0.50      1 D:xz            8
                        (      71.513 eV)               0.50      1 D:xz            9
                                                       -0.50      1 D:xz           12
                                                       -0.50      1 D:xz           13
    74      74       --         2.628 au  H             0.50      1 D:yz            8
                        (      71.513 eV)              -0.50      1 D:yz            9
                                                        0.50      1 D:yz           12
                                                       -0.50      1 D:yz           13
    75      75      2.000    -101.760 au  Cl            0.71      1 S              14
                        (   -2769.023 eV)               0.71      1 S              15
    76      76      2.000      -9.584 au  Cl            0.71      2 S              14
                        (    -260.807 eV)               0.71      2 S              15
    77      77      2.000      -0.848 au  Cl            0.71      3 S              14
                        (     -23.065 eV)               0.71      3 S              15
    78      78       --         0.237 au  Cl            0.71      4 S              14
                        (       6.461 eV)               0.71      4 S              15
    79      79       --         2.095 au  Cl            0.71      5 S              14
                        (      57.011 eV)               0.71      5 S              15
    80      80       --        12.974 au  Cl            0.71      6 S              14
                        (     353.034 eV)               0.71      6 S              15
    81      81       --       215.823 au  Cl            0.71      7 S              14
                        (    5872.843 eV)               0.71      7 S              15
    82      82      2.000      -7.312 au  Cl            0.71      1 P:x            14
                        (    -198.964 eV)              -0.71      1 P:x            15
    83      83      1.667      -0.356 au  Cl            0.71      2 P:x            14
                        (      -9.692 eV)              -0.71      2 P:x            15
    84      84       --         0.265 au  Cl            0.71      3 P:x            14
                        (       7.201 eV)              -0.71      3 P:x            15
    85      85       --         2.209 au  Cl            0.71      4 P:x            14
                        (      60.097 eV)              -0.71      4 P:x            15
    86      86       --        19.178 au  Cl            0.71      5 P:x            14
                        (     521.872 eV)              -0.71      5 P:x            15
    87      87      2.000      -7.312 au  Cl            0.71      1 P:z            14
                        (    -198.964 eV)               0.71      1 P:z            15
    88      88      1.667      -0.356 au  Cl            0.71      2 P:z            14
                        (      -9.692 eV)               0.71      2 P:z            15
    89      89       --         0.265 au  Cl            0.71      3 P:z            14
                        (       7.201 eV)               0.71      3 P:z            15
    90      90       --         2.209 au  Cl            0.71      4 P:z            14
                        (      60.097 eV)               0.71      4 P:z            15
    91      91       --        19.178 au  Cl            0.71      5 P:z            14
                        (     521.872 eV)               0.71      5 P:z            15
    92      92       --         0.442 au  Cl            0.71      1 D:z2           14
                        (      12.026 eV)               0.71      1 D:z2           15
    93      93       --         0.442 au  Cl            0.71      1 D:x2-y2        14
                        (      12.026 eV)               0.71      1 D:x2-y2        15
    94      94       --         0.442 au  Cl            0.71      1 D:xz           14
                        (      12.026 eV)              -0.71      1 D:xz           15
    95      95       --         1.250 au  Cl            0.71      1 F:z3           14
                        (      34.015 eV)               0.71      1 F:z3           15
    96      96       --         1.250 au  Cl            0.71      1 F:z            14
                        (      34.015 eV)               0.71      1 F:z            15
    97      97       --         1.250 au  Cl            0.71      1 F:z2x          14
                        (      34.015 eV)              -0.71      1 F:z2x          15
    98      98       --         1.250 au  Cl            0.71      1 F:x            14
                        (      34.015 eV)              -0.71      1 F:x            15



                                       === A2 ===
 Nr. of SFOs :   50
 Cartesian basis functions that participate in this irrep (total number =   156) :
     24    33    45   105    48   108    51   111    57   117
     54   114    67   127    63   123    60    65   120   125
     75   135    78   138    81   141    87   147    84   144
     97   157    93   153    90    95   150   155   159   171
    207   219   160   172   208   220   161   173   209   221
    164   176   212   224   162   163   174   175   210   211
    222   223   170   182   218   230   167   169   179   181
    215   217   227   229   165   166   168   177   178   180
    213   214   216   225   226   228   183   195   231   243
    184   196   232   244   185   197   233   245   188   200
    236   248   186   187   198   199   234   235   246   247
    194   206   242   254   191   193   203   205   239   241
    251   253   189   190   192   201   202   204   237   238
    240   249   250   252   260   298   263   301   269   307
    272   310   275   313   281   319   278   316   291   329
    287   325   284   289   322   327

    SFO  (index         Fragment          Generating    Expansion in Fragment Orbitals
  indx  incl.CFs)   Occup   Orb.Energy   FragmentType  Coeff.   Orbital     on Fragment
 --------------------------------------------------------------------------------------
     1       1       --         0.491 au  S             1.00      1 D:xy            1
                        (      13.368 eV)
     2       2       --         1.336 au  S             1.00      1 F:xyz           1
                        (      36.349 eV)
     3       3      0.667      -0.186 au  C             0.71      1 P:y             2
                        (      -5.051 eV)              -0.71      1 P:y             4
     4       4       --         0.203 au  C             0.71      2 P:y             2
                        (       5.518 eV)              -0.71      2 P:y             4
     5       5       --         2.125 au  C             0.71      3 P:y             2
                        (      57.838 eV)              -0.71      3 P:y             4
     6       6       --         1.300 au  C             0.71      1 D:xy            2
                        (      35.363 eV)               0.71      1 D:xy            4
     7       7       --         1.300 au  C             0.71      1 D:yz            2
                        (      35.363 eV)              -0.71      1 D:yz            4
     8       8       --         4.097 au  C             0.71      1 F:xyz           2
                        (     111.488 eV)               0.71      1 F:xyz           4
     9       9       --         4.097 au  C             0.71      1 F:z2y           2
                        (     111.488 eV)              -0.71      1 F:z2y           4
    10      10       --         4.097 au  C             0.71      1 F:y             2
                        (     111.488 eV)              -0.71      1 F:y             4
    11      11      0.667      -0.186 au  C             0.71      1 P:y             3
                        (      -5.051 eV)              -0.71      1 P:y             5
    12      12       --         0.203 au  C             0.71      2 P:y             3
                        (       5.518 eV)              -0.71      2 P:y             5
    13      13       --         2.125 au  C             0.71      3 P:y             3
                        (      57.838 eV)              -0.71      3 P:y             5
    14      14       --         1.300 au  C             0.71      1 D:xy            3
                        (      35.363 eV)               0.71      1 D:xy            5
    15      15       --         1.300 au  C             0.71      1 D:yz            3
                        (      35.363 eV)              -0.71      1 D:yz            5
    16      16       --         4.097 au  C             0.71      1 F:xyz           3
                        (     111.488 eV)               0.71      1 F:xyz           5
    17      17       --         4.097 au  C             0.71      1 F:z2y           3
                        (     111.488 eV)              -0.71      1 F:z2y           5
    18      18       --         4.097 au  C             0.71      1 F:y             3
                        (     111.488 eV)              -0.71      1 F:y             5
    19      19      1.000      -0.242 au  H             0.50      1 S               6
                        (      -6.582 eV)              -0.50      1 S               7
                                                        0.50      1 S              10
                                                       -0.50      1 S              11
    20      20       --         0.113 au  H             0.50      2 S               6
                        (       3.073 eV)              -0.50      2 S               7
                                                        0.50      2 S              10
                                                       -0.50      2 S              11
    21      21       --         1.599 au  H             0.50      3 S               6
                        (      43.507 eV)              -0.50      3 S               7
                                                        0.50      3 S              10
                                                       -0.50      3 S              11
    22      22       --         0.445 au  H             0.50      1 P:x             6
                        (      12.103 eV)              -0.50      1 P:x             7
                                                       -0.50      1 P:x            10
                                                        0.50      1 P:x            11
    23      23       --         0.445 au  H             0.50      1 P:y             6
                        (      12.103 eV)               0.50      1 P:y             7
                                                       -0.50      1 P:y            10
                                                       -0.50      1 P:y            11
    24      24       --         0.445 au  H             0.50      1 P:z             6
                        (      12.103 eV)              -0.50      1 P:z             7
                                                        0.50      1 P:z            10
                                                       -0.50      1 P:z            11
    25      25       --         2.628 au  H             0.50      1 D:z2            6
                        (      71.513 eV)              -0.50      1 D:z2            7
                                                        0.50      1 D:z2           10
                                                       -0.50      1 D:z2           11
    26      26       --         2.628 au  H             0.50      1 D:x2-y2         6
                        (      71.513 eV)              -0.50      1 D:x2-y2         7
                                                        0.50      1 D:x2-y2        10
                                                       -0.50      1 D:x2-y2        11
    27      27       --         2.628 au  H             0.50      1 D:xy            6
                        (      71.513 eV)               0.50      1 D:xy            7
                                                        0.50      1 D:xy           10
                                                        0.50      1 D:xy           11
    28      28       --         2.628 au  H             0.50      1 D:xz            6
                        (      71.513 eV)              -0.50      1 D:xz            7
                                                       -0.50      1 D:xz           10
                                                        0.50      1 D:xz           11
    29      29       --         2.628 au  H             0.50      1 D:yz            6
                        (      71.513 eV)               0.50      1 D:yz            7
                                                       -0.50      1 D:yz           10
                                                       -0.50      1 D:yz           11
    30      30      1.000      -0.242 au  H             0.50      1 S               8
                        (      -6.582 eV)              -0.50      1 S               9
                                                       -0.50      1 S              12
                                                        0.50      1 S              13
    31      31       --         0.113 au  H             0.50      2 S               8
                        (       3.073 eV)              -0.50      2 S               9
                                                       -0.50      2 S              12
                                                        0.50      2 S              13
    32      32       --         1.599 au  H             0.50      3 S               8
                        (      43.507 eV)              -0.50      3 S               9
                                                       -0.50      3 S              12
                                                        0.50      3 S              13
    33      33       --         0.445 au  H             0.50      1 P:x             8
                        (      12.103 eV)              -0.50      1 P:x             9
                                                        0.50      1 P:x            12
                                                       -0.50      1 P:x            13
    34      34       --         0.445 au  H             0.50      1 P:y             8
                        (      12.103 eV)               0.50      1 P:y             9
                                                       -0.50      1 P:y            12
                                                       -0.50      1 P:y            13
    35      35       --         0.445 au  H             0.50      1 P:z             8
                        (      12.103 eV)              -0.50      1 P:z             9
                                                       -0.50      1 P:z            12
                                                        0.50      1 P:z            13
    36      36       --         2.628 au  H             0.50      1 D:z2            8
                        (      71.513 eV)              -0.50      1 D:z2            9
                                                       -0.50      1 D:z2           12
                                                        0.50      1 D:z2           13
    37      37       --         2.628 au  H             0.50      1 D:x2-y2         8
                        (      71.513 eV)              -0.50      1 D:x2-y2         9
                                                       -0.50      1 D:x2-y2        12
                                                        0.50      1 D:x2-y2        13
    38      38       --         2.628 au  H             0.50      1 D:xy            8
                        (      71.513 eV)               0.50      1 D:xy            9
                                                        0.50      1 D:xy           12
                                                        0.50      1 D:xy           13
    39      39       --         2.628 au  H             0.50      1 D:xz            8
                        (      71.513 eV)              -0.50      1 D:xz            9
                                                        0.50      1 D:xz           12
                                                       -0.50      1 D:xz           13
    40      40       --         2.628 au  H             0.50      1 D:yz            8
                        (      71.513 eV)               0.50      1 D:yz            9
                                                       -0.50      1 D:yz           12
                                                       -0.50      1 D:yz           13
    41      41      2.000      -7.312 au  Cl            0.71      1 P:y            14
                        (    -198.964 eV)              -0.71      1 P:y            15
    42      42      1.667      -0.356 au  Cl            0.71      2 P:y            14
                        (      -9.692 eV)              -0.71      2 P:y            15
    43      43       --         0.265 au  Cl            0.71      3 P:y            14
                        (       7.201 eV)              -0.71      3 P:y            15
    44      44       --         2.209 au  Cl            0.71      4 P:y            14
                        (      60.097 eV)              -0.71      4 P:y            15
    45      45       --        19.178 au  Cl            0.71      5 P:y            14
                        (     521.872 eV)              -0.71      5 P:y            15
    46      46       --         0.442 au  Cl            0.71      1 D:xy           14
                        (      12.026 eV)               0.71      1 D:xy           15
    47      47       --         0.442 au  Cl            0.71      1 D:yz           14
                        (      12.026 eV)              -0.71      1 D:yz           15
    48      48       --         1.250 au  Cl            0.71      1 F:xyz          14
                        (      34.015 eV)               0.71      1 F:xyz          15
    49      49       --         1.250 au  Cl            0.71      1 F:z2y          14
                        (      34.015 eV)              -0.71      1 F:z2y          15
    50      50       --         1.250 au  Cl            0.71      1 F:y            14
                        (      34.015 eV)              -0.71      1 F:y            15



                                       === B1 ===
 Nr. of SFOs :   90
 Cartesian basis functions that participate in this irrep (total number =   243) :
      5     8    14    17    20    25    34    29    32    39
     99    40   100    41   101    42   102    43   103    46
    106    49   109    52   112    44   104    47   107    50
    110    58   118    55   115    53    56   113   116    68
    128    64   124    61    66   121   126    59    62   119
    122    69   129    70   130    71   131    72   132    73
    133    76   136    79   139    82   142    74   134    77
    137    80   140    88   148    85   145    83    86   143
    146    98   158    94   154    91    96   151   156    89
     92   149   152   159   171   207   219   160   172   208
    220   161   173   209   221   164   176   212   224   162
    163   174   175   210   211   222   223   170   182   218
    230   167   169   179   181   215   217   227   229   165
    166   168   177   178   180   213   214   216   225   226
    228   183   195   231   243   184   196   232   244   185
    197   233   245   188   200   236   248   186   187   198
    199   234   235   246   247   194   206   242   254   191
    193   203   205   239   241   251   253   189   190   192
    201   202   204   237   238   240   249   250   252   255
    293   256   294   257   295   258   296   265   303   266
    304   267   305   261   299   264   302   270   308   273
    311   276   314   259   297   262   300   268   306   271
    309   274   312   282   320   279   317   277   280   315
    318   292   330   288   326   285   290   323   328   283
    286   321   324

    SFO  (index         Fragment          Generating    Expansion in Fragment Orbitals
  indx  incl.CFs)   Occup   Orb.Energy   FragmentType  Coeff.   Orbital     on Fragment
 --------------------------------------------------------------------------------------
     1       1      2.000      -6.002 au  S             1.00      1 P:x             1
                        (    -163.314 eV)
     2       2      1.333      -0.279 au  S             1.00      2 P:x             1
                        (      -7.592 eV)
     3       3       --         0.156 au  S             1.00      3 P:x             1
                        (       4.258 eV)
     4       4       --         1.281 au  S             1.00      4 P:x             1
                        (      34.851 eV)
     5       5       --        13.316 au  S             1.00      5 P:x             1
                        (     362.345 eV)
     6       6       --         0.491 au  S             1.00      1 D:xz            1
                        (      13.368 eV)
     7       7       --         1.336 au  S             1.00      1 F:z2x           1
                        (      36.349 eV)
     8       8       --         1.336 au  S             1.00      1 F:x             1
                        (      36.349 eV)
     9       9      2.000     -10.406 au  C             0.71      1 S               2
                        (    -283.169 eV)              -0.71      1 S               4
    10      10      2.000      -0.583 au  C             0.71      2 S               2
                        (     -15.858 eV)              -0.71      2 S               4
    11      11       --         0.415 au  C             0.71      3 S               2
                        (      11.281 eV)              -0.71      3 S               4
    12      12       --         5.555 au  C             0.71      4 S               2
                        (     151.157 eV)              -0.71      4 S               4
    13      13       --        50.670 au  C             0.71      5 S               2
                        (    1378.798 eV)              -0.71      5 S               4
    14      14      0.667      -0.186 au  C             0.71      1 P:x             2
                        (      -5.051 eV)               0.71      1 P:x             4
    15      15       --         0.203 au  C             0.71      2 P:x             2
                        (       5.518 eV)               0.71      2 P:x             4
    16      16       --         2.125 au  C             0.71      3 P:x             2
                        (      57.838 eV)               0.71      3 P:x             4
    17      17      0.667      -0.186 au  C             0.71      1 P:z             2
                        (      -5.051 eV)              -0.71      1 P:z             4
    18      18       --         0.203 au  C             0.71      2 P:z             2
                        (       5.518 eV)              -0.71      2 P:z             4
    19      19       --         2.125 au  C             0.71      3 P:z             2
                        (      57.838 eV)              -0.71      3 P:z             4
    20      20       --         1.300 au  C             0.71      1 D:z2            2
                        (      35.363 eV)              -0.71      1 D:z2            4
    21      21       --         1.300 au  C             0.71      1 D:x2-y2         2
                        (      35.363 eV)              -0.71      1 D:x2-y2         4
    22      22       --         1.300 au  C             0.71      1 D:xz            2
                        (      35.363 eV)               0.71      1 D:xz            4
    23      23       --         4.097 au  C             0.71      1 F:z3            2
                        (     111.488 eV)              -0.71      1 F:z3            4
    24      24       --         4.097 au  C             0.71      1 F:z             2
                        (     111.488 eV)              -0.71      1 F:z             4
    25      25       --         4.097 au  C             0.71      1 F:z2x           2
                        (     111.488 eV)               0.71      1 F:z2x           4
[...]
                               0.672    -0.160    -0.723
                               0.716    -0.105     0.690
                        -----------------------------------
 
================================================================================
 
 
===  TOTAL NMR SHIELDING TENSOR (ppm)
 
                        ***********************************
                        CARTESIAN AXIS REPRESENTATION

                        ==== total shielding tensor
                        -----------------------------------
                              29.678    -0.965    -1.687
                              -0.965    26.124    -5.427
                              -1.687    -5.427    28.476
                        -----------------------------------
                                  isotropic =     28.093

                        ***********************************
                        -----------------------------------
                        PRINCIPAL AXIS REPRESENTATION

                        ==== Principal components:

                              21.352    29.909    33.017
 
                        ==== Principal Axis System:

                              -0.213     0.950    -0.226
                              -0.752    -0.307    -0.583
                              -0.623     0.045     0.781
                        -----------------------------------
################################################################################
********************************************************************************
****  N U C L E U S : H(13)
 
 ADF-GUI atom: H(13)
 Internal NMR numbering of atoms: H(13)
 
 
================================================================================
 
 
===  PARAMAGNETIC NMR SHIELDING TENSORS (ppm)
 
    ===     paramagnetic b^(1) tensor       ===     paramagnetic u^(1) tensor
    -----------------------------------     -----------------------------------
           0.000     0.000     0.000               4.495   -14.014   -10.042
           0.000     0.000     0.000             -14.014     3.451   -10.160
           0.000     0.000     0.000             -10.042   -10.160     1.037
    -----------------------------------     -----------------------------------
              isotropic =      0.000                  isotropic =      2.994

    ===     paramagnetic s^(1) tensor       ===     paramagnetic gauge tensor
    -----------------------------------     -----------------------------------
          -3.105    15.063     9.645              -0.356    -0.577    -0.299
          15.063    -4.802     9.715              -0.577    -2.118    -0.215
           9.645     9.715    -1.618              -0.299    -0.215     0.119
    -----------------------------------     -----------------------------------
              isotropic =     -3.175                  isotropic =     -0.785

                        ***********************************
                        CARTESIAN AXIS REPRESENTATION

                        ==== total paramagnetic tensor
                        -----------------------------------
                               1.034     0.472    -0.695
                               0.472    -3.469    -0.660
                              -0.695    -0.660    -0.462
                        -----------------------------------
                                  isotropic =     -0.966

                        ***********************************
                        -----------------------------------
                        PRINCIPAL AXIS REPRESENTATION

                        ==== Principal components:

                              -3.631    -0.671     1.404
 
                        ==== Principal Axis System:

                               0.071     0.408    -0.910
                              -0.979    -0.144    -0.141
                              -0.189     0.902     0.389
                        -----------------------------------
 
================================================================================
 
 
===  DIAMAGNETIC NMR SHIELDING TENSORS (ppm)
 
    ===       diamagnetic core tensor       ===    diamagnetic valence tensor
    -----------------------------------     -----------------------------------
           0.000     0.000     0.000              28.632     0.526    -0.984
           0.000     0.000     0.000               0.526    29.589     6.091
           0.000     0.000     0.000              -0.984     6.091    28.925
    -----------------------------------     -----------------------------------
              isotropic =      0.000                  isotropic =     29.049

                        ***********************************
                        CARTESIAN AXIS REPRESENTATION

                        ==== total diamagnetic tensor
                        -----------------------------------
                              28.632     0.526    -0.984
                               0.526    29.589     6.091
                              -0.984     6.091    28.925
                        -----------------------------------
                                  isotropic =     29.049

                        ***********************************
                        -----------------------------------
                        PRINCIPAL AXIS REPRESENTATION

                        ==== Principal components:

                              22.953    28.823    35.370
 
                        ==== Principal Axis System:

                               0.186     0.981     0.044
                              -0.672     0.160    -0.723
                               0.716    -0.105    -0.690
                        -----------------------------------
 
================================================================================
 
 
===  TOTAL NMR SHIELDING TENSOR (ppm)
 
                        ***********************************
                        CARTESIAN AXIS REPRESENTATION

                        ==== total shielding tensor
                        -----------------------------------
                              29.666     0.997    -1.679
                               0.997    26.120     5.431
                              -1.679     5.431    28.463
                        -----------------------------------
                                  isotropic =     28.083

                        ***********************************
                        -----------------------------------
                        PRINCIPAL AXIS REPRESENTATION

                        ==== Principal components:

                              21.331    29.918    33.000
 
                        ==== Principal Axis System:

                               0.216     0.952    -0.219
                              -0.752     0.305     0.585
                               0.623     0.038     0.781
                        -----------------------------------
################################################################################
********************************************************************************
****  N U C L E U S : Cl(14)
 
 ADF-GUI atom: Cl(14)
 Internal NMR numbering of atoms: Cl(14)
 
 
================================================================================
 
 
===  PARAMAGNETIC NMR SHIELDING TENSORS (ppm)
 
    ===     paramagnetic b^(1) tensor       ===     paramagnetic u^(1) tensor
    -----------------------------------     -----------------------------------
           0.000     0.000     0.000            -201.941     0.375   273.683
           0.000     0.000     0.000               0.375  -540.570    -0.990
           0.000     0.000     0.000             273.683    -0.990  -284.437
    -----------------------------------     -----------------------------------
              isotropic =      0.000                  isotropic =   -342.316

    ===     paramagnetic s^(1) tensor       ===     paramagnetic gauge tensor
    -----------------------------------     -----------------------------------
          57.050    -0.027  -137.982              -0.730     0.001     1.231
          -0.027    68.184     0.035               0.001    -2.640    -0.002
        -137.982     0.035     5.066               1.231    -0.002    -3.034
    -----------------------------------     -----------------------------------
              isotropic =     43.433                  isotropic =     -2.134

                        ***********************************
                        CARTESIAN AXIS REPRESENTATION

                        ==== total paramagnetic tensor
                        -----------------------------------
                            -145.621     0.349   136.932
                               0.349  -475.026    -0.957
                             136.932    -0.957  -282.405
                        -----------------------------------
                                  isotropic =   -301.017

                        ***********************************
                        -----------------------------------
                        PRINCIPAL AXIS REPRESENTATION

                        ==== Principal components:

                            -475.035  -367.065   -60.952
 
                        ==== Principal Axis System:

                              -0.004    -0.526     0.851
                               1.000    -0.009    -0.000
                               0.008     0.850     0.526
                        -----------------------------------
 
================================================================================
 
 
===  DIAMAGNETIC NMR SHIELDING TENSORS (ppm)
 
    ===       diamagnetic core tensor       ===    diamagnetic valence tensor
    -----------------------------------     -----------------------------------
           0.000     0.000     0.000            1149.954     0.000     4.570
           0.000     0.000     0.000               0.000  1142.501    -0.000
           0.000     0.000     0.000               4.570    -0.000  1146.137
    -----------------------------------     -----------------------------------
              isotropic =      0.000                  isotropic =   1146.197

                        ***********************************
                        CARTESIAN AXIS REPRESENTATION

                        ==== total diamagnetic tensor
                        -----------------------------------
                            1149.954     0.000     4.570
                               0.000  1142.501    -0.000
                               4.570    -0.000  1146.137
                        -----------------------------------
                                  isotropic =   1146.197

                        ***********************************
                        -----------------------------------
                        PRINCIPAL AXIS REPRESENTATION

                        ==== Principal components:

                            1142.501  1143.093  1152.998
 
                        ==== Principal Axis System:

                              -0.000    -0.554     0.832
                               1.000    -0.000    -0.000
                               0.000     0.832     0.554
                        -----------------------------------
 
================================================================================
 
 
===  TOTAL NMR SHIELDING TENSOR (ppm)
 
                        ***********************************
                        CARTESIAN AXIS REPRESENTATION

                        ==== total shielding tensor
                        -----------------------------------
                            1004.333     0.349   141.502
                               0.349   667.475    -0.957
                             141.502    -0.957   863.732
                        -----------------------------------
                                  isotropic =    845.180

                        ***********************************
                        -----------------------------------
                        PRINCIPAL AXIS REPRESENTATION

                        ==== Principal components:

                             667.466   776.039  1092.036
 
                        ==== Principal Axis System:

                              -0.004    -0.527     0.850
                               1.000    -0.009    -0.000
                               0.008     0.850     0.527
                        -----------------------------------
################################################################################
********************************************************************************
****  N U C L E U S : Cl(15)
 
 ADF-GUI atom: Cl(15)
 Internal NMR numbering of atoms: Cl(15)
 
 
================================================================================
 
 
===  PARAMAGNETIC NMR SHIELDING TENSORS (ppm)
 
    ===     paramagnetic b^(1) tensor       ===     paramagnetic u^(1) tensor
    -----------------------------------     -----------------------------------
           0.000     0.000     0.000            -201.941     0.375  -273.682
           0.000     0.000     0.000               0.375  -540.570     0.990
           0.000     0.000     0.000            -273.682     0.990  -284.437
    -----------------------------------     -----------------------------------
              isotropic =      0.000                  isotropic =   -342.316

    ===     paramagnetic s^(1) tensor       ===     paramagnetic gauge tensor
    -----------------------------------     -----------------------------------
          57.050    -0.027   137.982              -0.730     0.001    -1.231
          -0.027    68.184    -0.035               0.001    -2.640     0.002
         137.982    -0.035     5.066              -1.231     0.002    -3.034
    -----------------------------------     -----------------------------------
              isotropic =     43.433                  isotropic =     -2.134

                        ***********************************
                        CARTESIAN AXIS REPRESENTATION

                        ==== total paramagnetic tensor
                        -----------------------------------
                            -145.621     0.349  -136.932
                               0.349  -475.026     0.957
                            -136.932     0.957  -282.405
                        -----------------------------------
                                  isotropic =   -301.017

                        ***********************************
                        -----------------------------------
                        PRINCIPAL AXIS REPRESENTATION

                        ==== Principal components:

                            -475.035  -367.065   -60.952
 
                        ==== Principal Axis System:

                              -0.004     0.526     0.851
                               1.000     0.009    -0.000
                              -0.008     0.850    -0.526
                        -----------------------------------
 
================================================================================
 
 
===  DIAMAGNETIC NMR SHIELDING TENSORS (ppm)
 
    ===       diamagnetic core tensor       ===    diamagnetic valence tensor
    -----------------------------------     -----------------------------------
           0.000     0.000     0.000            1149.954     0.000    -4.570
           0.000     0.000     0.000               0.000  1142.501     0.000
           0.000     0.000     0.000              -4.570     0.000  1146.137
    -----------------------------------     -----------------------------------
              isotropic =      0.000                  isotropic =   1146.197

                        ***********************************
                        CARTESIAN AXIS REPRESENTATION

                        ==== total diamagnetic tensor
                        -----------------------------------
                            1149.954     0.000    -4.570
                               0.000  1142.501     0.000
                              -4.570     0.000  1146.137
                        -----------------------------------
                                  isotropic =   1146.197

                        ***********************************
                        -----------------------------------
                        PRINCIPAL AXIS REPRESENTATION

                        ==== Principal components:

                            1142.501  1143.093  1152.998
 
                        ==== Principal Axis System:

                              -0.000     0.554     0.832
                               1.000     0.000    -0.000
                              -0.000     0.832    -0.554
                        -----------------------------------
 
================================================================================
 
 
===  TOTAL NMR SHIELDING TENSOR (ppm)
 
                        ***********************************
                        CARTESIAN AXIS REPRESENTATION

                        ==== total shielding tensor
                        -----------------------------------
                            1004.333     0.349  -141.502
                               0.349   667.475     0.957
                            -141.502     0.957   863.733
                        -----------------------------------
                                  isotropic =    845.180

                        ***********************************
                        -----------------------------------
                        PRINCIPAL AXIS REPRESENTATION

                        ==== Principal components:

                             667.466   776.039  1092.036
 
                        ==== Principal Axis System:

                              -0.004     0.527     0.850
                               1.000     0.009    -0.000
                              -0.008     0.850    -0.527
                        -----------------------------------
 *******************************************************************************

                             N M R   E X I T
 NORMAL TERMINATION



 =================
 Timing Statistics
 =================
  
 Total Used :                     CPU=      171.78      System=        3.66     Elapsed=      184.21

 Calls  Section                     ( Mean, Percentage )
 ---------------------------------------------------------------------------------------------------
     3  ><      ................      0.00    0.00             0.00    0.01             0.00    0.00
     1  INIT    ................      0.52    0.30             0.02    0.48             0.54    0.29
     1  RDEIGX  ................     43.07   25.07             0.47   12.96            46.81   25.41
     1  AOF1K   ................      2.55    1.48             0.02    0.44             2.66    1.45
    15  AOPKK   ................      4.80   41.90             0.20   80.84             5.23   42.61
    15  XSIGP   ................      0.02    0.19             0.00    0.32             0.02    0.19
    15  AODKKK  ................      3.55   30.99             0.01    4.44             3.68   29.98
    15  XDV     ................      0.01    0.06             0.00    0.27             0.01    0.06
    15  XSIGD   ................      0.00    0.00             0.00    0.00             0.00    0.00
     1  EXIT PROCEDURE .........      0.00    0.00             0.01    0.25             0.02    0.01


 Currently Open Files (EXIT00)
 ====================

 Unit    Access Format  Status   Type       Ident (file)
 -------------------------------------------------------
   3      SEQ    FORM   TRANSP  NORMAL      LOGFILE
                                          ( /home/milias/Work/projects/open-collection/theoretical_chemistry/projects/nmr_diplomovky/HD/ams/pbe0_tz2p_good/cosmo-benzene/HD.geopt_freq_nmr_shield_pbe0_tz2p_good_cosmo-benzene.logfile )
