 *******************************************************************************
 ** Site#: 30659        For non-commercial use only    Version 20.225L 64BITS **
 *******************************************************************************
 ** Cite this program as: MOPAC2016, Version: 20.225L, James J. P. Stewart,   **
 ** Stewart Computational Chemistry, web: HTTP://OpenMOPAC.net. Days left: 274**
 *******************************************************************************
 **                                                                           **
 **                                MOPAC2016                                  **
 **                                                                           **
 *******************************************************************************

                              PM7 CALCULATION RESULTS

 *******************************************************************************
 *  CALCULATION DONE:                                Thu Nov 12 09:03:00 2020  *
 *  PM7        - The PM7 Hamiltonian to be used
 *  SINGLET    - SPIN STATE DEFINED AS A SINGLET
 *
 *
 *
 *                 CHARGE ON SYSTEM = 0
 *
 *
 *
 *  T=         - A TIME OF 172800.0 SECONDS REQUESTED
 *  DUMP=N     - RESTART FILE WRITTEN EVERY 7200.0 SECONDS REQUESTED
 *  GNORM      - EXIT WHEN GRADIENT NORM DROPS BELOW 0.000
 *  AUX        - OUTPUT AUXILIARY INFORMATION
 *  LARGE      - EXPANDED OUTPUT TO BE PRINTED
 *******************************************************************************
 AUX LARGE CHARGE=0 SINGLET  PM7 GNORM=0.0
 2-metylbutan (konf.1)

   ATOM   CHEMICAL          X               Y               Z
  NUMBER   SYMBOL      (ANGSTROMS)     (ANGSTROMS)     (ANGSTROMS)
 
     1       C         -8.78163000  *   0.58914000  *   0.06991000  *
     2       C         -7.40242000  *   1.26314000  *   0.06280000  *
     3       H         -9.52228000  *   1.24519000  *   0.57518000  *
     4       H         -8.73554000  *  -0.37136000  *   0.62587000  *
     5       H         -9.14277000  *   0.39413000  *  -0.96108000  *
     6       H         -7.12351000  *   1.46106000  *   1.12169000  *
     7       C         -7.46903000  *   2.61838000  *  -0.65512000  *
     8       C         -6.30390000  *   0.34311000  *  -0.52346000  *
     9       H         -5.32200000  *   0.85649000  *  -0.43010000  *
    10       C         -6.49920000  *  -0.05459000  *  -1.99009000  *
    11       H         -6.25509000  *  -0.58608000  *   0.08534000  *
    12       H         -6.49996000  *   0.83653000  *  -2.64998000  *
    13       H         -7.44248000  *  -0.62062000  *  -2.12934000  *
    14       H         -5.65959000  *  -0.70989000  *  -2.30415000  *
    15       H         -8.20671000  *   3.27904000  *  -0.15150000  *
    16       H         -7.77975000  *   2.50132000  *  -1.71396000  *
    17       H         -6.47797000  *   3.11880000  *  -0.62113000  *
 


          CARTESIAN COORDINATES 

    NO.       ATOM           X           Y           Z

     1         C         -8.7816      0.5891      0.0699
     2         C         -7.4024      1.2631      0.0628
     3         H         -9.5223      1.2452      0.5752
     4         H         -8.7355     -0.3714      0.6259
     5         H         -9.1428      0.3941     -0.9611
     6         H         -7.1235      1.4611      1.1217
     7         C         -7.4690      2.6184     -0.6551
     8         C         -6.3039      0.3431     -0.5235
     9         H         -5.3220      0.8565     -0.4301
    10         C         -6.4992     -0.0546     -1.9901
    11         H         -6.2551     -0.5861      0.0853
    12         H         -6.5000      0.8365     -2.6500
    13         H         -7.4425     -0.6206     -2.1293
    14         H         -5.6596     -0.7099     -2.3041
    15         H         -8.2067      3.2790     -0.1515
    16         H         -7.7797      2.5013     -1.7140
    17         H         -6.4780      3.1188     -0.6211

 General Reference for PM7:
 "Optimization of Parameters for Semiempirical Methods VI: More Modifications to the 
 NDDO Approximations and Re-optimization of Parameters", J. J. P. Stewart, J. Mol. Mod., 1:32, 19 (2013)
 https://link.springer.com/article/10.1007/s00894-012-1667-x

           Empirical Formula: C5 H12  =    17 atoms



      MOLECULAR POINT GROUP   :   Cs  


 SINGLET STATE CALCULATION


      RHF CALCULATION, NO. OF DOUBLY OCCUPIED LEVELS = 16


          Geometry optimization using EF

  GNORM HAS BEEN SET TOO LOW, RESET TO 0.01

  SPECIFY LET AS KEYWORD TO ALLOW GNORM LESS THAN 0.01

          DIAGONAL MATRIX USED AS START HESSIAN

 CYCLE:     1 TIME:   0.029 TIME LEFT:  2.00D  GRAD.:    32.235 HEAT: -31.30115
 CYCLE:     2 TIME:   0.014 TIME LEFT:  2.00D  GRAD.:    19.269 HEAT: -31.98491
 CYCLE:     3 TIME:   0.010 TIME LEFT:  2.00D  GRAD.:    15.415 HEAT: -32.13975
 CYCLE:     4 TIME:   0.004 TIME LEFT:  2.00D  GRAD.:    18.512 HEAT: -32.15768
 CYCLE:     5 TIME:   0.006 TIME LEFT:  2.00D  GRAD.:    17.087 HEAT: -32.17940
 CYCLE:     6 TIME:   0.006 TIME LEFT:  2.00D  GRAD.:    15.722 HEAT: -32.21270
 CYCLE:     7 TIME:   0.008 TIME LEFT:  2.00D  GRAD.:     6.295 HEAT: -32.30915
 CYCLE:     8 TIME:   0.012 TIME LEFT:  2.00D  GRAD.:     5.431 HEAT: -32.32351
 CYCLE:     9 TIME:   0.004 TIME LEFT:  2.00D  GRAD.:     4.656 HEAT: -32.34047
 CYCLE:    10 TIME:   0.006 TIME LEFT:  2.00D  GRAD.:     7.855 HEAT: -32.35173
 CYCLE:    11 TIME:   0.004 TIME LEFT:  2.00D  GRAD.:     6.966 HEAT: -32.38090
 CYCLE:    12 TIME:   0.006 TIME LEFT:  2.00D  GRAD.:     3.855 HEAT: -32.41419
 CYCLE:    13 TIME:   0.004 TIME LEFT:  2.00D  GRAD.:     4.839 HEAT: -32.43064
 CYCLE:    14 TIME:   0.006 TIME LEFT:  2.00D  GRAD.:     3.032 HEAT: -32.44674
 CYCLE:    15 TIME:   0.006 TIME LEFT:  2.00D  GRAD.:     2.995 HEAT: -32.45739
 CYCLE:    16 TIME:   0.006 TIME LEFT:  2.00D  GRAD.:     2.464 HEAT: -32.46815
 CYCLE:    17 TIME:   0.004 TIME LEFT:  2.00D  GRAD.:     2.085 HEAT: -32.47124
 CYCLE:    18 TIME:   0.006 TIME LEFT:  2.00D  GRAD.:     1.399 HEAT: -32.47340
 CYCLE:    19 TIME:   0.004 TIME LEFT:  2.00D  GRAD.:     0.910 HEAT: -32.47466
 CYCLE:    20 TIME:   0.006 TIME LEFT:  2.00D  GRAD.:     0.927 HEAT: -32.47571
 CYCLE:    21 TIME:   0.006 TIME LEFT:  2.00D  GRAD.:     0.731 HEAT: -32.47675
 CYCLE:    22 TIME:   0.004 TIME LEFT:  2.00D  GRAD.:     0.599 HEAT: -32.47760
 CYCLE:    23 TIME:   0.006 TIME LEFT:  2.00D  GRAD.:     0.591 HEAT: -32.47858
 CYCLE:    24 TIME:   0.006 TIME LEFT:  2.00D  GRAD.:     0.593 HEAT: -32.47919
 CYCLE:    25 TIME:   0.004 TIME LEFT:  2.00D  GRAD.:     0.484 HEAT: -32.47981
 CYCLE:    26 TIME:   0.008 TIME LEFT:  2.00D  GRAD.:     0.384 HEAT: -32.48024
 CYCLE:    27 TIME:   0.004 TIME LEFT:  2.00D  GRAD.:     0.339 HEAT: -32.48060
 CYCLE:    28 TIME:   0.006 TIME LEFT:  2.00D  GRAD.:     0.289 HEAT: -32.48081
 CYCLE:    29 TIME:   0.010 TIME LEFT:  2.00D  GRAD.:     0.274 HEAT: -32.48101
 CYCLE:    30 TIME:   0.006 TIME LEFT:  2.00D  GRAD.:     0.268 HEAT: -32.48118
 CYCLE:    31 TIME:   0.004 TIME LEFT:  2.00D  GRAD.:     0.269 HEAT: -32.48138
 CYCLE:    32 TIME:   0.006 TIME LEFT:  2.00D  GRAD.:     0.270 HEAT: -32.48158
 CYCLE:    33 TIME:   0.006 TIME LEFT:  2.00D  GRAD.:     0.283 HEAT: -32.48186
 CYCLE:    34 TIME:   0.004 TIME LEFT:  2.00D  GRAD.:     0.304 HEAT: -32.48214
 CYCLE:    35 TIME:   0.006 TIME LEFT:  2.00D  GRAD.:     0.316 HEAT: -32.48245
 CYCLE:    36 TIME:   0.008 TIME LEFT:  2.00D  GRAD.:     0.315 HEAT: -32.48276
 CYCLE:    37 TIME:   0.006 TIME LEFT:  2.00D  GRAD.:     0.290 HEAT: -32.48304
 CYCLE:    38 TIME:   0.006 TIME LEFT:  2.00D  GRAD.:     0.256 HEAT: -32.48331
 CYCLE:    39 TIME:   0.006 TIME LEFT:  2.00D  GRAD.:     0.178 HEAT: -32.48341
 CYCLE:    40 TIME:   0.006 TIME LEFT:  2.00D  GRAD.:     0.095 HEAT: -32.48346
 CYCLE:    41 TIME:   0.004 TIME LEFT:  2.00D  GRAD.:     0.046 HEAT: -32.48348
 CYCLE:    42 TIME:   0.006 TIME LEFT:  2.00D  GRAD.:     0.034 HEAT: -32.48349
 CYCLE:    43 TIME:   0.006 TIME LEFT:  2.00D  GRAD.:     0.067 HEAT: -32.48349
 CYCLE:    44 TIME:   0.004 TIME LEFT:  2.00D  GRAD.:     0.033 HEAT: -32.48349
 CYCLE:    45 TIME:   0.006 TIME LEFT:  2.00D  GRAD.:     0.028 HEAT: -32.48350
 CYCLE:    46 TIME:   0.006 TIME LEFT:  2.00D  GRAD.:     0.037 HEAT: -32.48350
 CYCLE:    47 TIME:   0.004 TIME LEFT:  2.00D  GRAD.:     0.042 HEAT: -32.48351
 CYCLE:    48 TIME:   0.006 TIME LEFT:  2.00D  GRAD.:     0.054 HEAT: -32.48353
 CYCLE:    49 TIME:   0.006 TIME LEFT:  2.00D  GRAD.:     0.042 HEAT: -32.48354
 CYCLE:    50 TIME:   0.004 TIME LEFT:  2.00D  GRAD.:     0.042 HEAT: -32.48356
 CYCLE:    51 TIME:   0.006 TIME LEFT:  2.00D  GRAD.:     0.025 HEAT: -32.48355
 CYCLE:    52 TIME:   0.004 TIME LEFT:  2.00D  GRAD.:     0.025 HEAT: -32.48355
 CYCLE:    53 TIME:   0.006 TIME LEFT:  2.00D  GRAD.:     0.021 HEAT: -32.48355
 CYCLE:    54 TIME:   0.006 TIME LEFT:  2.00D  GRAD.:     0.029 HEAT: -32.48356
 CYCLE:    55 TIME:   0.004 TIME LEFT:  2.00D  GRAD.:     0.023 HEAT: -32.48356
 CYCLE:    56 TIME:   0.006 TIME LEFT:  2.00D  GRAD.:     0.051 HEAT: -32.48356
 CYCLE:    57 TIME:   0.006 TIME LEFT:  2.00D  GRAD.:     0.015 HEAT: -32.48356
 CYCLE:    58 TIME:   0.006 TIME LEFT:  2.00D  GRAD.:     0.014 HEAT: -32.48356
 CYCLE:    59 TIME:   0.004 TIME LEFT:  2.00D  GRAD.:     0.010 HEAT: -32.48357

     GRADIENT =  0.00954 IS LESS THAN CUTOFF =  0.01000



 -------------------------------------------------------------------------------
 AUX LARGE CHARGE=0 SINGLET  PM7 GNORM=0.0
 2-metylbutan (konf.1)



     GEOMETRY OPTIMISED USING EIGENVECTOR FOLLOWING (EF).     
     SCF FIELD WAS ACHIEVED                                   


                              PM7 CALCULATION
                                                       MOPAC2016 (Version: 20.225L)
                                                       Thu Nov 12 09:03:00 2020
                                                       No. of days remaining = 274




          FINAL HEAT OF FORMATION =        -32.48357 KCAL/MOL =    -135.91124 KJ/MOL


          TOTAL ENERGY            =       -776.83033 EV
          ELECTRONIC ENERGY       =      -3493.22499 EV  POINT GROUP:     Cs  
          CORE-CORE REPULSION     =       2716.39466 EV
          COSMO AREA              =        129.85 SQUARE ANGSTROMS
          COSMO VOLUME            =        124.39 CUBIC ANGSTROMS

          GRADIENT NORM           =          0.00954 = 0.00231 PER ATOM
          IONIZATION POTENTIAL    =         11.125251 EV
          HOMO LUMO ENERGIES (EV) =        -11.125  4.257
          NO. OF FILLED LEVELS    =         16
          MOLECULAR WEIGHT        =         72.1498

          MOLECULAR DIMENSIONS (Angstroms)

            Atom       Atom       Distance
            H    15    H    14     5.13733
            H     4    H    17     4.19010
            H    16    H     6     2.77851


          SCF CALCULATIONS        =         64
 
          WALL-CLOCK TIME         =          0.395 SECONDS
          COMPUTATION TIME        =          5.914 SECONDS




   ATOM   CHEMICAL          X               Y               Z
  NUMBER   SYMBOL      (ANGSTROMS)     (ANGSTROMS)     (ANGSTROMS)
 
     1       C         -8.76816602  *   0.57936525  *   0.05550035  *
     2       C         -7.39643454  *   1.26389623  *   0.07510569  *
     3       H         -9.52024018  *   1.18695282  *   0.56963264  *
     4       H         -8.73313558  *  -0.39682389  *   0.54996332  *
     5       H         -9.12192342  *   0.41815289  *  -0.96840777  *
     6       H         -7.12681885  *   1.47162367  *   1.14192977  *
     7       C         -7.45987337  *   2.60274462  *  -0.66911374  *
     8       C         -6.30006136  *   0.34707335  *  -0.50486551  *
     9       H         -5.31826786  *   0.84768950  *  -0.39780303  *
    10       C         -6.51860728  *  -0.03371224  *  -1.96890070  *
    11       H         -6.23791007  *  -0.57246985  *   0.10878451  *
    12       H         -6.53797403  *   0.85037344  *  -2.61544457  *
    13       H         -7.46609874  *  -0.56547840  *  -2.10845350  *
    14       H         -5.71722977  *  -0.68812041  *  -2.32910240  *
    15       H         -8.16446615  *   3.28905442  *  -0.18777210  *
    16       H         -7.78785526  *   2.47095304  *  -1.70573433  *
    17       H         -6.48073637  *   3.09205649  *  -0.69251881  *

                             CARTESIAN COORDINATES

   1    C       -8.768166023     0.579365254     0.055500351
   2    C       -7.396434540     1.263896229     0.075105685
   3    H       -9.520240178     1.186952821     0.569632644
   4    H       -8.733135579    -0.396823891     0.549963316
   5    H       -9.121923422     0.418152892    -0.968407767
   6    H       -7.126818850     1.471623672     1.141929768
   7    C       -7.459873368     2.602744622    -0.669113739
   8    C       -6.300061356     0.347073348    -0.504865512
   9    H       -5.318267859     0.847689503    -0.397803032
  10    C       -6.518607277    -0.033712239    -1.968900698
  11    H       -6.237910069    -0.572469855     0.108784514
  12    H       -6.537974033     0.850373444    -2.615444566
  13    H       -7.466098740    -0.565478403    -2.108453504
  14    H       -5.717229766    -0.688120409    -2.329102404
  15    H       -8.164466147     3.289054416    -0.187772100
  16    H       -7.787855260     2.470953038    -1.705734327
  17    H       -6.480736372     3.092056489    -0.692518813


           Empirical Formula: C5 H12  =    17 atoms



      MOLECULAR POINT GROUP   :   Cs  


                  EIGENVALUES  
 -29.31991 -25.56230 -23.82028 -21.97840 -18.33888 -16.16324 -15.40425 -14.84571
 -13.74522 -13.19771 -13.01977 -12.91776 -12.06367 -11.29657 -11.27669 -11.12525
   4.25685   4.32114   4.44061   5.05896   5.69587   5.83064   5.96634   6.01629
   6.05816   6.07661   6.23049   6.35368   6.71649   7.05688   7.22399   7.25874


              NET ATOMIC CHARGES AND DIPOLE CONTRIBUTIONS

  ATOM NO.   TYPE          CHARGE      No. of ELECS.   s-Pop       p-Pop       
    1          C          -0.452532        4.4525     1.05560     3.39693
    2          C          -0.058978        4.0590     1.05658     3.00240
    3          H           0.140205        0.8598     0.85980
    4          H           0.141045        0.8590     0.85896
    5          H           0.145456        0.8545     0.85454
    6          H           0.123383        0.8766     0.87662
    7          C          -0.452511        4.4525     1.05559     3.39692
    8          C          -0.265727        4.2657     1.05931     3.20642
    9          H           0.131831        0.8682     0.86817
   10          C          -0.432627        4.4326     1.05102     3.38161
   11          H           0.131833        0.8682     0.86817
   12          H           0.142471        0.8575     0.85753
   13          H           0.142552        0.8574     0.85745
   14          H           0.136866        0.8631     0.86313
   15          H           0.140237        0.8598     0.85976
   16          H           0.145490        0.8545     0.85451
   17          H           0.141006        0.8590     0.85899
 DIPOLE           X         Y         Z       TOTAL
 POINT-CHG.     0.037     0.000     0.069     0.079
 HYBRID        -0.082    -0.000    -0.149     0.170
 SUM           -0.045     0.000    -0.079     0.091


          ATOMIC ORBITAL ELECTRON POPULATIONS

     Atom    s        px        py        pz   
    1  C   1.05560   1.07550   1.14547   1.17595
    2  C   1.05658   0.96812   0.96337   1.07090
    3  H   0.85980
    4  H   0.85896
    5  H   0.85454
    6  H   0.87662
    7  C   1.05559   1.16862   1.07723   1.15107
    8  C   1.05931   1.08174   1.10559   1.01909
    9  H   0.86817
   10  C   1.05102   1.16712   1.16149   1.05300
   11  H   0.86817
   12  H   0.85753
   13  H   0.85745
   14  H   0.86313
   15  H   0.85976
   16  H   0.85451
   17  H   0.85899

 **********************
 *                    *
 * JOB ENDED NORMALLY *
 *                    *
 **********************



 TOTAL JOB TIME:             0.40 SECONDS

 == MOPAC DONE ==
