 argument  1 = /home/milias/Work/open-collection/theoretical_chemistry/projects/nmr_diplomovky/derivaty_markerov/derivative_2_Peter/nwchem/geometry_optimization/6-311++g2d_2p/der2.geomopt_pbe0_cosmo-chcl3_6-311++g2d_2p.nw
 


============================== echo of input deck ==============================
echo

start molecule

memory total 40 gb

print low

title "der2"
charge 0

dft
  mult 1
end

geometry units angstroms print xyz autosym
  load format xyz der2.geopt_freq_nmr_pbe0_tz2p_good_cosmo-chcl3_converged_geometry.xyz
end

basis
  * library 6-311++G(2d,2p)
end

dft
  direct
  grid fine
  xc pbe0
  mult 1
# Reduce output during geometry optimization
  noprint "final vectors analysis"
end

#end

driver
  tight
  maxiter 9999
  xyz der2_pbe0_geom_6-311++g2d_2p
end

cosmo
  solvent chcl3
end

task dft optimize
================================================================================


                                         
                                         
 
 
             Northwest Computational Chemistry Package (NWChem) 7.0.1
             --------------------------------------------------------
 
 
                    Environmental Molecular Sciences Laboratory
                       Pacific Northwest National Laboratory
                                Richland, WA 99352
 
                              Copyright (c) 1994-2020
                       Pacific Northwest National Laboratory
                            Battelle Memorial Institute
 
             NWChem is an open-source computational chemistry package
                        distributed under the terms of the
                      Educational Community License (ECL) 2.0
             A copy of the license is included with this distribution
                              in the LICENSE.TXT file
 
                                  ACKNOWLEDGMENT
                                  --------------

            This software and its documentation were developed at the
            EMSL at Pacific Northwest National Laboratory, a multiprogram
            national laboratory, operated for the U.S. Department of Energy
            by Battelle under Contract Number DE-AC05-76RL01830. Support
            for this work was provided by the Department of Energy Office
            of Biological and Environmental Research, Office of Basic
            Energy Sciences, and the Office of Advanced Scientific Computing.


           Job information
           ---------------

    hostname        = comp14.grid.umb.sk
    program         = /home/milias/Work/qch/software/nwchem_suite/nwchem_master/bin/LINUX64/nwchem
    date            = Wed Oct 20 21:35:17 2021

    compiled        = Sat_Sep_11_13:54:11_2021
    source          = /home/milias/Work/qch/software/nwchem_suite/nwchem_master
    nwchem branch   = 7.0.0
    nwchem revision = nwchem_on_git-2853-g04c637f
    ga revision     = 5.8.0
    use scalapack   = F
    input           = /home/milias/Work/open-collection/theoretical_chemistry/projects/nmr_diplomovky/derivaty_markerov/derivative_2_Peter/nwchem/geometry_optimization/6-311++g2d_2p/der2.geomopt_pbe0_cosmo-chcl3_6-311++g2d_2p.nw
    prefix          = molecule.
    data base       = ./molecule.db
    status          = startup
    nproc           =       12
    time left       =     -1s



           Memory information
           ------------------

    heap     = 1342177276 doubles =  10240.0 Mbytes
    stack    = 1342177281 doubles =  10240.0 Mbytes
    global   = 2684354560 doubles =  20480.0 Mbytes (distinct from heap & stack)
    total    = 5368709117 doubles =  40960.0 Mbytes
    verify   = yes
    hardfail = no 


           Directory information
           ---------------------
 
  0 permanent = .
  0 scratch   = .
 
 
 
 
                                NWChem Input Module
                                -------------------
 
 
                                       der2
                                       ----

 Scaling coordinates for geometry "geometry" by  1.889725989
 (inverse scale =  0.529177249)


          ------
          auto-z
          ------
  no constraints, skipping   0.000000000000000E+000
  no constraints, skipping   0.000000000000000E+000
 
 
                             Geometry "geometry" -> ""
                             -------------------------
 
 Output coordinates in angstroms (scale by  1.889725989 to convert to a.u.)
 
  No.       Tag          Charge          X              Y              Z
 ---- ---------------- ---------- -------------- -------------- --------------
    1 O                    8.0000    -0.04341044    -0.73369813    -0.04085401
    2 P                   15.0000    -0.44611685     0.47703258    -1.05343430
    3 O                    8.0000     0.83720009     1.48585040    -1.04137126
    4 O                    8.0000    -1.28975000     1.37172392     0.02064437
    5 C                    6.0000     0.84108504     2.39610613     0.08887089
    6 C                    6.0000    -0.67674430     2.64706668     0.32804480
    7 C                    6.0000     1.53348750     1.72111364     1.26334319
    8 C                    6.0000     1.61284146     3.63086321    -0.32700096
    9 C                    6.0000    -1.26605170     3.67640246    -0.62378209
   10 C                    6.0000    -1.02568757     2.99451554     1.76012825
   11 H                    1.0000     1.66107846     2.42286749     2.08854573
   12 H                    1.0000     0.98002643     0.85289405     1.61631651
   13 H                    1.0000     2.52215176     1.39017053     0.94319721
   14 H                    1.0000     1.23639267     4.04556628    -1.26021739
   15 H                    1.0000     1.54820876     4.39619674     0.44881612
   16 H                    1.0000     2.66469413     3.37618356    -0.46141862
   17 H                    1.0000    -0.92294367     4.68206117    -0.37963408
   18 H                    1.0000    -1.00229208     3.45958160    -1.65979489
   19 H                    1.0000    -2.35248448     3.65478089    -0.53418895
   20 H                    1.0000    -0.51750808     3.91290247     2.06034667
   21 H                    1.0000    -2.10007263     3.16035386     1.84572717
   22 H                    1.0000    -0.74337543     2.19790863     2.44577211
   23 C                    6.0000     0.27747309    -2.00999264    -0.58709657
   24 C                    6.0000    -0.38988564    -3.07281736     0.26282843
   25 N                    7.0000    -0.04881684    -4.41716103    -0.16101358
   26 C                    6.0000     1.29387398    -4.79179613     0.23888988
   27 H                    1.0000    -2.00978854    -5.12664754     0.00115322
   28 H                    1.0000     1.51908242    -5.79393874    -0.12845467
   29 C                    6.0000    -1.00692680    -5.37744254     0.34913174
   30 H                    1.0000    -0.07040759    -2.08538831    -1.62252377
   31 H                    1.0000     1.36372261    -2.12034771    -0.58801192
   32 H                    1.0000    -1.47086993    -2.94513519     0.17386901
   33 H                    1.0000    -0.13145960    -2.89978976     1.32199975
   34 H                    1.0000    -1.02302957    -5.41235605     1.45178254
   35 H                    1.0000     1.41486849    -4.79273521     1.33573382
   36 H                    1.0000     2.03168980    -4.11023581    -0.18315365
   37 H                    1.0000    -0.75732086    -6.37537787    -0.01475063
 
      Atomic Mass 
      ----------- 
 
      O                 15.994910
      P                 30.973760
      C                 12.000000
      H                  1.007825
      N                 14.003070
 

 Effective nuclear repulsion energy (a.u.)    1268.2890542614

            Nuclear Dipole moment (a.u.) 
            ----------------------------
        X                 Y               Z
 ---------------- ---------------- ----------------
     0.0000000000    -0.0000000000    -0.0000000000
 


                                Z-matrix (autoz)
                                -------- 

 Units are Angstrom for bonds and degrees for angles
 
      Type          Name      I     J     K     L     M      Value
      ----------- --------  ----- ----- ----- ----- ----- ----------
    1 Stretch                  1     2                       1.62891
    2 Stretch                  1    23                       1.42488
    3 Stretch                  2     3                       1.63241
    4 Stretch                  2     4                       1.63274
    5 Stretch                  3     5                       1.45122
    6 Stretch                  4     6                       1.44802
    7 Stretch                  5     6                       1.55692
    8 Stretch                  5     7                       1.52132
    9 Stretch                  5     8                       1.51433
   10 Stretch                  6     9                       1.52079
   11 Stretch                  6    10                       1.51438
   12 Stretch                  7    11                       1.09073
   13 Stretch                  7    12                       1.08845
   14 Stretch                  7    13                       1.09063
   15 Stretch                  8    14                       1.08839
   16 Stretch                  8    15                       1.09170
   17 Stretch                  8    16                       1.09056
   18 Stretch                  9    17                       1.09027
   19 Stretch                  9    18                       1.09083
   20 Stretch                  9    19                       1.09034
   21 Stretch                 10    20                       1.09170
   22 Stretch                 10    21                       1.09047
   23 Stretch                 10    22                       1.08830
   24 Stretch                 23    24                       1.51570
   25 Stretch                 23    30                       1.09490
   26 Stretch                 23    31                       1.09184
   27 Stretch                 24    25                       1.45025
   28 Stretch                 24    32                       1.09213
   29 Stretch                 24    33                       1.10389
   30 Stretch                 25    26                       1.45020
   31 Stretch                 25    29                       1.44926
   32 Stretch                 26    28                       1.09085
   33 Stretch                 26    35                       1.10350
   34 Stretch                 26    36                       1.08950
   35 Stretch                 27    29                       1.09074
   36 Stretch                 29    34                       1.10332
   37 Stretch                 29    37                       1.09114
   38 Bend                     1     2     3               105.09322
   39 Bend                     1     2     4                97.24432
   40 Bend                     1    23    24               108.29843
   41 Bend                     1    23    30               110.65034
   42 Bend                     1    23    31               108.35489
   43 Bend                     2     1    23               118.89033
   44 Bend                     2     3     5               113.29639
   45 Bend                     2     4     6               113.79946
   46 Bend                     3     2     4                93.59475
   47 Bend                     3     5     6               102.59969
   48 Bend                     3     5     7               108.91586
   49 Bend                     3     5     8               107.39265
   50 Bend                     4     6     5               103.77626
   51 Bend                     4     6     9               107.41057
   52 Bend                     4     6    10               107.77501
   53 Bend                     5     6     9               112.99973
   54 Bend                     5     6    10               114.00959
   55 Bend                     5     7    11               110.60048
   56 Bend                     5     7    12               111.89103
   57 Bend                     5     7    13               108.69906
   58 Bend                     5     8    14               111.70835
   59 Bend                     5     8    15               110.26048
   60 Bend                     5     8    16               109.57130
   61 Bend                     6     5     7               113.36754
   62 Bend                     6     5     8               114.05402
   63 Bend                     6     9    17               111.23640
   64 Bend                     6     9    18               111.48121
   65 Bend                     6     9    19               108.73941
   66 Bend                     6    10    20               110.23103
   67 Bend                     6    10    21               109.64210
   68 Bend                     6    10    22               111.59641
   69 Bend                     7     5     8               109.98882
   70 Bend                     9     6    10               110.32149
   71 Bend                    11     7    12               109.10738
   72 Bend                    11     7    13               108.13573
   73 Bend                    12     7    13               108.30615
   74 Bend                    14     8    15               108.76819
   75 Bend                    14     8    16               108.47551
   76 Bend                    15     8    16               107.96347
   77 Bend                    17     9    18               108.65870
   78 Bend                    17     9    19               108.26819
   79 Bend                    18     9    19               108.36275
   80 Bend                    20    10    21               108.00518
   81 Bend                    20    10    22               108.76958
   82 Bend                    21    10    22               108.50842
   83 Bend                    23    24    25               112.49323
   84 Bend                    23    24    32               107.94779
   85 Bend                    23    24    33               108.96844
   86 Bend                    24    23    30               110.00532
   87 Bend                    24    23    31               111.57016
   88 Bend                    24    25    26               112.12447
   89 Bend                    24    25    29               110.84618
   90 Bend                    25    24    32               108.50258
   91 Bend                    25    24    33               111.75610
   92 Bend                    25    26    28               109.60969
   93 Bend                    25    26    35               112.07570
   94 Bend                    25    26    36               111.01255
   95 Bend                    25    29    27               110.07108
   96 Bend                    25    29    34               112.48276
   97 Bend                    25    29    37               109.71733
   98 Bend                    26    25    29               110.11168
   99 Bend                    27    29    34               108.22156
  100 Bend                    27    29    37               108.31394
  101 Bend                    28    26    35               108.13772
  102 Bend                    28    26    36               107.72453
  103 Bend                    30    23    31               107.95965
  104 Bend                    32    24    33               106.95061
  105 Bend                    34    29    37               107.91966
  106 Bend                    35    26    36               108.13856
  107 Torsion                  1     2     3     5         -82.12025
  108 Torsion                  1     2     4     6         113.85827
  109 Torsion                  1    23    24    25        -176.12111
  110 Torsion                  1    23    24    32          64.19786
  111 Torsion                  1    23    24    33         -51.61224
  112 Torsion                  2     1    23    24        -137.12910
  113 Torsion                  2     1    23    30         -16.48541
  114 Torsion                  2     1    23    31         101.69329
  115 Torsion                  2     3     5     6         -32.97790
  116 Torsion                  2     3     5     7          87.43406
  117 Torsion                  2     3     5     8        -153.48746
  118 Torsion                  2     4     6     5         -27.36425
  119 Torsion                  2     4     6     9          92.53668
  120 Torsion                  2     4     6    10        -148.59896
  121 Torsion                  3     2     1    23        -107.45302
  122 Torsion                  3     2     4     6           8.13516
  123 Torsion                  3     5     6     4          35.58340
  124 Torsion                  3     5     6     9         -80.44125
  125 Torsion                  3     5     6    10         152.53942
  126 Torsion                  3     5     7    11         173.06517
  127 Torsion                  3     5     7    12         -65.07036
  128 Torsion                  3     5     7    13          54.49165
  129 Torsion                  3     5     8    14          52.45457
  130 Torsion                  3     5     8    15         173.52527
  131 Torsion                  3     5     8    16         -67.78010
  132 Torsion                  4     2     1    23         156.82256
  133 Torsion                  4     2     3     5          16.37957
  134 Torsion                  4     6     5     7         -81.70273
  135 Torsion                  4     6     5     8         151.38095
  136 Torsion                  4     6     9    17         174.16519
  137 Torsion                  4     6     9    18         -64.38251
  138 Torsion                  4     6     9    19          55.02412
  139 Torsion                  4     6    10    20         175.53112
  140 Torsion                  4     6    10    21         -65.69739
  141 Torsion                  4     6    10    22          54.55373
  142 Torsion                  5     6     9    17         -71.99233
  143 Torsion                  5     6     9    18          49.45996
  144 Torsion                  5     6     9    19         168.86660
  145 Torsion                  5     6    10    20          60.91401
  146 Torsion                  5     6    10    21         179.68551
  147 Torsion                  5     6    10    22         -60.06338
  148 Torsion                  6     5     7    11         -73.40309
  149 Torsion                  6     5     7    12          48.46137
  150 Torsion                  6     5     7    13         168.02338
  151 Torsion                  6     5     8    14         -60.50894
  152 Torsion                  6     5     8    15          60.56176
  153 Torsion                  6     5     8    16         179.25638
  154 Torsion                  7     5     6     9         162.27262
  155 Torsion                  7     5     6    10          35.25328
  156 Torsion                  7     5     8    14         170.84182
  157 Torsion                  7     5     8    15         -68.08748
  158 Torsion                  7     5     8    16          50.60714
  159 Torsion                  8     5     6     9          35.35630
  160 Torsion                  8     5     6    10         -91.66304
  161 Torsion                  8     5     7    11          55.62065
  162 Torsion                  8     5     7    12         177.48511
  163 Torsion                  8     5     7    13         -62.95288
  164 Torsion                  9     6    10    20         -67.48137
  165 Torsion                  9     6    10    21          51.29013
  166 Torsion                  9     6    10    22         171.54124
  167 Torsion                 10     6     9    17          56.95186
  168 Torsion                 10     6     9    18         178.40416
  169 Torsion                 10     6     9    19         -62.18921
  170 Torsion                 23    24    25    26          75.38476
  171 Torsion                 23    24    25    29        -161.11140
  172 Torsion                 24    25    26    28        -178.11163
  173 Torsion                 24    25    26    35          61.81523
  174 Torsion                 24    25    26    36         -59.22630
  175 Torsion                 24    25    29    27          58.52919
  176 Torsion                 24    25    29    34         -62.23527
  177 Torsion                 24    25    29    37         177.62853
  178 Torsion                 25    24    23    30          62.83505
  179 Torsion                 25    24    23    31         -56.95262
  180 Torsion                 26    25    24    32        -165.25683
  181 Torsion                 26    25    24    33         -47.57453
  182 Torsion                 26    25    29    27        -176.81775
  183 Torsion                 26    25    29    34          62.41779
  184 Torsion                 26    25    29    37         -57.71840
  185 Torsion                 28    26    25    29          57.97336
  186 Torsion                 29    25    24    32         -41.75299
  187 Torsion                 29    25    24    33          75.92931
  188 Torsion                 29    25    26    35         -62.09978
  189 Torsion                 29    25    26    36         176.85868
  190 Torsion                 30    23    24    32         -56.84598
  191 Torsion                 30    23    24    33        -172.65608
  192 Torsion                 31    23    24    32        -176.63365
  193 Torsion                 31    23    24    33          67.55626
 
 
            XYZ format geometry
            -------------------
    37
 geometry
 O                    -0.04341044    -0.73369813    -0.04085401
 P                    -0.44611685     0.47703258    -1.05343430
 O                     0.83720009     1.48585040    -1.04137126
 O                    -1.28975000     1.37172392     0.02064437
 C                     0.84108504     2.39610613     0.08887089
 C                    -0.67674430     2.64706668     0.32804480
 C                     1.53348750     1.72111364     1.26334319
 C                     1.61284146     3.63086321    -0.32700096
 C                    -1.26605170     3.67640246    -0.62378209
 C                    -1.02568757     2.99451554     1.76012825
 H                     1.66107846     2.42286749     2.08854573
 H                     0.98002643     0.85289405     1.61631651
 H                     2.52215176     1.39017053     0.94319721
 H                     1.23639267     4.04556628    -1.26021739
 H                     1.54820876     4.39619674     0.44881612
 H                     2.66469413     3.37618356    -0.46141862
 H                    -0.92294367     4.68206117    -0.37963408
 H                    -1.00229208     3.45958160    -1.65979489
 H                    -2.35248448     3.65478089    -0.53418895
 H                    -0.51750808     3.91290247     2.06034667
 H                    -2.10007263     3.16035386     1.84572717
 H                    -0.74337543     2.19790863     2.44577211
 C                     0.27747309    -2.00999264    -0.58709657
 C                    -0.38988564    -3.07281736     0.26282843
 N                    -0.04881684    -4.41716103    -0.16101358
 C                     1.29387398    -4.79179613     0.23888988
 H                    -2.00978854    -5.12664754     0.00115322
 H                     1.51908242    -5.79393874    -0.12845467
 C                    -1.00692680    -5.37744254     0.34913174
 H                    -0.07040759    -2.08538831    -1.62252377
 H                     1.36372261    -2.12034771    -0.58801192
 H                    -1.47086993    -2.94513519     0.17386901
 H                    -0.13145960    -2.89978976     1.32199975
 H                    -1.02302957    -5.41235605     1.45178254
 H                     1.41486849    -4.79273521     1.33573382
 H                     2.03168980    -4.11023581    -0.18315365
 H                    -0.75732086    -6.37537787    -0.01475063
 
 ==============================================================================
                                internuclear distances
 ------------------------------------------------------------------------------
       center one      |      center two      | atomic units |  angstroms
 ------------------------------------------------------------------------------
    2 P                |   1 O                |     3.07820  |     1.62891
    3 O                |   2 P                |     3.08481  |     1.63241
    4 O                |   2 P                |     3.08543  |     1.63274
    5 C                |   3 O                |     2.74240  |     1.45122
    6 C                |   4 O                |     2.73637  |     1.44802
    6 C                |   5 C                |     2.94215  |     1.55692
    7 C                |   5 C                |     2.87488  |     1.52132
    8 C                |   5 C                |     2.86166  |     1.51433
    9 C                |   6 C                |     2.87387  |     1.52079
   10 C                |   6 C                |     2.86176  |     1.51438
   11 H                |   7 C                |     2.06119  |     1.09073
   12 H                |   7 C                |     2.05686  |     1.08845
   13 H                |   7 C                |     2.06099  |     1.09063
   14 H                |   8 C                |     2.05675  |     1.08839
   15 H                |   8 C                |     2.06301  |     1.09170
   16 H                |   8 C                |     2.06086  |     1.09056
   17 H                |   9 C                |     2.06030  |     1.09027
   18 H                |   9 C                |     2.06136  |     1.09083
   19 H                |   9 C                |     2.06043  |     1.09034
   20 H                |  10 C                |     2.06302  |     1.09170
   21 H                |  10 C                |     2.06070  |     1.09047
   22 H                |  10 C                |     2.05658  |     1.08830
   23 C                |   1 O                |     2.69263  |     1.42488
   24 C                |  23 C                |     2.86425  |     1.51570
   25 N                |  24 C                |     2.74058  |     1.45025
   26 C                |  25 N                |     2.74049  |     1.45020
   28 H                |  26 C                |     2.06140  |     1.09085
   29 C                |  25 N                |     2.73871  |     1.44926
   29 C                |  27 H                |     2.06120  |     1.09074
   30 H                |  23 C                |     2.06907  |     1.09490
   31 H                |  23 C                |     2.06328  |     1.09184
   32 H                |  24 C                |     2.06382  |     1.09213
   33 H                |  24 C                |     2.08604  |     1.10389
   34 H                |  29 C                |     2.08497  |     1.10332
   35 H                |  26 C                |     2.08531  |     1.10350
   36 H                |  26 C                |     2.05886  |     1.08950
   37 H                |  29 C                |     2.06196  |     1.09114
 ------------------------------------------------------------------------------
                         number of included internuclear distances:         37
 ==============================================================================



 ==============================================================================
                                 internuclear angles
 ------------------------------------------------------------------------------
        center 1       |       center 2       |       center 3       |  degrees
 ------------------------------------------------------------------------------
    2 P                |   1 O                |  23 C                |   118.89
    1 O                |   2 P                |   3 O                |   105.09
    1 O                |   2 P                |   4 O                |    97.24
    3 O                |   2 P                |   4 O                |    93.59
    2 P                |   3 O                |   5 C                |   113.30
    2 P                |   4 O                |   6 C                |   113.80
    3 O                |   5 C                |   6 C                |   102.60
    3 O                |   5 C                |   7 C                |   108.92
    3 O                |   5 C                |   8 C                |   107.39
    6 C                |   5 C                |   7 C                |   113.37
    6 C                |   5 C                |   8 C                |   114.05
    7 C                |   5 C                |   8 C                |   109.99
    4 O                |   6 C                |   5 C                |   103.78
    4 O                |   6 C                |   9 C                |   107.41
    4 O                |   6 C                |  10 C                |   107.78
    5 C                |   6 C                |   9 C                |   113.00
    5 C                |   6 C                |  10 C                |   114.01
    9 C                |   6 C                |  10 C                |   110.32
    5 C                |   7 C                |  11 H                |   110.60
    5 C                |   7 C                |  12 H                |   111.89
    5 C                |   7 C                |  13 H                |   108.70
   11 H                |   7 C                |  12 H                |   109.11
   11 H                |   7 C                |  13 H                |   108.14
   12 H                |   7 C                |  13 H                |   108.31
    5 C                |   8 C                |  14 H                |   111.71
    5 C                |   8 C                |  15 H                |   110.26
    5 C                |   8 C                |  16 H                |   109.57
   14 H                |   8 C                |  15 H                |   108.77
   14 H                |   8 C                |  16 H                |   108.48
   15 H                |   8 C                |  16 H                |   107.96
    6 C                |   9 C                |  17 H                |   111.24
    6 C                |   9 C                |  18 H                |   111.48
    6 C                |   9 C                |  19 H                |   108.74
   17 H                |   9 C                |  18 H                |   108.66
   17 H                |   9 C                |  19 H                |   108.27
   18 H                |   9 C                |  19 H                |   108.36
    6 C                |  10 C                |  20 H                |   110.23
    6 C                |  10 C                |  21 H                |   109.64
    6 C                |  10 C                |  22 H                |   111.60
   20 H                |  10 C                |  21 H                |   108.01
   20 H                |  10 C                |  22 H                |   108.77
   21 H                |  10 C                |  22 H                |   108.51
    1 O                |  23 C                |  24 C                |   108.30
    1 O                |  23 C                |  30 H                |   110.65
    1 O                |  23 C                |  31 H                |   108.35
   24 C                |  23 C                |  30 H                |   110.01
   24 C                |  23 C                |  31 H                |   111.57
   30 H                |  23 C                |  31 H                |   107.96
   23 C                |  24 C                |  25 N                |   112.49
   23 C                |  24 C                |  32 H                |   107.95
   23 C                |  24 C                |  33 H                |   108.97
   25 N                |  24 C                |  32 H                |   108.50
   25 N                |  24 C                |  33 H                |   111.76
   32 H                |  24 C                |  33 H                |   106.95
   24 C                |  25 N                |  26 C                |   112.12
   24 C                |  25 N                |  29 C                |   110.85
   26 C                |  25 N                |  29 C                |   110.11
   25 N                |  26 C                |  28 H                |   109.61
   25 N                |  26 C                |  35 H                |   112.08
   25 N                |  26 C                |  36 H                |   111.01
   28 H                |  26 C                |  35 H                |   108.14
   28 H                |  26 C                |  36 H                |   107.72
   35 H                |  26 C                |  36 H                |   108.14
   25 N                |  29 C                |  27 H                |   110.07
   25 N                |  29 C                |  34 H                |   112.48
   25 N                |  29 C                |  37 H                |   109.72
   27 H                |  29 C                |  34 H                |   108.22
   27 H                |  29 C                |  37 H                |   108.31
   34 H                |  29 C                |  37 H                |   107.92
 ------------------------------------------------------------------------------
                            number of included internuclear angles:         69
 ==============================================================================





 Summary of "ao basis" -> "" (cartesian)
 ------------------------------------------------------------------------------
       Tag                 Description            Shells   Functions and Types
 ---------------- ------------------------------  ------  ---------------------
 *                      6-311++G(2d,2p)               on all atoms 


 
 
                           NWChem Geometry Optimization
                           ----------------------------
 
 
 
 
                                       der2
 
 
  no constraints, skipping   0.000000000000000E+000
 maximum gradient threshold         (gmax) =   0.000015
 rms gradient threshold             (grms) =   0.000010
 maximum cartesian step threshold   (xmax) =   0.000060
 rms cartesian step threshold       (xrms) =   0.000040
 fixed trust radius                (trust) =   0.300000
 maximum step size to saddle      (sadstp) =   0.100000
 energy precision                  (eprec) =   5.0D-06
 maximum number of steps          (nptopt) = 9999
 initial hessian option           (inhess) =    0
 line search option               (linopt) =    1
 hessian update option            (modupd) =    1
 saddle point option              (modsad) =    0
 initial eigen-mode to follow     (moddir) =    0
 initial variable to follow       (vardir) =    0
 follow first negative mode     (firstneg) =    T
 apply conjugacy                    (opcg) =    F
 source of zmatrix                         =   autoz   


          -------------------
          Energy Minimization
          -------------------

 
 Names of Z-matrix variables 
    1              2              3              4              5         
    6              7              8              9             10         
   11             12             13             14             15         
   16             17             18             19             20         
   21             22             23             24             25         
   26             27             28             29             30         
   31             32             33             34             35         
   36             37             38             39             40         
   41             42             43             44             45         
   46             47             48             49             50         
   51             52             53             54             55         
   56             57             58             59             60         
   61             62             63             64             65         
   66             67             68             69             70         
   71             72             73             74             75         
   76             77             78             79             80         
   81             82             83             84             85         
   86             87             88             89             90         
   91             92             93             94             95         
   96             97             98             99            100         
  101            102            103            104            105         
  106            107            108            109            110         
  111            112            113            114            115         
  116            117            118            119            120         
  121            122            123            124            125         
  126            127            128            129            130         
  131            132            133            134            135         
  136            137            138            139            140         
  141            142            143            144            145         
  146            147            148            149            150         
  151            152            153            154            155         
  156            157            158            159            160         
  161            162            163            164            165         
  166            167            168            169            170         
  171            172            173            174            175         
  176            177            178            179            180         
  181            182            183            184            185         
  186            187            188            189            190         
  191            192            193         
 
 Variables with the same non-blank name are constrained to be equal
 
 
 Using diagonal initial Hessian 
 Scaling for Hessian diagonals: bonds = 1.00  angles = 0.25  torsions = 0.10

          --------
          Step   0
          --------
 
                                 NWChem DFT Module
                                 -----------------
 
 
                                       der2
 
 
                      Basis "ao basis" -> "ao basis" (cartesian)
                      -----
  O (Oxygen)
  ----------
            Exponent  Coefficients 
       -------------- ---------------------------------------------------------
  1 S  8.58850000E+03  0.001895
  1 S  1.29723000E+03  0.014386
  1 S  2.99296000E+02  0.070732
  1 S  8.73771000E+01  0.240001
  1 S  2.56789000E+01  0.594797
  1 S  3.74004000E+00  0.280802
 
  2 S  4.21175000E+01  0.113889
  2 S  9.62837000E+00  0.920811
  2 S  2.85332000E+00 -0.003274
 
  3 P  4.21175000E+01  0.036511
  3 P  9.62837000E+00  0.237153
  3 P  2.85332000E+00  0.819702
 
  4 S  9.05661000E-01  1.000000
 
  5 P  9.05661000E-01  1.000000
 
  6 S  2.55611000E-01  1.000000
 
  7 P  2.55611000E-01  1.000000
 
  8 S  8.45000000E-02  1.000000
 
  9 P  8.45000000E-02  1.000000
 
 10 D  2.58400000E+00  1.000000
 
 11 D  6.46000000E-01  1.000000
 
  P (Phosphorous)
  ---------------
            Exponent  Coefficients 
       -------------- ---------------------------------------------------------
  1 S  7.74924000E+04  0.000781
  1 S  1.16058000E+04  0.006068
  1 S  2.64596000E+03  0.031160
  1 S  7.54976000E+02  0.123431
  1 S  2.48755000E+02  0.378209
  1 S  9.11565000E+01  0.563262
 
  2 S  9.11565000E+01  0.160255
  2 S  3.62257000E+01  0.627647
  2 S  1.52113000E+01  0.263849
 
  3 S  4.79417000E+00  1.000000
 
  4 S  1.80793000E+00  1.000000
 
  5 S  3.56816000E-01  1.000000
 
  6 S  1.14783000E-01  1.000000
 
  7 P  3.84843000E+02  0.009206
  7 P  9.05521000E+01  0.069874
  7 P  2.91339000E+01  0.292470
  7 P  1.08862000E+01  0.728103
 
  8 P  4.35259000E+00  0.628349
  8 P  1.77706000E+00  0.428044
 
  9 P  6.97005000E-01  1.000000
 
 10 P  2.53532000E-01  1.000000
 
 11 P  6.84930000E-02  1.000000
 
 12 S  3.48000000E-02  1.000000
 
 13 P  3.48000000E-02  1.000000
 
 14 D  1.10000000E+00  1.000000
 
 15 D  2.75000000E-01  1.000000
 
  C (Carbon)
  ----------
            Exponent  Coefficients 
       -------------- ---------------------------------------------------------
  1 S  4.56324000E+03  0.001967
  1 S  6.82024000E+02  0.015231
  1 S  1.54973000E+02  0.076127
  1 S  4.44553000E+01  0.260801
  1 S  1.30290000E+01  0.616462
  1 S  1.82773000E+00  0.221006
 
  2 S  2.09642000E+01  0.114660
  2 S  4.80331000E+00  0.919999
  2 S  1.45933000E+00 -0.003031
 
  3 P  2.09642000E+01  0.040249
  3 P  4.80331000E+00  0.237594
  3 P  1.45933000E+00  0.815854
 
  4 S  4.83456000E-01  1.000000
 
  5 P  4.83456000E-01  1.000000
 
  6 S  1.45585000E-01  1.000000
 
  7 P  1.45585000E-01  1.000000
 
  8 S  4.38000000E-02  1.000000
 
  9 P  4.38000000E-02  1.000000
 
 10 D  1.25200000E+00  1.000000
 
 11 D  3.13000000E-01  1.000000
 
  H (Hydrogen)
  ------------
            Exponent  Coefficients 
       -------------- ---------------------------------------------------------
  1 S  3.38650000E+01  0.025494
  1 S  5.09479000E+00  0.190373
  1 S  1.15879000E+00  0.852161
 
  2 S  3.25840000E-01  1.000000
 
  3 S  1.02741000E-01  1.000000
 
  4 S  3.60000000E-02  1.000000
 
  5 P  1.50000000E+00  1.000000
 
  6 P  3.75000000E-01  1.000000
 
  N (Nitrogen)
  ------------
            Exponent  Coefficients 
       -------------- ---------------------------------------------------------
  1 S  6.29348000E+03  0.001970
  1 S  9.49044000E+02  0.014961
  1 S  2.18776000E+02  0.073501
  1 S  6.36916000E+01  0.248937
  1 S  1.88282000E+01  0.602460
  1 S  2.72023000E+00  0.256202
 
  2 S  3.06331000E+01  0.111906
  2 S  7.02614000E+00  0.921666
  2 S  2.11205000E+00 -0.002569
 
  3 P  3.06331000E+01  0.038312
  3 P  7.02614000E+00  0.237403
  3 P  2.11205000E+00  0.817592
 
  4 S  6.84009000E-01  1.000000
 
  5 P  6.84009000E-01  1.000000
 
  6 S  2.00878000E-01  1.000000
 
  7 P  2.00878000E-01  1.000000
 
  8 S  6.39000000E-02  1.000000
 
  9 P  6.39000000E-02  1.000000
 
 10 D  1.82600000E+00  1.000000
 
 11 D  4.56500000E-01  1.000000
 


 Summary of "ao basis" -> "ao basis" (cartesian)
 ------------------------------------------------------------------------------
       Tag                 Description            Shells   Functions and Types
 ---------------- ------------------------------  ------  ---------------------
 O                      6-311++G(2d,2p)             11       29   5s4p2d
 P                      6-311++G(2d,2p)             15       37   7s6p2d
 C                      6-311++G(2d,2p)             11       29   5s4p2d
 H                      6-311++G(2d,2p)              6       10   4s2p
 N                      6-311++G(2d,2p)             11       29   5s4p2d


 
 
 solvent parameters
 solvname_short: chcl3   
 solvname_long:  chloroform                         
 dielec:        4.7113
 dielecinf:     2.0906

          ---------------
          -cosmo- solvent
          ---------------
 Cosmo: York-Karplus, doi: 10.1021/jp992097l
 dielectric constant -eps-     =   4.71
 screen = (eps-1)/(eps    )    =   0.78774
 surface charge correction     = lagrangian
 -lineq- algorithm             =   0
 -bem- low  level              =   2
 -bem- from -octahedral-
 gaussian surface charge width =   0.98000
 degree of switching           =   1.00000
 switching function tolerance  =   0.00010
 atomic radii = 
 --------------
    1  8.000  1.720
    2 15.000  2.106
    3  8.000  1.720
    4  8.000  1.720
    5  6.000  2.000
    6  6.000  2.000
    7  6.000  2.000
    8  6.000  2.000
    9  6.000  2.000
   10  6.000  2.000
   11  1.000  1.300
   12  1.000  1.300
   13  1.000  1.300
   14  1.000  1.300
   15  1.000  1.300
   16  1.000  1.300
   17  1.000  1.300
   18  1.000  1.300
   19  1.000  1.300
   20  1.000  1.300
   21  1.000  1.300
   22  1.000  1.300
   23  6.000  2.000
   24  6.000  2.000
   25  7.000  1.830
   26  6.000  2.000
   27  1.000  1.300
   28  1.000  1.300
   29  6.000  2.000
   30  1.000  1.300
   31  1.000  1.300
   32  1.000  1.300
   33  1.000  1.300
   34  1.000  1.300
   35  1.000  1.300
   36  1.000  1.300
   37  1.000  1.300

 solvent accessible surface
 --------------------------

 ---------- ATOMIC COORDINATES (A.U.) ------------ VDWR(ANG.) --
     1   -0.08203385   -1.38648842   -0.07720288     1.720
     2   -0.84303861    0.90146087   -1.99070217     2.106
     3    1.58207877    2.80785011   -1.96790633     1.720
     4   -2.43727410    2.59218234    0.03901221     1.720
     5    1.58942026    4.52798402    0.16794163     2.000
     6   -1.27886128    5.00223071    0.61991478     2.000
     7    2.89787117    3.25243318    2.38737245     2.000
     8    3.04782843    6.86133657   -0.61794220     2.000
     9   -2.39249080    6.94739328   -1.17877722     2.000
    10   -1.93826846    5.65881384    3.32616010     2.000
    11    3.13898314    4.57855566    3.94677914     1.300
    12    1.85198141    1.61173605    3.05439532     1.300
    13    4.76617572    2.62704139    1.78238428     1.300
    14    2.33644335    7.64501175   -2.38146555     1.300
    15    2.92569034    8.30760723    0.84813948     1.300
    16    5.03554175    6.38006181   -0.87195476     1.300
    17   -1.74411063    8.84781268   -0.71740438     1.300
    18   -1.89405739    6.53766125   -3.13655753     1.300
    19   -4.44555107    6.90653443   -1.00947074     1.300
    20   -0.97794846    7.39431349    3.89349065     1.300
    21   -3.96856183    5.97220281    3.48791860     1.300
    22   -1.40477587    4.15344506    4.62183912     1.300
    23    0.52434811   -3.79833533   -1.10945164     2.000
    24   -0.73677702   -5.80678282    0.49667372     2.000
    25   -0.09225046   -8.34722400   -0.30427155     1.830
    26    2.44506729   -9.05518169    0.45143642     2.000
    27   -3.79794963   -9.68795910    0.00217926     1.300
    28    2.87064952  -10.94895662   -0.24274413     1.300
    29   -1.90281575  -10.16189292    0.65976332     2.000
    30   -0.13305105   -3.94081249   -3.06612533     1.300
    31    2.57706206   -4.00687618   -1.11118141     1.300
    32   -2.77954114   -5.56549851    0.32856479     1.300
    33   -0.24842261   -5.47980808    2.49821728     1.300
    34   -1.93324556  -10.22786988    2.74347119     1.300
    35    2.67371376   -9.05695629    2.52417092     1.300
    36    3.83933702   -7.76721943   -0.34611021     1.300
    37   -1.43112891  -12.04771726   -0.02787465     1.300
 number of segments per atom =         32
 number of   points per atom =         32
 atom (   nspa,  nppa )
 ----------------------
    1 (     10,     0 )       0
    2 (     13,     0 )       0
    3 (     14,     0 )       0
    4 (     10,     0 )       0
    5 (      2,     0 )       0
    6 (      2,     0 )       0
    7 (     14,     0 )       0
    8 (     15,     0 )       0
    9 (     12,     0 )       0
   10 (     12,     0 )       0
   11 (     13,     0 )       0
   12 (     12,     0 )       0
   13 (     13,     0 )       0
   14 (     11,     0 )       0
   15 (     12,     0 )       0
   16 (     15,     0 )       0
   17 (     13,     0 )       0
   18 (     14,     0 )       0
   19 (     16,     0 )       0
   20 (     14,     0 )       0
   21 (     14,     0 )       0
   22 (     14,     0 )       0
   23 (     10,     0 )       0
   24 (      9,     0 )       0
   25 (      6,     0 )       0
   26 (     15,     0 )       0
   27 (     14,     0 )       0
   28 (     13,     0 )       0
   29 (     15,     0 )       0
   30 (     12,     0 )       0
   31 (     14,     0 )       0
   32 (     14,     0 )       0
   33 (     14,     0 )       0
   34 (     16,     0 )       0
   35 (     16,     0 )       0
   36 (     12,     0 )       0
   37 (     14,     0 )       0
 number of -cosmo- surface points =      459
 molecular surface =    278.311 angstrom**2
 molecular volume  =    152.827 angstrom**3
 G(cav/disp)       =      2.252 kcal/mol
 ...... end of -cosmo- initialization ......


  Caching 1-el integrals 
 
 WARNING : Found     3 linear dependencies 
 S eigenvalue threshold:     1.00000E-05
 Smallest S eigenvalue :     3.04946E-06
 Largest  S eigenvalue :     8.06812E-06
 
   Time after variat. SCF:    149.7
   Time prior to 1st pass:    149.7
  Resetting Diis


         Total DFT energy =    -1015.460205178750
      One electron energy =    -3911.890923997620
           Coulomb energy =     1744.933881311188
    Exchange-Corr. energy =     -117.808936458270
 Nuclear repulsion energy =     1268.289054261353

             COSMO energy =        1.016719704598

 Numeric. integr. density =      127.999979771959

     Total iterative time =   7286.6s


                                   COSMO solvation results
                                   -----------------------

                 gas phase energy =     -1015.449588992702
                 sol phase energy =     -1015.460205178750
 (electrostatic) solvation energy =         0.010616186048 (    6.66 kcal/mol)


                         DFT ENERGY GRADIENTS

    atom               coordinates                        gradient
                 x          y          z           x          y          z
   1 O      -0.082034  -1.386488  -0.077203   -0.000560   0.001538  -0.005481
   2 P      -0.843039   0.901461  -1.990702    0.001427  -0.000814   0.005440
   3 O       1.582079   2.807850  -1.967906   -0.004136  -0.001105   0.002309
   4 O      -2.437274   2.592182   0.039012    0.003562   0.000375  -0.003253
   5 C       1.589420   4.527984   0.167942    0.001165  -0.000774  -0.001364
   6 C      -1.278861   5.002231   0.619915   -0.001664  -0.001476   0.000397
   7 C       2.897871   3.252433   2.387372   -0.000173   0.000052  -0.000092
   8 C       3.047828   6.861337  -0.617942   -0.000082  -0.000128   0.000077
   9 C      -2.392491   6.947393  -1.178777    0.000169  -0.000014   0.000205
  10 C      -1.938268   5.658814   3.326160    0.000392   0.000056  -0.000243
  11 H       3.138983   4.578556   3.946779    0.000127   0.000022   0.000088
  12 H       1.851981   1.611736   3.054395    0.000217  -0.000120  -0.000240
  13 H       4.766176   2.627041   1.782384   -0.000175  -0.000109   0.000092
  14 H       2.336443   7.645012  -2.381466    0.000137   0.000025   0.000060
  15 H       2.925690   8.307607   0.848139    0.000141   0.000266  -0.000002
  16 H       5.035542   6.380062  -0.871955   -0.000138   0.000083  -0.000061
  17 H      -1.744111   8.847813  -0.717404    0.000012   0.000047  -0.000034
  18 H      -1.894057   6.537661  -3.136558   -0.000086   0.000086   0.000097
  19 H      -4.445551   6.906534  -1.009471    0.000147  -0.000008  -0.000048
  20 H      -0.977948   7.394313   3.893491   -0.000301   0.000246   0.000284
  21 H      -3.968562   5.972203   3.487919    0.000160   0.000097   0.000090
  22 H      -1.404776   4.153445   4.621839   -0.000067   0.000023  -0.000062
  23 C       0.524348  -3.798335  -1.109452   -0.000734   0.002183   0.002255
  24 C      -0.736777  -5.806783   0.496674    0.000494  -0.001154  -0.001003
  25 N      -0.092250  -8.347224  -0.304272    0.000144   0.000172   0.001256
  26 C       2.445067  -9.055182   0.451436   -0.001194   0.000273  -0.000227
  27 H      -3.797950  -9.687959   0.002179    0.000079  -0.000244  -0.000053
  28 H       2.870650 -10.948957  -0.242744    0.000202   0.000157  -0.000016
  29 C      -1.902816 -10.161893   0.659763    0.000597   0.000526  -0.000464
  30 H      -0.133051  -3.940812  -3.066125   -0.000067  -0.000296  -0.000089
  31 H       2.577062  -4.006876  -1.111181    0.000282  -0.000301  -0.000081
  32 H      -2.779541  -5.565499   0.328565    0.000042   0.000098   0.000094
  33 H      -0.248423  -5.479808   2.498217    0.000032   0.000270  -0.000073
  34 H      -1.933246 -10.227870   2.743471    0.000017   0.000002   0.000067
  35 H       2.673714  -9.056956   2.524171    0.000091  -0.000000   0.000048
  36 H       3.839337  -7.767219  -0.346110   -0.000031  -0.000108   0.000046
  37 H      -1.431129 -12.047717  -0.027875   -0.000230   0.000054  -0.000019
 
  no constraints, skipping   0.000000000000000E+000

@ Step       Energy      Delta E   Gmax     Grms     Xrms     Xmax   Walltime
@ ---- ---------------- -------- -------- -------- -------- -------- --------
@    0   -1015.46020518  0.0D+00  0.00488  0.00056  0.00000  0.00000   7837.3
                                                                    

  no constraints, skipping   0.000000000000000E+000
  no constraints, skipping   0.000000000000000E+000
  no constraints, skipping   0.000000000000000E+000
  no constraints, skipping   0.000000000000000E+000
  no constraints, skipping   0.000000000000000E+000
  no constraints, skipping   0.000000000000000E+000
  no constraints, skipping   0.000000000000000E+000
  no constraints, skipping   0.000000000000000E+000
 
                                 NWChem DFT Module
                                 -----------------
 
 
                                       der2
 
 
 
 
 solvent parameters
 solvname_short: chcl3   
 solvname_long:  chloroform                         
 dielec:        4.7113
 dielecinf:     2.0906

          ---------------
          -cosmo- solvent
          ---------------
 Cosmo: York-Karplus, doi: 10.1021/jp992097l
 dielectric constant -eps-     =   4.71
 screen = (eps-1)/(eps    )    =   0.78774
 surface charge correction     = lagrangian
 -lineq- algorithm             =   0
 -bem- low  level              =   2
 -bem- from -octahedral-
 gaussian surface charge width =   0.98000
 degree of switching           =   1.00000
 switching function tolerance  =   0.00010
 atomic radii = 
 --------------
    1  8.000  1.720
    2 15.000  2.106
    3  8.000  1.720
    4  8.000  1.720
    5  6.000  2.000
    6  6.000  2.000
    7  6.000  2.000
    8  6.000  2.000
    9  6.000  2.000
   10  6.000  2.000
   11  1.000  1.300
   12  1.000  1.300
   13  1.000  1.300
   14  1.000  1.300
   15  1.000  1.300
   16  1.000  1.300
   17  1.000  1.300
   18  1.000  1.300
   19  1.000  1.300
   20  1.000  1.300
   21  1.000  1.300
   22  1.000  1.300
   23  6.000  2.000
   24  6.000  2.000
   25  7.000  1.830
   26  6.000  2.000
   27  1.000  1.300
   28  1.000  1.300
   29  6.000  2.000
   30  1.000  1.300
   31  1.000  1.300
   32  1.000  1.300
   33  1.000  1.300
   34  1.000  1.300
   35  1.000  1.300
   36  1.000  1.300
   37  1.000  1.300

 solvent accessible surface
 --------------------------

 ---------- ATOMIC COORDINATES (A.U.) ------------ VDWR(ANG.) --
     1   -0.05893462   -1.39647865   -0.01752504     1.720
     2   -0.81872922    0.88870981   -1.95160176     2.106
     3    1.60693481    2.80616379   -1.94845641     1.720
     4   -2.43008255    2.58608308    0.06925985     1.720
     5    1.59508144    4.54639881    0.17708132     2.000
     6   -1.27617891    5.00906273    0.62255418     2.000
     7    2.90548043    3.30209343    2.41323369     2.000
     8    3.04093108    6.87971766   -0.62984711     2.000
     9   -2.39969172    6.92934375   -1.19726403     2.000
    10   -1.93701752    5.68778552    3.32263015     2.000
    11    3.13280654    4.64701236    3.95817559     1.300
    12    1.86723647    1.66279038    3.09625650     1.300
    13    4.77998932    2.68304372    1.81948347     1.300
    14    2.32719443    7.64095628   -2.40251894     1.300
    15    2.90544881    8.33764624    0.82272046     1.300
    16    5.03241979    6.40755756   -0.87477496     1.300
    17   -1.75996896    8.83750224   -0.75669065     1.300
    18   -1.89905194    6.49962796   -3.15059360     1.300
    19   -4.45290439    6.88076953   -1.02678002     1.300
    20   -0.98100557    7.43208022    3.86836407     1.300
    21   -3.96902752    5.99352717    3.48229255     1.300
    22   -1.39534510    4.19772604    4.63286076     1.300
    23    0.53734540   -3.80606039   -1.07614664     2.000
    24   -0.72765499   -5.82507387    0.51538866     2.000
    25   -0.10020104   -8.36243862   -0.31751449     1.830
    26    2.43814138   -9.09876639    0.41668200     2.000
    27   -3.81522863   -9.67785500   -0.00318085     1.300
    28    2.84230210  -10.98881700   -0.30089111     1.300
    29   -1.92023388  -10.17453316    0.63891835     2.000
    30   -0.12828880   -3.92394042   -3.03128721     1.300
    31    2.58850162   -4.02046268   -1.08881585     1.300
    32   -2.77006430   -5.57321513    0.35728248     1.300
    33   -0.23067705   -5.52353290    2.51886539     1.300
    34   -1.93994597  -10.26159569    2.72178915     1.300
    35    2.67700255   -9.12540357    2.48792411     1.300
    36    3.83827950   -7.81281264   -0.37454570     1.300
    37   -1.46482533  -12.05652266   -0.07064640     1.300
 number of segments per atom =         32
 number of   points per atom =         32
 atom (   nspa,  nppa )
 ----------------------
    1 (     10,     0 )       0
    2 (     13,     0 )       0
    3 (     14,     0 )       0
    4 (     10,     0 )       0
    5 (      2,     0 )       0
    6 (      2,     0 )       0
    7 (     14,     0 )       0
    8 (     15,     0 )       0
    9 (     12,     0 )       0
   10 (     12,     0 )       0
   11 (     13,     0 )       0
   12 (     12,     0 )       0
   13 (     13,     0 )       0
   14 (     12,     0 )       0
   15 (     12,     0 )       0
   16 (     15,     0 )       0
   17 (     13,     0 )       0
   18 (     14,     0 )       0
   19 (     16,     0 )       0
   20 (     14,     0 )       0
   21 (     14,     0 )       0
   22 (     14,     0 )       0
   23 (     10,     0 )       0
   24 (      9,     0 )       0
   25 (      5,     0 )       0
   26 (     16,     0 )       0
   27 (     14,     0 )       0
   28 (     13,     0 )       0
   29 (     15,     0 )       0
   30 (     12,     0 )       0
   31 (     14,     0 )       0
   32 (     14,     0 )       0
   33 (     14,     0 )       0
   34 (     16,     0 )       0
   35 (     16,     0 )       0
   36 (     12,     0 )       0
   37 (     14,     0 )       0
 number of -cosmo- surface points =      460
 molecular surface =    278.537 angstrom**2
 molecular volume  =    152.939 angstrom**3
 G(cav/disp)       =      2.253 kcal/mol
 ...... end of -cosmo- initialization ......


  Caching 1-el integrals 
 
 WARNING : Found     3 linear dependencies 
 S eigenvalue threshold:     1.00000E-05
 Smallest S eigenvalue :     3.05246E-06
 Largest  S eigenvalue :     8.15991E-06
 
   Time after variat. SCF:   7838.8
   Time prior to 1st pass:   7838.8


         Total DFT energy =    -1015.460385384594
      One electron energy =    -3909.181922432479
           Coulomb energy =     1743.572946485382
    Exchange-Corr. energy =     -117.797107284393
 Nuclear repulsion energy =     1266.922994722860

             COSMO energy =        1.022703124035

 Numeric. integr. density =      127.999975074467

     Total iterative time =   2168.1s


                                   COSMO solvation results
                                   -----------------------

                 gas phase energy =     -1015.449673947838
                 sol phase energy =     -1015.460385384594
 (electrostatic) solvation energy =         0.010711436757 (    6.72 kcal/mol)
 Line search: 
     step= 1.00 grad=-2.7D-04 hess= 8.6D-05 energy=  -1015.460385 mode=downhill
 new step= 1.54                   predicted energy=  -1015.460411
  no constraints, skipping   0.000000000000000E+000
  no constraints, skipping   0.000000000000000E+000
  no constraints, skipping   0.000000000000000E+000
  no constraints, skipping   0.000000000000000E+000
  no constraints, skipping   0.000000000000000E+000
  no constraints, skipping   0.000000000000000E+000
  no constraints, skipping   0.000000000000000E+000
  no constraints, skipping   0.000000000000000E+000

          --------
          Step   1
          --------
 
                                 NWChem DFT Module
                                 -----------------
 
 
                                       der2
 
 
 
 
 solvent parameters
 solvname_short: chcl3   
 solvname_long:  chloroform                         
 dielec:        4.7113
 dielecinf:     2.0906

          ---------------
          -cosmo- solvent
          ---------------
 Cosmo: York-Karplus, doi: 10.1021/jp992097l
 dielectric constant -eps-     =   4.71
 screen = (eps-1)/(eps    )    =   0.78774
 surface charge correction     = lagrangian
 -lineq- algorithm             =   0
 -bem- low  level              =   2
 -bem- from -octahedral-
 gaussian surface charge width =   0.98000
 degree of switching           =   1.00000
 switching function tolerance  =   0.00010
 atomic radii = 
 --------------
    1  8.000  1.720
    2 15.000  2.106
    3  8.000  1.720
    4  8.000  1.720
    5  6.000  2.000
    6  6.000  2.000
    7  6.000  2.000
    8  6.000  2.000
    9  6.000  2.000
   10  6.000  2.000
   11  1.000  1.300
   12  1.000  1.300
   13  1.000  1.300
   14  1.000  1.300
   15  1.000  1.300
   16  1.000  1.300
   17  1.000  1.300
   18  1.000  1.300
   19  1.000  1.300
   20  1.000  1.300
   21  1.000  1.300
   22  1.000  1.300
   23  6.000  2.000
   24  6.000  2.000
   25  7.000  1.830
   26  6.000  2.000
   27  1.000  1.300
   28  1.000  1.300
   29  6.000  2.000
   30  1.000  1.300
   31  1.000  1.300
   32  1.000  1.300
   33  1.000  1.300
   34  1.000  1.300
   35  1.000  1.300
   36  1.000  1.300
   37  1.000  1.300

 solvent accessible surface
 --------------------------

 ---------- ATOMIC COORDINATES (A.U.) ------------ VDWR(ANG.) --
     1   -0.04624809   -1.40189611    0.01496249     1.720
     2   -0.80538422    0.88173526   -1.93027808     2.106
     3    1.62053087    2.80515279   -1.93782109     1.720
     4   -2.42607206    2.58261342    0.08575464     1.720
     5    1.59816789    4.55620453    0.18202555     2.000
     6   -1.27468804    5.01249457    0.62400752     2.000
     7    2.90955448    3.32895994    2.42711526     2.000
     8    3.03716780    6.88941982   -0.63632046     2.000
     9   -2.40352561    6.91913643   -1.20717543     2.000
    10   -1.93638014    5.70320206    3.32064217     2.000
    11    3.12932575    4.68397018    3.96410928     1.300
    12    1.87547841    1.69047771    3.11880949     1.300
    13    4.78741632    2.71347190    1.83943943     1.300
    14    2.32220479    7.63842374   -2.41386218     1.300
    15    2.89439387    8.35357659    0.80886435     1.300
    16    5.03068670    6.42230440   -0.87635041     1.300
    17   -1.76855130    8.83139355   -0.77791750     1.300
    18   -1.90161840    6.47860791   -3.15798786     1.300
    19   -4.45680688    6.86634994   -1.03604045     1.300
    20   -0.98275955    7.45217279    3.85462849     1.300
    21   -3.96931334    6.00475252    3.47917829     1.300
    22   -1.39028724    4.22153809    4.63871266     1.300
    23    0.54452652   -3.81011797   -1.05797465     2.000
    24   -0.72266362   -5.83480757    0.52555758     2.000
    25   -0.10451995   -8.37030578   -0.32465982     1.830
    26    2.43423032   -9.12193598    0.39774765     2.000
    27   -3.82450322   -9.67201023   -0.00596451     1.300
    28    2.82673779  -11.00976993   -0.33245606     1.300
    29   -1.92970249  -10.18095735    0.62764484     2.000
    30   -0.12547629   -3.91462581   -3.01217441     1.300
    31    2.59481106   -4.02765544   -1.07653835     1.300
    32   -2.76484066   -5.57724380    0.37287331     1.300
    33   -0.22110554   -5.54711183    2.52996310     1.300
    34   -1.94369016  -10.27950491    2.70994620     1.300
    35    2.67852471   -9.16209831    2.46804574     1.300
    36    3.83756478   -7.83710973   -0.39004951     1.300
    37   -1.48314760  -12.06071789   -0.09377531     1.300
 number of segments per atom =         32
 number of   points per atom =         32
 atom (   nspa,  nppa )
 ----------------------
    1 (     10,     0 )       0
    2 (     13,     0 )       0
    3 (     14,     0 )       0
    4 (     11,     0 )       0
    5 (      2,     0 )       0
    6 (      2,     0 )       0
    7 (     14,     0 )       0
    8 (     15,     0 )       0
    9 (     12,     0 )       0
   10 (     12,     0 )       0
   11 (     13,     0 )       0
   12 (     12,     0 )       0
   13 (     13,     0 )       0
   14 (     12,     0 )       0
   15 (     12,     0 )       0
   16 (     15,     0 )       0
   17 (     13,     0 )       0
   18 (     14,     0 )       0
   19 (     16,     0 )       0
   20 (     14,     0 )       0
   21 (     15,     0 )       0
   22 (     14,     0 )       0
   23 (     11,     0 )       0
   24 (      9,     0 )       0
   25 (      5,     0 )       0
   26 (     15,     0 )       0
   27 (     14,     0 )       0
   28 (     13,     0 )       0
   29 (     15,     0 )       0
   30 (     12,     0 )       0
   31 (     14,     0 )       0
   32 (     14,     0 )       0
   33 (     14,     0 )       0
   34 (     16,     0 )       0
   35 (     16,     0 )       0
   36 (     12,     0 )       0
   37 (     14,     0 )       0
 number of -cosmo- surface points =      462
 molecular surface =    278.650 angstrom**2
 molecular volume  =    152.995 angstrom**3
 G(cav/disp)       =      2.253 kcal/mol
 ...... end of -cosmo- initialization ......


  Caching 1-el integrals 
 
 WARNING : Found     3 linear dependencies 
 S eigenvalue threshold:     1.00000E-05
 Smallest S eigenvalue :     3.05370E-06
 Largest  S eigenvalue :     8.21092E-06
 
   Time after variat. SCF:  10008.5
   Time prior to 1st pass:  10008.5


         Total DFT energy =    -1015.460411757246
      One electron energy =    -3907.743879932274
           Coulomb energy =     1742.851161352556
    Exchange-Corr. energy =     -117.790869548891
 Nuclear repulsion energy =     1266.197525326684

             COSMO energy =        1.025651044679

 Numeric. integr. density =      127.999974120927

     Total iterative time =   2148.9s


                                   COSMO solvation results
                                   -----------------------

                 gas phase energy =     -1015.449649350150
                 sol phase energy =     -1015.460411757246
 (electrostatic) solvation energy =         0.010762407097 (    6.75 kcal/mol)


                         DFT ENERGY GRADIENTS

    atom               coordinates                        gradient
                 x          y          z           x          y          z
   1 O      -0.046248  -1.401896   0.014962   -0.000490   0.000056  -0.001344
   2 P      -0.805384   0.881735  -1.930278    0.000994  -0.000350   0.002584
   3 O       1.620531   2.805153  -1.937821    0.000268   0.000335  -0.001150
   4 O      -2.426072   2.582613   0.085755   -0.001192   0.000429  -0.000905
   5 C       1.598168   4.556205   0.182026    0.000867   0.000052  -0.000451
   6 C      -1.274688   5.012495   0.624008   -0.000599  -0.000607   0.000755
   7 C       2.909554   3.328960   2.427115   -0.000413   0.000440   0.000680
   8 C       3.037168   6.889420  -0.636320   -0.000050  -0.000154   0.000021
   9 C      -2.403526   6.919136  -1.207175    0.000237   0.000215  -0.000014
  10 C      -1.936380   5.703202   3.320642    0.000534  -0.000195   0.000027
  11 H       3.129326   4.683970   3.964109    0.000029   0.000030   0.000024
  12 H       1.875478   1.690478   3.118809    0.000044  -0.000138  -0.000108
  13 H       4.787416   2.713472   1.839439    0.000076  -0.000068  -0.000088
  14 H       2.322205   7.638424  -2.413862    0.000009   0.000046  -0.000080
  15 H       2.894394   8.353577   0.808864   -0.000018  -0.000137  -0.000047
  16 H       5.030687   6.422304  -0.876350    0.000128  -0.000016  -0.000089
  17 H      -1.768551   8.831394  -0.777917    0.000006  -0.000024   0.000025
  18 H      -1.901618   6.478608  -3.157988   -0.000011  -0.000008  -0.000093
  19 H      -4.456807   6.866350  -1.036040   -0.000101  -0.000005   0.000001
  20 H      -0.982760   7.452173   3.854628   -0.000098  -0.000021  -0.000168
  21 H      -3.969313   6.004753   3.479178   -0.000131  -0.000032   0.000034
  22 H      -1.390287   4.221538   4.638713    0.000011  -0.000102   0.000091
  23 C       0.544527  -3.810118  -1.057975    0.000074   0.000996   0.000515
  24 C      -0.722664  -5.834808   0.525558   -0.000299  -0.000488  -0.000330
  25 N      -0.104520  -8.370306  -0.324660    0.000310  -0.000046   0.000432
  26 C       2.434230  -9.121936   0.397748    0.000068  -0.000277  -0.000137
  27 H      -3.824503  -9.672010  -0.005965   -0.000135  -0.000020  -0.000041
  28 H       2.826738 -11.009770  -0.332456    0.000118  -0.000043  -0.000069
  29 C      -1.929702 -10.180957   0.627645   -0.000057   0.000164  -0.000026
  30 H      -0.125476  -3.914626  -3.012174   -0.000016  -0.000003  -0.000035
  31 H       2.594811  -4.027655  -1.076538   -0.000132  -0.000151  -0.000320
  32 H      -2.764841  -5.577244   0.372873   -0.000089   0.000010   0.000091
  33 H      -0.221106  -5.547112   2.529963   -0.000063   0.000241   0.000119
  34 H      -1.943690 -10.279505   2.709946   -0.000045  -0.000037   0.000029
  35 H       2.678525  -9.162098   2.468046    0.000005   0.000006   0.000073
  36 H       3.837565  -7.837110  -0.390050    0.000160  -0.000053   0.000034
  37 H      -1.483148 -12.060718  -0.093775   -0.000004  -0.000046  -0.000042
 
  no constraints, skipping   0.000000000000000E+000

  Step       Energy      Delta E   Gmax     Grms     Xrms     Xmax   Walltime
  ---- ---------------- -------- -------- -------- -------- -------- --------
@    1   -1015.46041176 -2.1D-04  0.00100  0.00015  0.03958  0.10527  12552.5
                                                                    

  no constraints, skipping   0.000000000000000E+000
  no constraints, skipping   0.000000000000000E+000
  no constraints, skipping   0.000000000000000E+000
  no constraints, skipping   0.000000000000000E+000
  no constraints, skipping   0.000000000000000E+000
  no constraints, skipping   0.000000000000000E+000
  no constraints, skipping   0.000000000000000E+000
  no constraints, skipping   0.000000000000000E+000
 
                                 NWChem DFT Module
                                 -----------------
 
 
                                       der2
 
 
 
 
 solvent parameters
 solvname_short: chcl3   
 solvname_long:  chloroform                         
 dielec:        4.7113
 dielecinf:     2.0906

          ---------------
          -cosmo- solvent
          ---------------
 Cosmo: York-Karplus, doi: 10.1021/jp992097l
 dielectric constant -eps-     =   4.71
 screen = (eps-1)/(eps    )    =   0.78774
 surface charge correction     = lagrangian
 -lineq- algorithm             =   0
 -bem- low  level              =   2
 -bem- from -octahedral-
 gaussian surface charge width =   0.98000
 degree of switching           =   1.00000
 switching function tolerance  =   0.00010
 atomic radii = 
 --------------
    1  8.000  1.720
    2 15.000  2.106
    3  8.000  1.720
    4  8.000  1.720
    5  6.000  2.000
    6  6.000  2.000
    7  6.000  2.000
    8  6.000  2.000
    9  6.000  2.000
   10  6.000  2.000
   11  1.000  1.300
   12  1.000  1.300
   13  1.000  1.300
   14  1.000  1.300
   15  1.000  1.300
   16  1.000  1.300
   17  1.000  1.300
   18  1.000  1.300
   19  1.000  1.300
   20  1.000  1.300
   21  1.000  1.300
   22  1.000  1.300
   23  6.000  2.000
   24  6.000  2.000
   25  7.000  1.830
   26  6.000  2.000
   27  1.000  1.300
   28  1.000  1.300
   29  6.000  2.000
   30  1.000  1.300
   31  1.000  1.300
   32  1.000  1.300
   33  1.000  1.300
   34  1.000  1.300
   35  1.000  1.300
   36  1.000  1.300
   37  1.000  1.300

 solvent accessible surface
 --------------------------

 ---------- ATOMIC COORDINATES (A.U.) ------------ VDWR(ANG.) --
     1   -0.03929680   -1.40454550    0.02846678     1.720
     2   -0.80158466    0.87487959   -1.92671036     2.106
     3    1.62339402    2.80085390   -1.93063988     1.720
     4   -2.41912441    2.57819958    0.09208698     1.720
     5    1.59878125    4.55697904    0.18568366     2.000
     6   -1.27239622    5.01284333    0.62411638     2.000
     7    2.91365842    3.33400697    2.43056450     2.000
     8    3.03491977    6.89120077   -0.63565444     2.000
     9   -2.40457223    6.91299682   -1.21133062     2.000
    10   -1.93831119    5.71128456    3.31815048     2.000
    11    3.13270303    4.69157620    3.96517458     1.300
    12    1.88179416    1.69601818    3.12641016     1.300
    13    4.79179642    2.72022990    1.84285091     1.300
    14    2.31886158    7.63626642   -2.41417029     1.300
    15    2.89019372    8.35767307    0.80739623     1.300
    16    5.02873169    6.42597619   -0.87422794     1.300
    17   -1.77304928    8.82752821   -0.78696470     1.300
    18   -1.90150902    6.46828656   -3.16069387     1.300
    19   -4.45751933    6.85702891   -1.04005962     1.300
    20   -0.98699744    7.46282146    3.84880056     1.300
    21   -3.97151087    6.01073303    3.47307244     1.300
    22   -1.39171748    4.23455435    4.64099192     1.300
    23    0.54867599   -3.81310949   -1.05020358     2.000
    24   -0.72067164   -5.83645424    0.53130081     2.000
    25   -0.10877092   -8.36992680   -0.32783682     1.830
    26    2.43037577   -9.12292298    0.38903130     2.000
    27   -3.82829488   -9.66971684   -0.00470068     1.300
    28    2.82016600  -11.00932530   -0.34574111     1.300
    29   -1.93297532  -10.18226813    0.62344058     2.000
    30   -0.12440884   -3.91282707   -3.00341403     1.300
    31    2.59890672   -4.03254171   -1.07088220     1.300
    32   -2.76241484   -5.57531334    0.38176289     1.300
    33   -0.21566386   -5.55591611    2.53544772     1.300
    34   -1.94217513  -10.28570114    2.70540218     1.300
    35    2.67808400   -9.16740473    2.45857909     1.300
    36    3.83088605   -7.83554701   -0.39924297     1.300
    37   -1.48892654  -12.06032712   -0.10357508     1.300
 number of segments per atom =         32
 number of   points per atom =         32
 atom (   nspa,  nppa )
 ----------------------
    1 (     10,     0 )       0
    2 (     13,     0 )       0
    3 (     14,     0 )       0
    4 (     10,     0 )       0
    5 (      2,     0 )       0
    6 (      2,     0 )       0
    7 (     14,     0 )       0
    8 (     15,     0 )       0
    9 (     12,     0 )       0
   10 (     12,     0 )       0
   11 (     13,     0 )       0
   12 (     11,     0 )       0
   13 (     13,     0 )       0
   14 (     12,     0 )       0
   15 (     12,     0 )       0
   16 (     15,     0 )       0
   17 (     13,     0 )       0
   18 (     14,     0 )       0
   19 (     16,     0 )       0
   20 (     14,     0 )       0
   21 (     15,     0 )       0
   22 (     14,     0 )       0
   23 (     11,     0 )       0
   24 (      9,     0 )       0
   25 (      5,     0 )       0
   26 (     15,     0 )       0
   27 (     14,     0 )       0
   28 (     13,     0 )       0
   29 (     15,     0 )       0
   30 (     12,     0 )       0
   31 (     14,     0 )       0
   32 (     14,     0 )       0
   33 (     14,     0 )       0
   34 (     16,     0 )       0
   35 (     16,     0 )       0
   36 (     12,     0 )       0
   37 (     14,     0 )       0
 number of -cosmo- surface points =      460
 molecular surface =    278.630 angstrom**2
 molecular volume  =    152.997 angstrom**3
 G(cav/disp)       =      2.253 kcal/mol
 ...... end of -cosmo- initialization ......


  Caching 1-el integrals 
 
 WARNING : Found     3 linear dependencies 
 S eigenvalue threshold:     1.00000E-05
 Smallest S eigenvalue :     3.04888E-06
 Largest  S eigenvalue :     8.21467E-06
 
   Time after variat. SCF:  12554.0
   Time prior to 1st pass:  12554.0


         Total DFT energy =    -1015.460439450517
      One electron energy =    -3907.684050222334
           Coulomb energy =     1742.825916174926
    Exchange-Corr. energy =     -117.790576277584
 Nuclear repulsion energy =     1266.160446951044

             COSMO energy =        1.027823923430

 Numeric. integr. density =      127.999975264022

     Total iterative time =   2152.3s


                                   COSMO solvation results
                                   -----------------------

                 gas phase energy =     -1015.449666174759
                 sol phase energy =     -1015.460439450517
 (electrostatic) solvation energy =         0.010773275758 (    6.76 kcal/mol)
 Line search: 
     step= 1.00 grad=-4.4D-05 hess= 1.6D-05 energy=  -1015.460439 mode=downhill
 new step= 1.38                   predicted energy=  -1015.460442
  no constraints, skipping   0.000000000000000E+000
  no constraints, skipping   0.000000000000000E+000
  no constraints, skipping   0.000000000000000E+000
  no constraints, skipping   0.000000000000000E+000
  no constraints, skipping   0.000000000000000E+000
  no constraints, skipping   0.000000000000000E+000
  no constraints, skipping   0.000000000000000E+000
  no constraints, skipping   0.000000000000000E+000

          --------
          Step   2
          --------
 
                                 NWChem DFT Module
                                 -----------------
 
 
                                       der2
 
 
 
 
 solvent parameters
 solvname_short: chcl3   
 solvname_long:  chloroform                         
 dielec:        4.7113
 dielecinf:     2.0906

          ---------------
          -cosmo- solvent
          ---------------
 Cosmo: York-Karplus, doi: 10.1021/jp992097l
 dielectric constant -eps-     =   4.71
 screen = (eps-1)/(eps    )    =   0.78774
 surface charge correction     = lagrangian
 -lineq- algorithm             =   0
 -bem- low  level              =   2
 -bem- from -octahedral-
 gaussian surface charge width =   0.98000
 degree of switching           =   1.00000
 switching function tolerance  =   0.00010
 atomic radii = 
 --------------
    1  8.000  1.720
    2 15.000  2.106
    3  8.000  1.720
    4  8.000  1.720
    5  6.000  2.000
    6  6.000  2.000
    7  6.000  2.000
    8  6.000  2.000
    9  6.000  2.000
   10  6.000  2.000
   11  1.000  1.300
   12  1.000  1.300
   13  1.000  1.300
   14  1.000  1.300
   15  1.000  1.300
   16  1.000  1.300
   17  1.000  1.300
   18  1.000  1.300
   19  1.000  1.300
   20  1.000  1.300
   21  1.000  1.300
   22  1.000  1.300
   23  6.000  2.000
   24  6.000  2.000
   25  7.000  1.830
   26  6.000  2.000
   27  1.000  1.300
   28  1.000  1.300
   29  6.000  2.000
   30  1.000  1.300
   31  1.000  1.300
   32  1.000  1.300
   33  1.000  1.300
   34  1.000  1.300
   35  1.000  1.300
   36  1.000  1.300
   37  1.000  1.300

 solvent accessible surface
 --------------------------

 ---------- ATOMIC COORDINATES (A.U.) ------------ VDWR(ANG.) --
     1   -0.03666689   -1.40553557    0.03353902     1.720
     2   -0.80014601    0.87229483   -1.92537243     2.106
     3    1.62447410    2.79923935   -1.92794388     1.720
     4   -2.41650199    2.57653107    0.09446567     1.720
     5    1.59901214    4.55726424    0.18705532     2.000
     6   -1.27153244    5.01295892    0.62415594     2.000
     7    2.91520394    3.33589617    2.43185152     2.000
     8    3.03406977    6.89186703   -0.63540332     2.000
     9   -2.40496712    6.91067155   -1.21288348     2.000
    10   -1.93903739    5.71429539    3.31720689     2.000
    11    3.13397323    4.69442300    3.96556745     1.300
    12    1.88417521    1.69809235    3.12925425     1.300
    13    4.79344560    2.72276683    1.84411986     1.300
    14    2.31759883    7.63545445   -2.41428142     1.300
    15    2.88860731    8.35920460    0.80684769     1.300
[...]
 

 Effective nuclear repulsion energy (a.u.)    1266.3067770166

            Nuclear Dipole moment (a.u.) 
            ----------------------------
        X                 Y               Z
 ---------------- ---------------- ----------------
     9.3704430566    -2.7342122911     6.3495246193
 
 
                Final and change from initial internal coordinates
                --------------------------------------------------
 


                                Z-matrix (autoz)
                                -------- 

 Units are Angstrom for bonds and degrees for angles
 
      Type          Name      I     J     K     L     M      Value       Change
      ----------- --------  ----- ----- ----- ----- ----- ---------- ----------
    1 Stretch                  1     2                       1.63875    0.00984
    2 Stretch                  1    23                       1.43110    0.00623
    3 Stretch                  2     3                       1.63833    0.00592
    4 Stretch                  2     4                       1.64135    0.00862
    5 Stretch                  3     5                       1.45493    0.00372
    6 Stretch                  4     6                       1.45025    0.00223
    7 Stretch                  5     6                       1.55360   -0.00332
    8 Stretch                  5     7                       1.52080   -0.00052
    9 Stretch                  5     8                       1.51396   -0.00037
   10 Stretch                  6     9                       1.52111    0.00033
   11 Stretch                  6    10                       1.51430   -0.00008
   12 Stretch                  7    11                       1.09052   -0.00021
   13 Stretch                  7    12                       1.08869    0.00024
   14 Stretch                  7    13                       1.09065    0.00002
   15 Stretch                  8    14                       1.08854    0.00016
   16 Stretch                  8    15                       1.09150   -0.00020
   17 Stretch                  8    16                       1.09072    0.00016
   18 Stretch                  9    17                       1.09020   -0.00007
   19 Stretch                  9    18                       1.09104    0.00022
   20 Stretch                  9    19                       1.09048    0.00014
   21 Stretch                 10    20                       1.09154   -0.00017
   22 Stretch                 10    21                       1.09053    0.00006
   23 Stretch                 10    22                       1.08848    0.00018
   24 Stretch                 23    24                       1.51573    0.00004
   25 Stretch                 23    30                       1.09440   -0.00050
   26 Stretch                 23    31                       1.09045   -0.00139
   27 Stretch                 24    25                       1.45246    0.00221
   28 Stretch                 24    32                       1.09234    0.00021
   29 Stretch                 24    33                       1.10375   -0.00014
   30 Stretch                 25    26                       1.45209    0.00189
   31 Stretch                 25    29                       1.45098    0.00172
   32 Stretch                 26    28                       1.09094    0.00009
   33 Stretch                 26    35                       1.10327   -0.00023
   34 Stretch                 26    36                       1.08956    0.00006
   35 Stretch                 27    29                       1.09083    0.00009
   36 Stretch                 29    34                       1.10310   -0.00022
   37 Stretch                 29    37                       1.09131    0.00017
   38 Bend                     1     2     3               105.13422    0.04100
   39 Bend                     1     2     4                97.08336   -0.16096
   40 Bend                     1    23    24               108.68982    0.39139
   41 Bend                     1    23    30               110.53607   -0.11427
   42 Bend                     1    23    31               107.59532   -0.75956
   43 Bend                     2     1    23               117.48685   -1.40348
   44 Bend                     2     3     5               112.99332   -0.30307
   45 Bend                     2     4     6               112.90354   -0.89592
   46 Bend                     3     2     4                93.78403    0.18929
   47 Bend                     3     5     6               102.74161    0.14192
   48 Bend                     3     5     7               108.81472   -0.10114
   49 Bend                     3     5     8               107.31031   -0.08234
   50 Bend                     4     6     5               103.64985   -0.12642
   51 Bend                     4     6     9               107.64621    0.23564
   52 Bend                     4     6    10               107.56053   -0.21449
   53 Bend                     5     6     9               113.06056    0.06083
   54 Bend                     5     6    10               113.96857   -0.04102
   55 Bend                     5     7    11               110.58659   -0.01389
   56 Bend                     5     7    12               111.86571   -0.02532
   57 Bend                     5     7    13               108.74709    0.04803
   58 Bend                     5     8    14               111.56205   -0.14629
   59 Bend                     5     8    15               110.05819   -0.20229
   60 Bend                     5     8    16               109.68760    0.11630
   61 Bend                     6     5     7               113.31158   -0.05596
   62 Bend                     6     5     8               113.96522   -0.08880
   63 Bend                     6     9    17               111.20017   -0.03623
   64 Bend                     6     9    18               111.48854    0.00733
   65 Bend                     6     9    19               108.75447    0.01506
   66 Bend                     6    10    20               110.02649   -0.20453
   67 Bend                     6    10    21               109.66916    0.02707
   68 Bend                     6    10    22               111.58214   -0.01427
   69 Bend                     7     5     8               110.16158    0.17276
   70 Bend                     9     6    10               110.39656    0.07507
   71 Bend                    11     7    12               108.91801   -0.18937
   72 Bend                    11     7    13               108.13132   -0.00442
   73 Bend                    12     7    13               108.49761    0.19145
   74 Bend                    14     8    15               108.83666    0.06847
   75 Bend                    14     8    16               108.58148    0.10597
   76 Bend                    15     8    16               108.03228    0.06881
   77 Bend                    17     9    18               108.61554   -0.04316
   78 Bend                    17     9    19               108.25272   -0.01547
   79 Bend                    18     9    19               108.43771    0.07496
   80 Bend                    20    10    21               108.15436    0.14918
   81 Bend                    20    10    22               108.73881   -0.03077
   82 Bend                    21    10    22               108.59101    0.08260
   83 Bend                    23    24    25               112.41731   -0.07592
   84 Bend                    23    24    32               107.90495   -0.04284
   85 Bend                    23    24    33               109.19833    0.22989
   86 Bend                    24    23    30               110.00033   -0.00500
   87 Bend                    24    23    31               111.90618    0.33602
   88 Bend                    24    25    26               112.06723   -0.05723
   89 Bend                    24    25    29               110.58504   -0.26115
   90 Bend                    25    24    32               108.35816   -0.14442
   91 Bend                    25    24    33               111.70289   -0.05321
   92 Bend                    25    26    28               109.49980   -0.10989
   93 Bend                    25    26    35               112.02320   -0.05250
   94 Bend                    25    26    36               110.97730   -0.03525
   95 Bend                    25    29    27               109.95722   -0.11386
   96 Bend                    25    29    34               112.44291   -0.03985
   97 Bend                    25    29    37               109.68202   -0.03532
   98 Bend                    26    25    29               110.00858   -0.10310
   99 Bend                    27    29    34               108.22405    0.00249
  100 Bend                    27    29    37               108.48008    0.16614
  101 Bend                    28    26    35               108.16786    0.03014
  102 Bend                    28    26    36               107.87333    0.14880
  103 Bend                    30    23    31               108.09221    0.13255
  104 Bend                    32    24    33               107.04140    0.09079
  105 Bend                    34    29    37               107.95186    0.03220
  106 Bend                    35    26    36               108.16868    0.03012
  107 Torsion                  1     2     3     5         -84.29392   -2.17367
  108 Torsion                  1     2     4     6         117.04455    3.18628
  109 Torsion                  1    23    24    25        -176.98838   -0.86727
  110 Torsion                  1    23    24    32          63.58396   -0.61390
  111 Torsion                  1    23    24    33         -52.43161   -0.81938
  112 Torsion                  2     1    23    24        -123.71637   13.41273
  113 Torsion                  2     1    23    30          -2.89992   13.58549
  114 Torsion                  2     1    23    31         114.92003   13.22674
  115 Torsion                  2     3     5     6         -32.32484    0.65306
  116 Torsion                  2     3     5     7          88.05090    0.61684
  117 Torsion                  2     3     5     8        -152.76694    0.72052
  118 Torsion                  2     4     6     5         -30.52932   -3.16507
  119 Torsion                  2     4     6     9          89.48676   -3.04992
  120 Torsion                  2     4     6    10        -151.54867   -2.94971
  121 Torsion                  3     2     1    23        -113.09314   -5.64012
  122 Torsion                  3     2     4     6          11.26823    3.13308
  123 Torsion                  3     5     6     4          37.32414    1.74075
  124 Torsion                  3     5     6     9         -78.93468    1.50656
  125 Torsion                  3     5     6    10         153.92324    1.38382
  126 Torsion                  3     5     7    11         172.47059   -0.59458
  127 Torsion                  3     5     7    12         -65.93452   -0.86416
  128 Torsion                  3     5     7    13          53.88124   -0.61041
  129 Torsion                  3     5     8    14          51.81422   -0.64035
  130 Torsion                  3     5     8    15         172.73584   -0.78943
  131 Torsion                  3     5     8    16         -68.53669   -0.75659
  132 Torsion                  4     2     1    23         151.02367   -5.79889
  133 Torsion                  4     2     3     5          14.09613   -2.28344
  134 Torsion                  4     6     5     7         -79.90053    1.80220
  135 Torsion                  4     6     5     8         153.06810    1.68715
  136 Torsion                  4     6     9    17         174.09013   -0.07506
  137 Torsion                  4     6     9    18         -64.53303   -0.15051
  138 Torsion                  4     6     9    19          54.98049   -0.04363
  139 Torsion                  4     6    10    20         174.85770   -0.67342
  140 Torsion                  4     6    10    21         -66.29573   -0.59835
  141 Torsion                  4     6    10    22          54.06781   -0.48592
  142 Torsion                  5     6     9    17         -72.04554   -0.05321
  143 Torsion                  5     6     9    18          49.33131   -0.12866
  144 Torsion                  5     6     9    19         168.84482   -0.02178
  145 Torsion                  5     6    10    20          60.55418   -0.35983
  146 Torsion                  5     6    10    21         179.40075   -0.28476
  147 Torsion                  5     6    10    22         -60.23570   -0.17233
  148 Torsion                  6     5     7    11         -73.91790   -0.51481
  149 Torsion                  6     5     7    12          47.67699   -0.78438
  150 Torsion                  6     5     7    13         167.49275   -0.53063
  151 Torsion                  6     5     8    14         -61.22411   -0.71517
  152 Torsion                  6     5     8    15          59.69751   -0.86425
  153 Torsion                  6     5     8    16         178.42497   -0.83141
  154 Torsion                  7     5     6     9         163.84064    1.56802
  155 Torsion                  7     5     6    10          36.69856    1.44528
  156 Torsion                  7     5     8    14         170.12749   -0.71433
  157 Torsion                  7     5     8    15         -68.95089   -0.86341
  158 Torsion                  7     5     8    16          49.77658   -0.83056
  159 Torsion                  8     5     6     9          36.80927    1.45297
  160 Torsion                  8     5     6    10         -90.33281    1.33023
  161 Torsion                  8     5     7    11          55.08599   -0.53465
  162 Torsion                  8     5     7    12         176.68088   -0.80423
  163 Torsion                  8     5     7    13         -63.50336   -0.55048
  164 Torsion                  9     6    10    20         -67.95551   -0.47413
  165 Torsion                  9     6    10    21          50.89107   -0.39906
  166 Torsion                  9     6    10    22         171.25461   -0.28663
  167 Torsion                 10     6     9    17          56.95632    0.00446
  168 Torsion                 10     6     9    18         178.33317   -0.07099
  169 Torsion                 10     6     9    19         -62.15332    0.03589
  170 Torsion                 23    24    25    26          74.79462   -0.59014
  171 Torsion                 23    24    25    29        -162.06824   -0.95685
  172 Torsion                 24    25    26    28        -178.42137   -0.30974
  173 Torsion                 24    25    26    35          61.57543   -0.23980
  174 Torsion                 24    25    26    36         -59.44359   -0.21728
  175 Torsion                 24    25    29    27          58.45363   -0.07556
  176 Torsion                 24    25    29    34         -62.20794    0.02734
  177 Torsion                 24    25    29    37         177.66544    0.03691
  178 Torsion                 25    24    23    30          61.86567   -0.96937
  179 Torsion                 25    24    23    31         -58.30386   -1.35124
  180 Torsion                 26    25    24    32        -166.04223   -0.78540
  181 Torsion                 26    25    24    33         -48.37006   -0.79553
  182 Torsion                 26    25    29    27        -177.22323   -0.40549
  183 Torsion                 26    25    29    34          62.11520   -0.30259
  184 Torsion                 26    25    29    37         -58.01143   -0.29302
  185 Torsion                 28    26    25    29          58.11692    0.14356
  186 Torsion                 29    25    24    32         -42.90509   -1.15210
  187 Torsion                 29    25    24    33          74.76708   -1.16223
  188 Torsion                 29    25    26    35         -61.88628    0.21350
  189 Torsion                 29    25    26    36         177.09470    0.23602
  190 Torsion                 30    23    24    32         -57.56199   -0.71601
  191 Torsion                 30    23    24    33        -173.57756   -0.92148
  192 Torsion                 31    23    24    32        -177.73152   -1.09787
  193 Torsion                 31    23    24    33          66.25291   -1.30335
 
 
 
                                NWChem Input Module
                                -------------------
 
 
 
 
                                     CITATION
                                     --------
                Please cite the following reference when publishing
                           results obtained with NWChem:
 
          E. Apra, E. J. Bylaska, W. A. de Jong, N. Govind, K. Kowalski,
       T. P. Straatsma, M. Valiev, H. J. J. van Dam, Y. Alexeev, J. Anchell,
       V. Anisimov, F. W. Aquino, R. Atta-Fynn, J. Autschbach, N. P. Bauman,
     J. C. Becca, D. E. Bernholdt, K. Bhaskaran-Nair, S. Bogatko, P. Borowski,
         J. Boschen, J. Brabec, A. Bruner, E. Cauet, Y. Chen, G. N. Chuev,
      C. J. Cramer, J. Daily, M. J. O. Deegan, T. H. Dunning Jr., M. Dupuis,
   K. G. Dyall, G. I. Fann, S. A. Fischer, A. Fonari, H. Fruchtl, L. Gagliardi,
      J. Garza, N. Gawande, S. Ghosh, K. Glaesemann, A. W. Gotz, J. Hammond,
       V. Helms, E. D. Hermes, K. Hirao, S. Hirata, M. Jacquelin, L. Jensen,
   B. G. Johnson, H. Jonsson, R. A. Kendall, M. Klemm, R. Kobayashi, V. Konkov,
      S. Krishnamoorthy, M. Krishnan, Z. Lin, R. D. Lins, R. J. Littlefield,
      A. J. Logsdail, K. Lopata, W. Ma, A. V. Marenich, J. Martin del Campo,
   D. Mejia-Rodriguez, J. E. Moore, J. M. Mullin, T. Nakajima, D. R. Nascimento,
    J. A. Nichols, P. J. Nichols, J. Nieplocha, A. Otero-de-la-Roza, B. Palmer,
    A. Panyala, T. Pirojsirikul, B. Peng, R. Peverati, J. Pittner, L. Pollack,
   R. M. Richard, P. Sadayappan, G. C. Schatz, W. A. Shelton, D. W. Silverstein,
   D. M. A. Smith, T. A. Soares, D. Song, M. Swart, H. L. Taylor, G. S. Thomas,
            V. Tipparaju, D. G. Truhlar, K. Tsemekhman, T. Van Voorhis,
      A. Vazquez-Mayagoitia, P. Verma, O. Villa, A. Vishnu, K. D. Vogiatzis,
        D. Wang, J. H. Weare, M. J. Williamson, T. L. Windus, K. Wolinski,
        A. T. Wong, Q. Wu, C. Yang, Q. Yu, M. Zacharias, Z. Zhang, Y. Zhao,
                                and R. J. Harrison
                        "NWChem: Past, present, and future
                         J. Chem. Phys. 152, 184102 (2020)
                               doi:10.1063/5.0004997
 
                                      AUTHORS
                                      -------
     E. Apra, E. J. Bylaska, N. Govind, K. Kowalski, M. Valiev, W. A. de Jong,
      T. P. Straatsma, H. J. J. van Dam, D. Wang, T. L. Windus, N. P. Bauman,
       A. Panyala, J. Hammond, J. Autschbach, K. Bhaskaran-Nair, J. Brabec,
    K. Lopata, S. A. Fischer, S. Krishnamoorthy, M. Jacquelin, W. Ma, M. Klemm,
       O. Villa, Y. Chen, V. Anisimov, F. Aquino, S. Hirata, M. T. Hackler,
           Eric Hermes, L. Jensen, J. E. Moore, J. C. Becca, V. Konjkov,
            D. Mejia-Rodriguez, T. Risthaus, M. Malagoli, A. Marenich,
   A. Otero-de-la-Roza, J. Mullin, P. Nichols, R. Peverati, J. Pittner, Y. Zhao,
        P.-D. Fan, A. Fonari, M. J. Williamson, R. J. Harrison, J. R. Rehr,
      M. Dupuis, D. Silverstein, D. M. A. Smith, J. Nieplocha, V. Tipparaju,
      M. Krishnan, B. E. Van Kuiken, A. Vazquez-Mayagoitia, M. Swart, Q. Wu,
   T. Van Voorhis, A. A. Auer, M. Nooijen, L. D. Crosby, E. Brown, G. Cisneros,
     G. I. Fann, H. Fruchtl, J. Garza, K. Hirao, R. A. Kendall, J. A. Nichols,
       K. Tsemekhman, K. Wolinski, J. Anchell, D. E. Bernholdt, P. Borowski,
       T. Clark, D. Clerc, H. Dachsel, M. J. O. Deegan, K. Dyall, D. Elwood,
      E. Glendening, M. Gutowski, A. C. Hess, J. Jaffe, B. G. Johnson, J. Ju,
        R. Kobayashi, R. Kutteh, Z. Lin, R. Littlefield, X. Long, B. Meng,
      T. Nakajima, S. Niu, L. Pollack, M. Rosing, K. Glaesemann, G. Sandrone,
      M. Stave, H. Taylor, G. Thomas, J. H. van Lenthe, A. T. Wong, Z. Zhang.

 Total times  cpu:   153710.6s     wall:   153970.6s
