 *******************************************************************************
 ** Site#: 30659        For non-commercial use only    Version 19.234L 64BITS **
 *******************************************************************************
 ** Cite this program as: MOPAC2016, Version: 19.234L, James J. P. Stewart,   **
 ** Stewart Computational Chemistry, web-site: HTTP://OpenMOPAC.net.          **
 *******************************************************************************
 **                                                                           **
 **                                MOPAC2016                                  **
 **                                                                           **
 *******************************************************************************

                              PM7 CALCULATION RESULTS

 *******************************************************************************
 *  CALCULATION DONE:                                Sat Jul 25 14:45:06 2020  *
 *  PM7        - The PM7 Hamiltonian to be used
 *  SYMMETRY   - SYMMETRY CONDITIONS TO BE IMPOSED
 *  MERS=N     - NUMBER OF FUNDAMENTAL UNIT CELLS USED: 64
 *  T=         - A TIME OF 172800.0 SECONDS REQUESTED
 *  DUMP=N     - RESTART FILE WRITTEN EVERY  7200.000 SECONDS
 *  BCC        - THE SYSTEM IS BODY-CENTERED CUBIC
 *******************************************************************************



                    PARAMETER DEPENDENCE DATA

        REFERENCE ATOM      FUNCTION NO.    DEPENDENT ATOM(S)
            1                  2               2   31   32   43   44   55   56

            1                  3               2    3    4   21   22   23   24
                                              41   42   43
            1                  3              44   61   62   63   64   65
            3                  1               5    9   17   21   33
            3                  2               4
            4                  1               6   10   18   22   34
            5                  2               6   17   18   47   48   59   60

            5                  3               6    7    8   25   26   27   28
                                              45   46   47
            5                  3              48
            7                  1              11   13   19   23   25   29   35
                                              37   41   49
            7                  1              53   65   66   67
            7                  2               8   19   20
            8                  1              12   14   20   24   26   30   36
                                              38   42   50
            8                  1              54
            9                  2              10   21   22   33   34   63   64

            9                  3              10   11   12   29   30   31   32

           11                  2              12   23   24   35   36
           13                  2              14   25   26   37   38   49   50

           13                  3              14   15   16
           15                  1              27   31   39   43   45   51   55
                                              57   61
           15                  2              16   27   28   39   40   51   52

           16                  1              28   32   40   44   46   52   56
                                              58   62
           17                  3              18   19   20   37   38   39   40
                                              57   58   59
           17                  3              60
           29                  2              30   41   42   53   54   66   67

           33                  3              34   35   36   53   54   55   56

           45                  2              46   57   58
           47                  1              59   63
           48                  1              60   64
           49                  3              50   51   52
           61                  2              62

             DESCRIPTIONS OF THE FUNCTIONS USED
   1      X COORDINATE IS SET EQUAL TO   THE REFERENCE X COORDINATE  
   2      Y COORDINATE IS SET EQUAL TO   THE REFERENCE Y COORDINATE  
   3      Z COORDINATE IS SET EQUAL TO   THE REFERENCE Z COORDINATE  
 
 MERS=(4,4,4)   BCC SYMMETRY PM7
 Diamond

   ATOM   CHEMICAL          X               Y               Z
  NUMBER   SYMBOL      (ANGSTROMS)     (ANGSTROMS)     (ANGSTROMS)
 
     1       C          0.00000000  *   0.00000000  *   0.00000000  *
     2       C         -1.54497866  *   0.00000000      0.00000000   
     3       C          2.05998578  *   2.91325979  *   0.00000000   
     4       C          0.51500711  *   2.91325979      0.00000000   
     5       C          2.05998578      0.72831495  *  -1.26147849  *
     6       C          0.51500711      0.72831495     -1.26147849   
     7       C          4.11997155  *   3.64157474  *  -1.26147849   
     8       C          2.57499289  *   3.64157474     -1.26147849   
     9       C          2.05998578     -1.45662989  *  -2.52295699  *
    10       C          0.51500711     -1.45662989     -2.52295699   
    11       C          4.11997155      1.45662989  *  -2.52295699   
    12       C          2.57499289      1.45662989     -2.52295699   
    13       C          4.11997155     -0.72831495  *  -3.78443548  *
    14       C          2.57499289     -0.72831495     -3.78443548   
    15       C          6.17995733  *   2.18494484  *  -3.78443548   
    16       C          4.63497866  *   2.18494484     -3.78443548   
    17       C          2.05998578      0.72831495      1.26147849  *
    18       C          0.51500711      0.72831495      1.26147849   
    19       C          4.11997155      3.64157474      1.26147849   
    20       C          2.57499289      3.64157474      1.26147849   
    21       C          2.05998578     -1.45662989      0.00000000   
    22       C          0.51500711     -1.45662989      0.00000000   
    23       C          4.11997155      1.45662989      0.00000000   
    24       C          2.57499289      1.45662989      0.00000000   
    25       C          4.11997155     -0.72831495     -1.26147849   
    26       C          2.57499289     -0.72831495     -1.26147849   
    27       C          6.17995733      2.18494484     -1.26147849   
    28       C          4.63497866      2.18494484     -1.26147849   
    29       C          4.11997155     -2.91325979  *  -2.52295699   
    30       C          2.57499289     -2.91325979     -2.52295699   
    31       C          6.17995733      0.00000000     -2.52295699   
    32       C          4.63497866      0.00000000     -2.52295699   
    33       C          2.05998578     -1.45662989      2.52295699  *
    34       C          0.51500711     -1.45662989      2.52295699   
    35       C          4.11997155      1.45662989      2.52295699   
    36       C          2.57499289      1.45662989      2.52295699   
    37       C          4.11997155     -0.72831495      1.26147849   
    38       C          2.57499289     -0.72831495      1.26147849   
    39       C          6.17995733      2.18494484      1.26147849   
    40       C          4.63497866      2.18494484      1.26147849   
    41       C          4.11997155     -2.91325979      0.00000000   
    42       C          2.57499289     -2.91325979      0.00000000   
    43       C          6.17995733      0.00000000      0.00000000   
    44       C          4.63497866      0.00000000      0.00000000   
    45       C          6.17995733     -2.18494484  *  -1.26147849   
    46       C          4.63497866     -2.18494484     -1.26147849   
    47       C          8.23994311  *   0.72831495     -1.26147849   
    48       C          6.69496444  *   0.72831495     -1.26147849   
    49       C          4.11997155     -0.72831495      3.78443548  *
    50       C          2.57499289     -0.72831495      3.78443548   
    51       C          6.17995733      2.18494484      3.78443548   
    52       C          4.63497866      2.18494484      3.78443548   
    53       C          4.11997155     -2.91325979      2.52295699   
    54       C          2.57499289     -2.91325979      2.52295699   
    55       C          6.17995733      0.00000000      2.52295699   
    56       C          4.63497866      0.00000000      2.52295699   
    57       C          6.17995733     -2.18494484      1.26147849   
    58       C          4.63497866     -2.18494484      1.26147849   
    59       C          8.23994311      0.72831495      1.26147849   
    60       C          6.69496444      0.72831495      1.26147849   
    61       C          6.17995733     -4.36988968  *   0.00000000   
    62       C          4.63497866     -4.36988968      0.00000000   
    63       C          8.23994311     -1.45662989      0.00000000   
    64       C          6.69496444     -1.45662989      0.00000000   
    65      Tv          4.11997155      5.82651958  *   0.00000000   
    66      Tv          4.11997155     -2.91325979     -5.04591397  *
    67      Tv          4.11997155     -2.91325979      5.04591397  *
 

                   THE SYSTEM IS A SOLID


                UNIT CELL TRANSLATION VECTORS

              X                Y              Z
    T1 =     4.1199715      5.8265196      0.0000000
    T2 =     4.1199715     -2.9132598     -5.0459140
    T3 =     4.1199715     -2.9132598      5.0459140


          CARTESIAN COORDINATES 

    NO.       ATOM           X           Y           Z

     1         C          0.0000      0.0000      0.0000
     2         C         -1.5450      0.0000      0.0000
     3         C          2.0600      2.9133      0.0000
     4         C          0.5150      2.9133      0.0000
     5         C          2.0600      0.7283     -1.2615
     6         C          0.5150      0.7283     -1.2615
     7         C          4.1200      3.6416     -1.2615
     8         C          2.5750      3.6416     -1.2615
     9         C          2.0600     -1.4566     -2.5230
    10         C          0.5150     -1.4566     -2.5230
    11         C          4.1200      1.4566     -2.5230
    12         C          2.5750      1.4566     -2.5230
    13         C          4.1200     -0.7283     -3.7844
    14         C          2.5750     -0.7283     -3.7844
    15         C          6.1800      2.1849     -3.7844
    16         C          4.6350      2.1849     -3.7844
    17         C          2.0600      0.7283      1.2615
    18         C          0.5150      0.7283      1.2615
    19         C          4.1200      3.6416      1.2615
    20         C          2.5750      3.6416      1.2615
    21         C          2.0600     -1.4566      0.0000
    22         C          0.5150     -1.4566      0.0000
    23         C          4.1200      1.4566      0.0000
    24         C          2.5750      1.4566      0.0000
    25         C          4.1200     -0.7283     -1.2615
    26         C          2.5750     -0.7283     -1.2615
    27         C          6.1800      2.1849     -1.2615
    28         C          4.6350      2.1849     -1.2615
    29         C          4.1200     -2.9133     -2.5230
    30         C          2.5750     -2.9133     -2.5230
    31         C          6.1800      0.0000     -2.5230
    32         C          4.6350      0.0000     -2.5230
    33         C          2.0600     -1.4566      2.5230
    34         C          0.5150     -1.4566      2.5230
    35         C          4.1200      1.4566      2.5230
    36         C          2.5750      1.4566      2.5230
    37         C          4.1200     -0.7283      1.2615
    38         C          2.5750     -0.7283      1.2615
    39         C          6.1800      2.1849      1.2615
    40         C          4.6350      2.1849      1.2615
    41         C          4.1200     -2.9133      0.0000
    42         C          2.5750     -2.9133      0.0000
    43         C          6.1800      0.0000      0.0000
    44         C          4.6350      0.0000      0.0000
    45         C          6.1800     -2.1849     -1.2615
    46         C          4.6350     -2.1849     -1.2615
    47         C          8.2399      0.7283     -1.2615
    48         C          6.6950      0.7283     -1.2615
    49         C          4.1200     -0.7283      3.7844
    50         C          2.5750     -0.7283      3.7844
    51         C          6.1800      2.1849      3.7844
    52         C          4.6350      2.1849      3.7844
    53         C          4.1200     -2.9133      2.5230
    54         C          2.5750     -2.9133      2.5230
    55         C          6.1800      0.0000      2.5230
    56         C          4.6350      0.0000      2.5230
    57         C          6.1800     -2.1849      1.2615
    58         C          4.6350     -2.1849      1.2615
    59         C          8.2399      0.7283      1.2615
    60         C          6.6950      0.7283      1.2615
    61         C          6.1800     -4.3699      0.0000
    62         C          4.6350     -4.3699      0.0000
    63         C          8.2399     -1.4566      0.0000
    64         C          6.6950     -1.4566      0.0000

 General Reference for PM7:
 "Optimization of Parameters for Semiempirical Methods VI: More Modifications to the 
 NDDO Approximations and Re-optimization of Parameters", J. J. P. Stewart, J. Mol. Mod., 1:32, 19 (2013)
 http://www.springerlink.com/openurl.asp?genre=article&id=doi:10.1007/s00894-012-1667-x

           Empirical Formula: C64  =    64 atoms



      RHF CALCULATION, NO. OF DOUBLY OCCUPIED LEVELS = 128


          Geometry optimization using EF

          DIAGONAL MATRIX USED AS START HESSIAN

   1 a, b, c, alpha, beta, gamma:  3.569  3.569  3.569  90.00  90.01  89.99 Vol:    5.68 Density: 3.510 HoF:     2.851 Grad:   5.16
 CYCLE:     1 TIME:  12.145 TIME LEFT:  2.00D  GRAD.:    41.277 HEAT:  182.4869
   2 a, b, c, alpha, beta, gamma:  3.568  3.568  3.568  90.00  90.00  90.00 Vol:    5.68 Density: 3.513 HoF:     2.851 Grad:   4.85
 CYCLE:     2 TIME:  64.078 TIME LEFT:  2.00D  GRAD.:    38.822 HEAT:  182.4886
   3 a, b, c, alpha, beta, gamma:  3.568  3.568  3.568  90.00  90.00  90.00 Vol:    5.68 Density: 3.512 HoF:     2.851 Grad:   4.33
 CYCLE:     3 TIME:   5.812 TIME LEFT:  2.00D  GRAD.:    34.610 HEAT:  182.4910
   4 a, b, c, alpha, beta, gamma:  3.568  3.568  3.568  90.00  90.00  90.00 Vol:    5.68 Density: 3.512 HoF:     2.851 Grad:   3.93
 CYCLE:     4 TIME:   5.793 TIME LEFT:  2.00D  GRAD.:    31.458 HEAT:  182.4938
   5 a, b, c, alpha, beta, gamma:  3.568  3.568  3.568  90.00  90.00  90.00 Vol:    5.68 Density: 3.512 HoF:     2.852 Grad:   3.61
 CYCLE:     5 TIME:   5.828 TIME LEFT:  2.00D  GRAD.:    28.877 HEAT:  182.4970
   6 a, b, c, alpha, beta, gamma:  3.568  3.568  3.568  90.00  90.00  90.00 Vol:    5.68 Density: 3.512 HoF:     2.852 Grad:   3.34
 CYCLE:     6 TIME:   5.785 TIME LEFT:  2.00D  GRAD.:    26.744 HEAT:  182.5003
   7 a, b, c, alpha, beta, gamma:  3.568  3.568  3.568  90.00  90.00  90.00 Vol:    5.68 Density: 3.511 HoF:     2.852 Grad:   3.09
 CYCLE:     7 TIME:   5.727 TIME LEFT:  2.00D  GRAD.:    24.714 HEAT:  182.5055
   8 a, b, c, alpha, beta, gamma:  3.569  3.569  3.569  89.99  90.00  90.00 Vol:    5.68 Density: 3.511 HoF:     2.852 Grad:   2.70
 CYCLE:     8 TIME:   5.852 TIME LEFT:  2.00D  GRAD.:    21.596 HEAT:  182.5140

     TRUST RADIUS NOW LESS THAN  0.00010 OPTIMIZATION TERMINATING
      THE GEOMETRY MAY NOT BE COMPLETELY OPTIMIZED
      (TO CONTINUE, ADD 'LET DDMIN=0.0' TO THE KEYWORD LINE)

 -------------------------------------------------------------------------------
 MERS=(4,4,4)   BCC SYMMETRY PM7
 Diamond



     GEOMETRY OPTIMISED USING EIGENVECTOR FOLLOWING (EF).     
     SCF FIELD WAS ACHIEVED                                   


                              PM7 CALCULATION
                                                       MOPAC2016 (Version: 19.234L)
                                                       Sat Jul 25 14:47:05 2020




          FINAL HEAT OF FORMATION =        182.48706 KCAL/MOL =     763.52585 KJ/MOL
          H.o.F. per unit cell    =          2.85136 KCAL, for  64 unit cells


          TOTAL ENERGY            =      -7865.43963 EV
          ELECTRONIC ENERGY       =  -49688879.63637 EV
          CORE-CORE REPULSION     =   49681014.19674 EV

          GRADIENT NORM           =         41.27663 = 5.15958 PER ATOM
          IONIZATION POTENTIAL    =          9.888326 EV
          HOMO LUMO ENERGIES (EV) =         -9.888 -0.051
          NO. OF FILLED LEVELS    =        128
          MOLECULAR WEIGHT        =        768.7040
   9 a, b, c, alpha, beta, gamma:  3.568  3.568  3.568  90.00  90.00  90.00 Vol:    5.68 Density: 3.513 HoF:     2.851 Grad:   5.16


          SCF CALCULATIONS        =         21
 
          WALL-CLOCK TIME         =  1 MINUTE AND 59.211 SECONDS
          COMPUTATION TIME        =  3 MINUTES AND 24.329 SECONDS



       FINAL  POINT  AND  DERIVATIVES

   PARAMETER     ATOM    TYPE            VALUE       GRADIENT
      1          1  C    CARTESIAN X     0.000000    -0.007515  KCAL/ANGSTROM
      2          1  C    CARTESIAN Y     0.000000     0.003609  KCAL/ANGSTROM
      3          1  C    CARTESIAN Z     0.000000     0.000150  KCAL/ANGSTROM
      4          2  C    CARTESIAN X    -1.544979     0.011548  KCAL/ANGSTROM
      5          3  C    CARTESIAN X     2.059986    -0.064817  KCAL/ANGSTROM
      6          3  C    CARTESIAN Y     2.913260    -0.006081  KCAL/ANGSTROM
      7          4  C    CARTESIAN X     0.515007     0.055021  KCAL/ANGSTROM
      8          5  C    CARTESIAN Y     0.728315     0.045481  KCAL/ANGSTROM
      9          5  C    CARTESIAN Z    -1.261478     0.114358  KCAL/ANGSTROM
     10          7  C    CARTESIAN X     4.119972   -31.089362  KCAL/ANGSTROM
     11          7  C    CARTESIAN Y     3.641575     0.015640  KCAL/ANGSTROM
     12          8  C    CARTESIAN X     2.574993     0.171954  KCAL/ANGSTROM
     13          9  C    CARTESIAN Y    -1.456630     0.017611  KCAL/ANGSTROM
     14          9  C    CARTESIAN Z    -2.522957     0.110879  KCAL/ANGSTROM
     15         11  C    CARTESIAN Y     1.456630     0.019278  KCAL/ANGSTROM
     16         13  C    CARTESIAN Y    -0.728315    -0.030391  KCAL/ANGSTROM
     17         13  C    CARTESIAN Z    -3.784435     0.123087  KCAL/ANGSTROM
     18         15  C    CARTESIAN X     6.179957    -0.127084  KCAL/ANGSTROM
     19         15  C    CARTESIAN Y     2.184945    -0.062921  KCAL/ANGSTROM
     20         16  C    CARTESIAN X     4.634979     0.085523  KCAL/ANGSTROM
     21         17  C    CARTESIAN Z     1.261478    -0.124335  KCAL/ANGSTROM
     22         29  C    CARTESIAN Y    -2.913260    14.584785  KCAL/ANGSTROM
     23         33  C    CARTESIAN Z     2.522957    -0.110255  KCAL/ANGSTROM
     24         45  C    CARTESIAN Y    -2.184945     0.025043  KCAL/ANGSTROM
     25         47  C    CARTESIAN X     8.239943    -0.033554  KCAL/ANGSTROM
     26         48  C    CARTESIAN X     6.694964     0.033850  KCAL/ANGSTROM
     27         49  C    CARTESIAN Z     3.784435    -0.109583  KCAL/ANGSTROM
     28         61  C    CARTESIAN Y    -4.369890    -0.006939  KCAL/ANGSTROM
     29         65 Tv    CARTESIAN Y     5.826520   -14.583799  KCAL/ANGSTROM
     30         66 Tv    CARTESIAN Z    -5.045914    12.493789  KCAL/ANGSTROM
     31         67 Tv    CARTESIAN Z     5.045914   -12.472475  KCAL/ANGSTROM




   ATOM   CHEMICAL          X               Y               Z
  NUMBER   SYMBOL      (ANGSTROMS)     (ANGSTROMS)     (ANGSTROMS)
 
     1       C          0.00000000  *   0.00000000  *   0.00000000  *
     2       C         -1.54497866  *   0.00000000      0.00000000   
     3       C          2.05998578  *   2.91325979  *   0.00000000   
     4       C          0.51500711  *   2.91325979      0.00000000   
     5       C          2.05998578      0.72831495  *  -1.26147849  *
     6       C          0.51500711      0.72831495     -1.26147849   
     7       C          4.11997155  *   3.64157474  *  -1.26147849   
     8       C          2.57499289  *   3.64157474     -1.26147849   
     9       C          2.05998578     -1.45662989  *  -2.52295699  *
    10       C          0.51500711     -1.45662989     -2.52295699   
    11       C          4.11997155      1.45662989  *  -2.52295699   
    12       C          2.57499289      1.45662989     -2.52295699   
    13       C          4.11997155     -0.72831495  *  -3.78443548  *
    14       C          2.57499289     -0.72831495     -3.78443548   
    15       C          6.17995733  *   2.18494484  *  -3.78443548   
    16       C          4.63497866  *   2.18494484     -3.78443548   
    17       C          2.05998578      0.72831495      1.26147849  *
    18       C          0.51500711      0.72831495      1.26147849   
    19       C          4.11997155      3.64157474      1.26147849   
    20       C          2.57499289      3.64157474      1.26147849   
    21       C          2.05998578     -1.45662989      0.00000000   
    22       C          0.51500711     -1.45662989      0.00000000   
    23       C          4.11997155      1.45662989      0.00000000   
    24       C          2.57499289      1.45662989      0.00000000   
    25       C          4.11997155     -0.72831495     -1.26147849   
    26       C          2.57499289     -0.72831495     -1.26147849   
    27       C          6.17995733      2.18494484     -1.26147849   
    28       C          4.63497866      2.18494484     -1.26147849   
    29       C          4.11997155     -2.91325979  *  -2.52295699   
    30       C          2.57499289     -2.91325979     -2.52295699   
    31       C          6.17995733      0.00000000     -2.52295699   
    32       C          4.63497866      0.00000000     -2.52295699   
    33       C          2.05998578     -1.45662989      2.52295699  *
    34       C          0.51500711     -1.45662989      2.52295699   
    35       C          4.11997155      1.45662989      2.52295699   
    36       C          2.57499289      1.45662989      2.52295699   
    37       C          4.11997155     -0.72831495      1.26147849   
    38       C          2.57499289     -0.72831495      1.26147849   
    39       C          6.17995733      2.18494484      1.26147849   
    40       C          4.63497866      2.18494484      1.26147849   
    41       C          4.11997155     -2.91325979      0.00000000   
    42       C          2.57499289     -2.91325979      0.00000000   
    43       C          6.17995733      0.00000000      0.00000000   
    44       C          4.63497866      0.00000000      0.00000000   
    45       C          6.17995733     -2.18494484  *  -1.26147849   
    46       C          4.63497866     -2.18494484     -1.26147849   
    47       C          8.23994311  *   0.72831495     -1.26147849   
    48       C          6.69496444  *   0.72831495     -1.26147849   
    49       C          4.11997155     -0.72831495      3.78443548  *
    50       C          2.57499289     -0.72831495      3.78443548   
    51       C          6.17995733      2.18494484      3.78443548   
    52       C          4.63497866      2.18494484      3.78443548   
    53       C          4.11997155     -2.91325979      2.52295699   
    54       C          2.57499289     -2.91325979      2.52295699   
    55       C          6.17995733      0.00000000      2.52295699   
    56       C          4.63497866      0.00000000      2.52295699   
    57       C          6.17995733     -2.18494484      1.26147849   
    58       C          4.63497866     -2.18494484      1.26147849   
    59       C          8.23994311      0.72831495      1.26147849   
    60       C          6.69496444      0.72831495      1.26147849   
    61       C          6.17995733     -4.36988968  *   0.00000000   
    62       C          4.63497866     -4.36988968      0.00000000   
    63       C          8.23994311     -1.45662989      0.00000000   
    64       C          6.69496444     -1.45662989      0.00000000   
    65      Tv          4.11997155      5.82651958  *   0.00000000   
    66      Tv          4.11997155     -2.91325979     -5.04591397  *
    67      Tv          4.11997155     -2.91325979      5.04591397  *

                             CARTESIAN COORDINATES

   1    C        0.000000000     0.000000000     0.000000000
   2    C       -1.544978660     0.000000000     0.000000000
   3    C        2.059985780     2.913259790     0.000000000
   4    C        0.515007110     2.913259790     0.000000000
   5    C        2.059985780     0.728314950    -1.261478490
   6    C        0.515007110     0.728314950    -1.261478490
   7    C        4.119971550     3.641574740    -1.261478490
   8    C        2.574992890     3.641574740    -1.261478490
   9    C        2.059985780    -1.456629890    -2.522956990
  10    C        0.515007110    -1.456629890    -2.522956990
  11    C        4.119971550     1.456629890    -2.522956990
  12    C        2.574992890     1.456629890    -2.522956990
  13    C        4.119971550    -0.728314950    -3.784435480
  14    C        2.574992890    -0.728314950    -3.784435480
  15    C        6.179957330     2.184944840    -3.784435480
  16    C        4.634978660     2.184944840    -3.784435480
  17    C        2.059985780     0.728314950     1.261478490
  18    C        0.515007110     0.728314950     1.261478490
  19    C        4.119971550     3.641574740     1.261478490
  20    C        2.574992890     3.641574740     1.261478490
  21    C        2.059985780    -1.456629890     0.000000000
  22    C        0.515007110    -1.456629890     0.000000000
  23    C        4.119971550     1.456629890     0.000000000
  24    C        2.574992890     1.456629890     0.000000000
  25    C        4.119971550    -0.728314950    -1.261478490
  26    C        2.574992890    -0.728314950    -1.261478490
  27    C        6.179957330     2.184944840    -1.261478490
  28    C        4.634978660     2.184944840    -1.261478490
  29    C        4.119971550    -2.913259790    -2.522956990
  30    C        2.574992890    -2.913259790    -2.522956990
  31    C        6.179957330     0.000000000    -2.522956990
  32    C        4.634978660     0.000000000    -2.522956990
  33    C        2.059985780    -1.456629890     2.522956990
  34    C        0.515007110    -1.456629890     2.522956990
  35    C        4.119971550     1.456629890     2.522956990
  36    C        2.574992890     1.456629890     2.522956990
  37    C        4.119971550    -0.728314950     1.261478490
  38    C        2.574992890    -0.728314950     1.261478490
  39    C        6.179957330     2.184944840     1.261478490
  40    C        4.634978660     2.184944840     1.261478490
  41    C        4.119971550    -2.913259790     0.000000000
  42    C        2.574992890    -2.913259790     0.000000000
  43    C        6.179957330     0.000000000     0.000000000
  44    C        4.634978660     0.000000000     0.000000000
  45    C        6.179957330    -2.184944840    -1.261478490
  46    C        4.634978660    -2.184944840    -1.261478490
  47    C        8.239943110     0.728314950    -1.261478490
  48    C        6.694964440     0.728314950    -1.261478490
  49    C        4.119971550    -0.728314950     3.784435480
  50    C        2.574992890    -0.728314950     3.784435480
  51    C        6.179957330     2.184944840     3.784435480
  52    C        4.634978660     2.184944840     3.784435480
  53    C        4.119971550    -2.913259790     2.522956990
  54    C        2.574992890    -2.913259790     2.522956990
  55    C        6.179957330     0.000000000     2.522956990
  56    C        4.634978660     0.000000000     2.522956990
  57    C        6.179957330    -2.184944840     1.261478490
  58    C        4.634978660    -2.184944840     1.261478490
  59    C        8.239943110     0.728314950     1.261478490
  60    C        6.694964440     0.728314950     1.261478490
  61    C        6.179957330    -4.369889680     0.000000000
  62    C        4.634978660    -4.369889680     0.000000000
  63    C        8.239943110    -1.456629890     0.000000000
  64    C        6.694964440    -1.456629890     0.000000000


           Empirical Formula: C64  =    64 atoms



                  EIGENVALUES  
 -37.95827 -34.95658 -34.95623 -34.95609 -34.95603 -34.95579 -34.95554 -30.70366
 -30.70345 -30.70336 -30.70325 -30.70322 -30.70312 -30.69903 -30.69870 -30.69870
 -30.69852 -30.69826 -30.69801 -26.37680 -26.37463 -26.37452 -26.37442 -26.35024
 -26.35012 -26.34992 -26.34978 -23.45513 -23.45505 -23.45493 -23.45297 -23.45288
 -23.45278 -22.02559 -22.02541 -22.02510 -22.02488 -22.02485 -22.02460 -22.02294
 -22.02275 -22.02266 -22.02241 -22.02199 -22.02194 -17.97998 -17.97954 -17.97950
 -17.97942 -17.97937 -17.97902 -17.97658 -17.97623 -17.97599 -17.97585 -17.97568
 -17.97525 -17.49042 -17.49038 -17.49037 -17.49027 -17.49026 -17.49022 -17.48893
 -17.48871 -17.48865 -17.48863 -17.48855 -17.48838 -16.30457 -16.30431 -16.30420
 -16.30417 -16.30389 -16.30366 -16.30250 -16.30229 -16.30220 -16.30199 -16.30193
 -16.30170 -15.68752 -15.68752 -15.68751 -15.68493 -15.68492 -15.68491 -13.52714
 -13.52707 -13.52693 -13.52668 -13.52649 -13.52634 -13.11596 -13.11581 -13.11580
 -13.11566 -13.11553 -13.11545 -13.11540 -13.11535 -13.11530 -13.11520 -13.11518
 -13.11511 -12.34826 -12.34821 -12.34805 -12.34795 -12.34795 -12.34788 -12.34768
 -12.34767 -12.34763 -12.34762 -12.34753 -12.34751 -12.24696 -12.24696 -12.24696
 -12.24506 -12.24505 -12.24503 -12.24487 -12.24484  -9.89100  -9.88838  -9.88833
  -0.05118  -0.04871  -0.04867   0.96131   0.96136   0.96156   0.96175   0.96194
   0.96206   1.56605   1.56605   1.56605   1.56816   1.56817   1.56818   1.56821
   1.56825   1.64873   1.64877   1.64898   1.64907   1.64910   1.64913   1.64942
   1.64946   1.64948   1.64948   1.64958   1.64961   1.88023   1.88038   1.88041
   1.88054   1.88065   1.88073   1.88089   1.88096   1.88103   1.88105   1.88106
   1.88116   1.90176   1.90192   1.90201   1.90205   1.90241   1.90260   1.90346
   1.90364   1.90386   1.90405   1.90425   1.90443   2.59129   2.59350   2.59365
   2.59374   2.62181   2.62188   2.62199   2.62391   2.62402   2.62411   2.78015
   2.78018   2.78020   2.78030   2.78030   2.78037   2.78149   2.78172   2.78178
   2.78182   2.78189   2.78204   2.99601   2.99643   2.99646   2.99652   2.99659
   2.99693   2.99919   2.99953   2.99970   2.99990   3.00003   3.00042   3.09203
   3.09203   3.09204   3.09475   3.09476   3.09477   3.12515   3.24423   3.24444
   3.24475   3.24495   3.24501   3.24527   3.24680   3.24699   3.24711   3.24736
   3.24780   3.24783   3.41369   3.41404   3.41419   3.41425   3.41450   3.41476
   3.61347   3.61365   3.61371   3.61387   3.61388   3.61394   3.61812   3.61845
   3.61846   3.61863   3.61895   3.61916   4.00439   4.00448   4.00467   4.00483


              NET ATOMIC CHARGES AND DIPOLE CONTRIBUTIONS

  ATOM NO.   TYPE          CHARGE      No. of ELECS.   s-Pop       p-Pop       
    1          C          -0.000063        4.0001     1.07267     2.92740
    2          C           0.000046        4.0000     1.07274     2.92722
    3          C          -0.000124        4.0001     1.07266     2.92746
    4          C          -0.000013        4.0000     1.07272     2.92730
    5          C          -0.000062        4.0001     1.07267     2.92739
    6          C           0.000013        4.0000     1.07269     2.92730
    7          C           0.000004        4.0000     1.07270     2.92730
    8          C           0.000040        4.0000     1.07271     2.92725
    9          C          -0.000075        4.0001     1.07268     2.92740
   10          C          -0.000019        4.0000     1.07270     2.92732
   11          C           0.000030        4.0000     1.07269     2.92728
   12          C           0.000082        3.9999     1.07273     2.92718
   13          C           0.000043        4.0000     1.07272     2.92724
   14          C           0.000028        4.0000     1.07272     2.92725
   15          C          -0.000062        4.0001     1.07271     2.92735
   16          C          -0.000074        4.0001     1.07271     2.92737
   17          C          -0.000069        4.0001     1.07266     2.92741
   18          C           0.000003        4.0000     1.07268     2.92731
   19          C           0.000007        4.0000     1.07269     2.92730
   20          C           0.000032        4.0000     1.07270     2.92727
   21          C          -0.000024        4.0000     1.07268     2.92734
   22          C           0.000005        4.0000     1.07267     2.92732
   23          C           0.000067        3.9999     1.07268     2.92725
   24          C           0.000099        3.9999     1.07270     2.92720
   25          C           0.000086        3.9999     1.07268     2.92723
   26          C           0.000039        4.0000     1.07270     2.92726
   27          C          -0.000047        4.0000     1.07266     2.92738
   28          C          -0.000042        4.0000     1.07265     2.92739
   29          C          -0.000008        4.0000     1.07270     2.92731
   30          C           0.000063        3.9999     1.07270     2.92724
   31          C          -0.000032        4.0000     1.07268     2.92735
   32          C          -0.000053        4.0001     1.07265     2.92740
   33          C          -0.000070        4.0001     1.07268     2.92739
   34          C          -0.000048        4.0000     1.07268     2.92736
   35          C           0.000043        4.0000     1.07269     2.92727
   36          C           0.000069        3.9999     1.07271     2.92722
   37          C           0.000094        3.9999     1.07269     2.92722
   38          C           0.000038        4.0000     1.07269     2.92727
   39          C          -0.000024        4.0000     1.07267     2.92736
   40          C          -0.000056        4.0001     1.07265     2.92741
   41          C           0.000012        4.0000     1.07267     2.92732
   42          C           0.000079        3.9999     1.07270     2.92722
   43          C           0.000032        4.0000     1.07267     2.92730
   44          C           0.000041        4.0000     1.07266     2.92730
   45          C          -0.000041        4.0000     1.07269     2.92735
   46          C           0.000009        4.0000     1.07267     2.92732
   47          C           0.000120        3.9999     1.07271     2.92717
   48          C          -0.000074        4.0001     1.07269     2.92739
   49          C           0.000039        4.0000     1.07272     2.92724
   50          C           0.000041        4.0000     1.07271     2.92725
   51          C          -0.000046        4.0000     1.07271     2.92733
   52          C          -0.000080        4.0001     1.07270     2.92738
   53          C           0.000019        4.0000     1.07272     2.92726
   54          C           0.000050        4.0000     1.07270     2.92725
   55          C          -0.000006        4.0000     1.07270     2.92731
   56          C          -0.000054        4.0001     1.07265     2.92740
   57          C          -0.000036        4.0000     1.07270     2.92734
   58          C           0.000008        4.0000     1.07268     2.92731
   59          C           0.000109        3.9999     1.07272     2.92717
   60          C          -0.000077        4.0001     1.07269     2.92738
   61          C          -0.000047        4.0000     1.07273     2.92732
   62          C          -0.000102        4.0001     1.07270     2.92741
   63          C           0.000107        3.9999     1.07275     2.92714
   64          C          -0.000072        4.0001     1.07268     2.92739


          ATOMIC ORBITAL ELECTRON POPULATIONS

     Atom    s        px        py        pz   
    1  C   1.07267   0.97584   0.97577   0.97579
    2  C   1.07274   0.97567   0.97578   0.97577
    3  C   1.07266   0.97577   0.97585   0.97584
    4  C   1.07272   0.97573   0.97585   0.97571
    5  C   1.07267   0.97577   0.97579   0.97583
    6  C   1.07269   0.97576   0.97578   0.97576
    7  C   1.07270   0.97579   0.97574   0.97577
    8  C   1.07271   0.97577   0.97576   0.97572
    9  C   1.07268   0.97575   0.97583   0.97582
   10  C   1.07270   0.97577   0.97576   0.97578
   11  C   1.07269   0.97581   0.97573   0.97574
   12  C   1.07273   0.97575   0.97572   0.97571
   13  C   1.07272   0.97579   0.97571   0.97574
   14  C   1.07272   0.97576   0.97575   0.97574
   15  C   1.07271   0.97572   0.97582   0.97581
   16  C   1.07271   0.97577   0.97584   0.97576
   17  C   1.07266   0.97577   0.97580   0.97584
   18  C   1.07268   0.97576   0.97578   0.97577
   19  C   1.07269   0.97579   0.97574   0.97578
   20  C   1.07270   0.97577   0.97576   0.97574
   21  C   1.07268   0.97574   0.97579   0.97581
   22  C   1.07267   0.97579   0.97575   0.97578
   23  C   1.07268   0.97579   0.97574   0.97573
   24  C   1.07270   0.97576   0.97568   0.97577
   25  C   1.07268   0.97581   0.97569   0.97573
   26  C   1.07270   0.97577   0.97574   0.97575
   27  C   1.07266   0.97577   0.97575   0.97586
   28  C   1.07265   0.97578   0.97582   0.97580
   29  C   1.07270   0.97578   0.97577   0.97576
   30  C   1.07270   0.97576   0.97575   0.97574
   31  C   1.07268   0.97575   0.97581   0.97579
   32  C   1.07265   0.97580   0.97579   0.97581
   33  C   1.07268   0.97576   0.97582   0.97581
   34  C   1.07268   0.97577   0.97575   0.97584
   35  C   1.07269   0.97581   0.97572   0.97574
   36  C   1.07271   0.97576   0.97571   0.97575
   37  C   1.07269   0.97581   0.97569   0.97572
   38  C   1.07269   0.97577   0.97574   0.97576
   39  C   1.07267   0.97576   0.97575   0.97585
   40  C   1.07265   0.97578   0.97582   0.97581
   41  C   1.07267   0.97581   0.97576   0.97575
   42  C   1.07270   0.97575   0.97575   0.97573
   43  C   1.07267   0.97577   0.97576   0.97577
   44  C   1.07266   0.97576   0.97576   0.97577
   45  C   1.07269   0.97576   0.97582   0.97576
   46  C   1.07267   0.97576   0.97576   0.97580
   47  C   1.07271   0.97573   0.97573   0.97571
   48  C   1.07269   0.97577   0.97581   0.97582
   49  C   1.07272   0.97579   0.97572   0.97573
   50  C   1.07271   0.97576   0.97574   0.97575
   51  C   1.07271   0.97572   0.97582   0.97580
   52  C   1.07270   0.97577   0.97583   0.97578
   53  C   1.07272   0.97578   0.97577   0.97571
   54  C   1.07270   0.97576   0.97575   0.97573
   55  C   1.07270   0.97575   0.97582   0.97574
   56  C   1.07265   0.97580   0.97579   0.97580
   57  C   1.07270   0.97576   0.97583   0.97575
   58  C   1.07268   0.97576   0.97577   0.97578
   59  C   1.07272   0.97573   0.97575   0.97569
   60  C   1.07269   0.97577   0.97582   0.97580
   61  C   1.07273   0.97571   0.97583   0.97577
   62  C   1.07270   0.97579   0.97576   0.97585
   63  C   1.07275   0.97572   0.97571   0.97571
   64  C   1.07268   0.97579   0.97578   0.97582

 **********************
 *                    *
 * JOB ENDED NORMALLY *
 *                    *
 **********************



 TOTAL JOB TIME:           119.29 SECONDS

 == MOPAC DONE ==
