
     Program PWSCF v.6.7MaX starts on  8Jul2024 at 19:31:11 

     This program is part of the open-source Quantum ESPRESSO suite
     for quantum simulation of materials; please cite
         "P. Giannozzi et al., J. Phys.:Condens. Matter 21 395502 (2009);
         "P. Giannozzi et al., J. Phys.:Condens. Matter 29 465901 (2017);
          URL http://www.quantum-espresso.org", 
     in publications or presentations arising from this work. More details at
     http://www.quantum-espresso.org/quote

     Parallel version (MPI), running on     4 processors

     MPI processes distributed on     1 nodes
     R & G space division:  proc/nbgrp/npool/nimage =       4
     Waiting for input...
     Reading input from standard input

     Current dimensions of program PWSCF are:
     Max number of different atomic species (ntypx) = 10
     Max number of k-points (npk) =  40000
     Max angular momentum in pseudopotentials (lmaxx) =  3
     Message from routine read_pp_mesh:
     mesh size missing, using the one in header

     Subspace diagonalization in iterative solution of the eigenvalue problem:
     one sub-group per band group will be used
     scalapack distributed-memory algorithm (size of sub-group:  2*  2 procs)


     Parallelization info
     --------------------
     sticks:   dense  smooth     PW     G-vecs:    dense   smooth      PW
     Min          70      70     24                  784      784     161
     Max          71      71     25                  787      787     162
     Sum         283     283     97                 3143     3143     645



     bravais-lattice index     =            2
     lattice parameter (alat)  =      10.2000  a.u.
     unit-cell volume          =     265.3020 (a.u.)^3
     number of atoms/cell      =            2
     number of atomic types    =            1
     number of electrons       =         8.00
     number of Kohn-Sham states=            4
     kinetic-energy cutoff     =      20.0000  Ry
     charge density cutoff     =      80.0000  Ry
     scf convergence threshold =      1.0E-06
     mixing beta               =       0.7000
     number of iterations used =            8  plain     mixing
     Exchange-correlation= PBE
                           (   1   4   3   4   0   0   0)

     celldm(1)=  10.200000  celldm(2)=   0.000000  celldm(3)=   0.000000
     celldm(4)=   0.000000  celldm(5)=   0.000000  celldm(6)=   0.000000

     crystal axes: (cart. coord. in units of alat)
               a(1) = (  -0.500000   0.000000   0.500000 )  
               a(2) = (   0.000000   0.500000   0.500000 )  
               a(3) = (  -0.500000   0.500000   0.000000 )  

     reciprocal axes: (cart. coord. in units 2 pi/alat)
               b(1) = ( -1.000000 -1.000000  1.000000 )  
               b(2) = (  1.000000  1.000000  1.000000 )  
               b(3) = ( -1.000000  1.000000 -1.000000 )  


     PseudoPot. # 1 for Si read from file:
     /usr/share/espresso/pseudo/Si_r.upf
     MD5 check sum: c84abb4b0aac9c93a8e9f74896432a0a
     Pseudo is Norm-conserving + core correction, Zval =  4.0
     Generated using ONCVPSP code by D. R. Hamann
     Using radial grid of 1528 points,  6 beta functions with: 
                l(1) =   0
                l(2) =   0
                l(3) =   1
                l(4) =   1
                l(5) =   2
                l(6) =   2

     atomic species   valence    mass     pseudopotential
        Si             4.00    28.08600     Si( 1.00)

     48 Sym. Ops., with inversion, found (24 have fractional translation)



   Cartesian axes

     site n.     atom                  positions (alat units)
         1           Si  tau(   1) = (   0.0000000   0.0000000   0.0000000  )
         2           Si  tau(   2) = (   0.2500000   0.2500000   0.2500000  )

     number of k points=    72
                       cart. coord. in units 2pi/alat
        k(    1) = (   0.0000000   0.0000000   0.0000000), wk =   0.0011574
        k(    2) = (  -0.0833333   0.0833333  -0.0833333), wk =   0.0092593
        k(    3) = (  -0.1666667   0.1666667  -0.1666667), wk =   0.0092593
        k(    4) = (  -0.2500000   0.2500000  -0.2500000), wk =   0.0092593
        k(    5) = (  -0.3333333   0.3333333  -0.3333333), wk =   0.0092593
        k(    6) = (  -0.4166667   0.4166667  -0.4166667), wk =   0.0092593
        k(    7) = (   0.5000000  -0.5000000   0.5000000), wk =   0.0046296
        k(    8) = (   0.0000000   0.1666667   0.0000000), wk =   0.0069444
        k(    9) = (  -0.0833333   0.2500000  -0.0833333), wk =   0.0277778
        k(   10) = (  -0.1666667   0.3333333  -0.1666667), wk =   0.0277778
        k(   11) = (  -0.2500000   0.4166667  -0.2500000), wk =   0.0277778
        k(   12) = (  -0.3333333   0.5000000  -0.3333333), wk =   0.0277778
        k(   13) = (   0.5833333  -0.4166667   0.5833333), wk =   0.0277778
        k(   14) = (   0.5000000  -0.3333333   0.5000000), wk =   0.0277778
        k(   15) = (   0.4166667  -0.2500000   0.4166667), wk =   0.0277778
        k(   16) = (   0.3333333  -0.1666667   0.3333333), wk =   0.0277778
        k(   17) = (   0.2500000  -0.0833333   0.2500000), wk =   0.0277778
        k(   18) = (   0.1666667  -0.0000000   0.1666667), wk =   0.0138889
        k(   19) = (   0.0000000   0.3333333   0.0000000), wk =   0.0069444
        k(   20) = (  -0.0833333   0.4166667  -0.0833333), wk =   0.0277778
        k(   21) = (  -0.1666667   0.5000000  -0.1666667), wk =   0.0277778
        k(   22) = (  -0.2500000   0.5833333  -0.2500000), wk =   0.0277778
        k(   23) = (   0.6666667  -0.3333333   0.6666667), wk =   0.0277778
        k(   24) = (   0.5833333  -0.2500000   0.5833333), wk =   0.0277778
        k(   25) = (   0.5000000  -0.1666667   0.5000000), wk =   0.0277778
        k(   26) = (   0.4166667  -0.0833333   0.4166667), wk =   0.0277778
        k(   27) = (   0.3333333   0.0000000   0.3333333), wk =   0.0138889
        k(   28) = (   0.0000000   0.5000000   0.0000000), wk =   0.0069444
        k(   29) = (  -0.0833333   0.5833333  -0.0833333), wk =   0.0277778
        k(   30) = (  -0.1666667   0.6666667  -0.1666667), wk =   0.0277778
        k(   31) = (   0.7500000  -0.2500000   0.7500000), wk =   0.0277778
        k(   32) = (   0.6666667  -0.1666667   0.6666667), wk =   0.0277778
        k(   33) = (   0.5833333  -0.0833333   0.5833333), wk =   0.0277778
        k(   34) = (   0.5000000   0.0000000   0.5000000), wk =   0.0138889
        k(   35) = (   0.0000000   0.6666667   0.0000000), wk =   0.0069444
        k(   36) = (  -0.0833333   0.7500000  -0.0833333), wk =   0.0277778
        k(   37) = (   0.8333333  -0.1666667   0.8333333), wk =   0.0277778
        k(   38) = (   0.7500000  -0.0833333   0.7500000), wk =   0.0277778
        k(   39) = (   0.6666667  -0.0000000   0.6666667), wk =   0.0138889
        k(   40) = (   0.0000000   0.8333333   0.0000000), wk =   0.0069444
        k(   41) = (   0.9166667  -0.0833333   0.9166667), wk =   0.0277778
        k(   42) = (   0.8333333   0.0000000   0.8333333), wk =   0.0138889
        k(   43) = (   0.0000000  -1.0000000   0.0000000), wk =   0.0034722
        k(   44) = (  -0.1666667   0.3333333   0.0000000), wk =   0.0277778
        k(   45) = (  -0.2500000   0.4166667  -0.0833333), wk =   0.0555556
        k(   46) = (  -0.3333333   0.5000000  -0.1666667), wk =   0.0555556
        k(   47) = (   0.5833333  -0.4166667   0.7500000), wk =   0.0555556
        k(   48) = (   0.5000000  -0.3333333   0.6666667), wk =   0.0277778
        k(   49) = (  -0.1666667   0.5000000   0.0000000), wk =   0.0277778
        k(   50) = (  -0.2500000   0.5833333  -0.0833333), wk =   0.0555556
        k(   51) = (   0.6666667  -0.3333333   0.8333333), wk =   0.0555556
        k(   52) = (   0.5833333  -0.2500000   0.7500000), wk =   0.0555556
        k(   53) = (   0.5000000  -0.1666667   0.6666667), wk =   0.0555556
        k(   54) = (   0.4166667  -0.0833333   0.5833333), wk =   0.0555556
        k(   55) = (   0.3333333   0.0000000   0.5000000), wk =   0.0277778
        k(   56) = (  -0.1666667   0.6666667  -0.0000000), wk =   0.0277778
        k(   57) = (   0.7500000  -0.2500000   0.9166667), wk =   0.0555556
        k(   58) = (   0.6666667  -0.1666667   0.8333333), wk =   0.0555556
        k(   59) = (   0.5833333  -0.0833333   0.7500000), wk =   0.0555556
        k(   60) = (   0.5000000   0.0000000   0.6666667), wk =   0.0277778
        k(   61) = (   0.8333333  -0.1666667   1.0000000), wk =   0.0277778
        k(   62) = (   0.7500000  -0.0833333   0.9166667), wk =   0.0555556
        k(   63) = (   0.6666667   0.0000000   0.8333333), wk =   0.0277778
        k(   64) = (  -0.1666667  -1.0000000  -0.0000000), wk =   0.0138889
        k(   65) = (   0.6666667  -0.3333333   1.0000000), wk =   0.0277778
        k(   66) = (   0.5833333  -0.2500000   0.9166667), wk =   0.0555556
        k(   67) = (   0.5000000  -0.1666667   0.8333333), wk =   0.0277778
        k(   68) = (   0.6666667  -0.1666667   1.0000000), wk =   0.0277778
        k(   69) = (   0.5833333  -0.0833333   0.9166667), wk =   0.0555556
        k(   70) = (   0.5000000   0.0000000   0.8333333), wk =   0.0277778
        k(   71) = (  -0.3333333  -1.0000000   0.0000000), wk =   0.0138889
        k(   72) = (  -0.5000000  -1.0000000   0.0000000), wk =   0.0069444

     Dense  grid:     3143 G-vectors     FFT dimensions: (  24,  24,  24)

     Estimated max dynamical RAM per process >       1.81 MB

     Estimated total dynamical RAM >       7.25 MB

     Initial potential from superposition of free atoms

     starting charge    7.99877, renormalised to    8.00000
     Starting wfcs are    8 randomized atomic wfcs

     total cpu time spent up to now is        0.1 secs

     Self-consistent Calculation

     iteration #  1     ecut=    20.00 Ry     beta= 0.70
     Davidson diagonalization with overlap
     ethr =  1.00E-02,  avg # of iterations =  2.0

     Threshold (ethr) on eigenvalues was too large:
     Diagonalizing with lowered threshold

     Davidson diagonalization with overlap
     ethr =  5.90E-04,  avg # of iterations =  2.0

     total cpu time spent up to now is        0.3 secs

     total energy              =     -16.91913695 Ry
     estimated scf accuracy    <       0.05518337 Ry

     iteration #  2     ecut=    20.00 Ry     beta= 0.70
     Davidson diagonalization with overlap
     ethr =  6.90E-04,  avg # of iterations =  1.0

     total cpu time spent up to now is        0.4 secs

     total energy              =     -16.92079047 Ry
     estimated scf accuracy    <       0.00286947 Ry

     iteration #  3     ecut=    20.00 Ry     beta= 0.70
     Davidson diagonalization with overlap
     ethr =  3.59E-05,  avg # of iterations =  2.2

     total cpu time spent up to now is        0.6 secs

     total energy              =     -16.92139147 Ry
     estimated scf accuracy    <       0.00006687 Ry

     iteration #  4     ecut=    20.00 Ry     beta= 0.70
     Davidson diagonalization with overlap
     ethr =  8.36E-07,  avg # of iterations =  4.6

     total cpu time spent up to now is        0.7 secs

     End of self-consistent calculation

          k = 0.0000 0.0000 0.0000 (   411 PWs)   bands (ev):

    -5.6679   6.4341   6.4341   6.4341

          k =-0.0833 0.0833-0.0833 (   402 PWs)   bands (ev):

    -5.5753   5.5691   6.2862   6.2862

          k =-0.1667 0.1667-0.1667 (   387 PWs)   bands (ev):

    -5.3007   4.0280   5.9719   5.9719

          k =-0.2500 0.2500-0.2500 (   395 PWs)   bands (ev):

    -4.8554   2.4599   5.6555   5.6555

          k =-0.3333 0.3333-0.3333 (   401 PWs)   bands (ev):

    -4.2680   1.0307   5.4106   5.4106

          k =-0.4167 0.4167-0.4167 (   404 PWs)   bands (ev):

    -3.6340  -0.1200   5.2599   5.2599

          k = 0.5000-0.5000 0.5000 (   392 PWs)   bands (ev):

    -3.2893  -0.6373   5.2100   5.2100

          k = 0.0000 0.1667 0.0000 (   399 PWs)   bands (ev):

    -5.5443   5.7491   5.9908   5.9908

          k =-0.0833 0.2500-0.0833 (   390 PWs)   bands (ev):

    -5.3298   4.4941   5.6183   5.8216

          k =-0.1667 0.3333-0.1667 (   390 PWs)   bands (ev):

    -4.9399   2.9689   5.2984   5.4926

          k =-0.2500 0.4167-0.2500 (   399 PWs)   bands (ev):

    -4.3948   1.5090   5.0849   5.1331

          k =-0.3333 0.5000-0.3333 (   406 PWs)   bands (ev):

    -3.7568   0.2569   4.8309   4.9945

          k = 0.5833-0.4167 0.5833 (   401 PWs)   bands (ev):

    -3.2531  -0.5298   4.6217   5.0272

          k = 0.5000-0.3333 0.5000 (   402 PWs)   bands (ev):

    -3.3775  -0.3477   4.5231   5.1739

          k = 0.4167-0.2500 0.4167 (   403 PWs)   bands (ev):

    -3.9733   0.6443   4.5487   5.4189

          k = 0.3333-0.1667 0.3333 (   396 PWs)   bands (ev):

    -4.5926   1.9812   4.7087   5.7361

          k = 0.2500-0.0833 0.2500 (   389 PWs)   bands (ev):

    -5.0893   3.4639   5.0156   6.0735

          k = 0.1667-0.0000 0.1667 (   385 PWs)   bands (ev):

    -5.4216   4.8374   5.5458   6.3147

          k = 0.0000 0.3333 0.0000 (   399 PWs)   bands (ev):

    -5.1762   4.4015   5.2094   5.2094

          k =-0.0833 0.4167-0.0833 (   397 PWs)   bands (ev):

    -4.8439   3.2929   4.8622   4.8683

          k =-0.1667 0.5000-0.1667 (   398 PWs)   bands (ev):

    -4.3477   1.9564   4.4052   4.6460

          k =-0.2500 0.5833-0.2500 (   400 PWs)   bands (ev):

    -3.7284   0.6980   3.9593   4.5615

          k = 0.6667-0.3333 0.6667 (   403 PWs)   bands (ev):

    -3.1314  -0.2563   3.6085   4.6171

          k = 0.5833-0.2500 0.5833 (   398 PWs)   bands (ev):

    -3.0132  -0.4204   3.3895   4.8055

          k = 0.5000-0.1667 0.5000 (   404 PWs)   bands (ev):

    -3.5255   0.3558   3.3284   5.1072

          k = 0.4167-0.0833 0.4167 (   402 PWs)   bands (ev):

    -4.1622   1.5256   3.4702   5.4840

          k = 0.3333 0.0000 0.3333 (   397 PWs)   bands (ev):

    -4.7032   2.6877   3.9647   5.8572

          k = 0.0000 0.5000 0.0000 (   415 PWs)   bands (ev):

    -4.5696   2.9073   4.4982   4.4983

          k =-0.0833 0.5833-0.0833 (   407 PWs)   bands (ev):

    -4.1256   1.9819   4.0254   4.2479

          k =-0.1667 0.6667-0.1667 (   402 PWs)   bands (ev):

    -3.5401   0.9330   3.3830   4.1392

          k = 0.7500-0.2500 0.7500 (   404 PWs)   bands (ev):

    -2.9030  -0.0137   2.8276   4.1791

          k = 0.6667-0.1667 0.6667 (   401 PWs)   bands (ev):

    -2.5697  -0.4397   2.4577   4.3632

          k = 0.5833-0.0833 0.5833 (   401 PWs)   bands (ev):

    -2.9550   0.0665   2.3328   4.6746

          k = 0.5000 0.0000 0.5000 (   407 PWs)   bands (ev):

    -3.5900   0.9046   2.5987   5.0755

          k = 0.0000 0.6667 0.0000 (   399 PWs)   bands (ev):

    -3.7334   1.3940   3.9617   3.9617

          k =-0.0833 0.7500-0.0833 (   405 PWs)   bands (ev):

    -3.1904   0.5952   3.4644   3.8165

          k = 0.8333-0.1667 0.8333 (   402 PWs)   bands (ev):

    -2.5492  -0.1862   2.7196   3.8231

          k = 0.7500-0.0833 0.7500 (   400 PWs)   bands (ev):

    -2.0678  -0.6887   2.1277   3.9801

          k = 0.6667-0.0000 0.6667 (   403 PWs)   bands (ev):

    -2.3451  -0.3994   1.9216   4.2745

          k = 0.0000 0.8333 0.0000 (   404 PWs)   bands (ev):

    -2.6878  -0.0808   3.6309   3.6309

          k = 0.9167-0.0833 0.9167 (   405 PWs)   bands (ev):

    -2.0639  -0.7794   3.1880   3.5968

          k = 0.8333 0.0000 0.8333 (   405 PWs)   bands (ev):

    -1.5960  -1.1918   2.5001   3.7161

          k = 0.0000-1.0000 0.0000 (   388 PWs)   bands (ev):

    -1.4569  -1.4569   3.5196   3.5196

          k =-0.1667 0.3333 0.0000 (   387 PWs)   bands (ev):

    -5.0568   3.6923   4.7587   5.7149

          k =-0.2500 0.4167-0.0833 (   392 PWs)   bands (ev):

    -4.6134   2.4297   4.2210   5.4323

          k =-0.3333 0.5000-0.1667 (   399 PWs)   bands (ev):

    -4.0281   1.1034   3.9518   5.0961

          k = 0.5833-0.4167 0.7500 (   399 PWs)   bands (ev):

    -3.3930  -0.0080   3.8262   4.8426

          k = 0.5000-0.3333 0.6667 (   396 PWs)   bands (ev):

    -3.0449  -0.5185   3.7917   4.7483

          k =-0.1667 0.5000 0.0000 (   403 PWs)   bands (ev):

    -4.4568   2.4920   4.0495   4.7709

          k =-0.2500 0.5833-0.0833 (   404 PWs)   bands (ev):

    -3.9151   1.4222   3.5060   4.4742

          k = 0.6667-0.3333 0.8333 (   405 PWs)   bands (ev):

    -3.2774   0.3452   3.1482   4.2573

          k = 0.5833-0.2500 0.7500 (   402 PWs)   bands (ev):

    -2.7678  -0.3786   2.8998   4.2386

          k = 0.5000-0.1667 0.6667 (   402 PWs)   bands (ev):

    -2.9071  -0.1868   2.7772   4.4158

          k = 0.4167-0.0833 0.5833 (   404 PWs)   bands (ev):

    -3.5108   0.7104   2.8473   4.7407

          k = 0.3333 0.0000 0.5000 (   400 PWs)   bands (ev):

    -4.1243   1.7081   3.2658   5.1327

          k =-0.1667 0.6667-0.0000 (   407 PWs)   bands (ev):

    -3.6335   1.2137   3.5303   3.9662

          k = 0.7500-0.2500 0.9167 (   405 PWs)   bands (ev):

    -3.0167   0.3644   2.9307   3.7438

          k = 0.6667-0.1667 0.8333 (   401 PWs)   bands (ev):

    -2.4139  -0.3657   2.3993   3.7524

          k = 0.5833-0.0833 0.7500 (   397 PWs)   bands (ev):

    -2.3395  -0.4396   2.1038   3.9556

          k = 0.5000 0.0000 0.6667 (   401 PWs)   bands (ev):

    -2.8892   0.1616   2.1913   4.3087

          k = 0.8333-0.1667 1.0000 (   406 PWs)   bands (ev):

    -2.6087  -0.1169   3.2409   3.4400

          k = 0.7500-0.0833 0.9167 (   402 PWs)   bands (ev):

    -1.9670  -0.7698   2.5958   3.3957

          k = 0.6667 0.0000 0.8333 (   405 PWs)   bands (ev):

    -1.8054  -0.8879   2.0855   3.5970

          k =-0.1667-1.0000-0.0000 (   406 PWs)   bands (ev):

    -1.4181  -1.4181   3.2043   3.2043

          k = 0.6667-0.3333 1.0000 (   407 PWs)   bands (ev):

    -3.3411   0.7454   2.7852   4.0847

          k = 0.5833-0.2500 0.9167 (   402 PWs)   bands (ev):

    -2.7040  -0.0381   2.4333   3.7390

          k = 0.5000-0.1667 0.8333 (   400 PWs)   bands (ev):

    -2.3343  -0.4781   2.3403   3.6063

          k = 0.6667-0.1667 1.0000 (   400 PWs)   bands (ev):

    -2.3887  -0.2626   2.5810   3.2095

          k = 0.5833-0.0833 0.9167 (   401 PWs)   bands (ev):

    -1.8540  -0.7774   2.2566   3.0522

          k = 0.5000 0.0000 0.8333 (   401 PWs)   bands (ev):

    -2.0894  -0.5449   2.1292   3.2825

          k =-0.3333-1.0000 0.0000 (   398 PWs)   bands (ev):

    -1.3318  -1.3318   2.7048   2.7048

          k =-0.5000-1.0000 0.0000 (   396 PWs)   bands (ev):

    -1.2852  -1.2852   2.4911   2.4911

     highest occupied level (ev):     6.4341

!    total energy              =     -16.92146588 Ry
     estimated scf accuracy    <       0.00000029 Ry

     The total energy is the sum of the following terms:
     one-electron contribution =       5.10393192 Ry
     hartree contribution      =       1.07855819 Ry
     xc contribution           =      -6.20419740 Ry
     ewald contribution        =     -16.89975859 Ry

     convergence has been achieved in   4 iterations

     Writing output data file ./si.save/

     init_run     :      0.04s CPU      0.05s WALL (       1 calls)
     electrons    :      0.42s CPU      0.61s WALL (       1 calls)

     Called by init_run:
     wfcinit      :      0.04s CPU      0.05s WALL (       1 calls)
     potinit      :      0.00s CPU      0.00s WALL (       1 calls)
     hinit0       :      0.00s CPU      0.00s WALL (       1 calls)

     Called by electrons:
     c_bands      :      0.39s CPU      0.56s WALL (       5 calls)
     sum_band     :      0.03s CPU      0.04s WALL (       5 calls)
     v_of_rho     :      0.00s CPU      0.00s WALL (       5 calls)
     mix_rho      :      0.00s CPU      0.00s WALL (       5 calls)

     Called by c_bands:
     init_us_2    :      0.01s CPU      0.01s WALL (     792 calls)
     cegterg      :      0.33s CPU      0.37s WALL (     360 calls)

     Called by *egterg:
     cdiaghg      :      0.09s CPU      0.11s WALL (    1140 calls)
     h_psi        :      0.22s CPU      0.24s WALL (    1284 calls)
     g_psi        :      0.00s CPU      0.00s WALL (     852 calls)

     Called by h_psi:
     h_psi:calbec :      0.01s CPU      0.01s WALL (    1284 calls)
     vloc_psi     :      0.19s CPU      0.21s WALL (    1284 calls)
     add_vuspsi   :      0.01s CPU      0.01s WALL (    1284 calls)

     General routines
     calbec       :      0.01s CPU      0.01s WALL (    1284 calls)
     fft          :      0.00s CPU      0.00s WALL (      51 calls)
     ffts         :      0.00s CPU      0.00s WALL (       5 calls)
     fftw         :      0.19s CPU      0.21s WALL (   10920 calls)

     Parallel routines
     fft_scatt_xy :      0.03s CPU      0.03s WALL (   10976 calls)
     fft_scatt_yz :      0.04s CPU      0.05s WALL (   10976 calls)

     PWSCF        :      0.54s CPU      0.86s WALL


   This run was terminated on:  19:31:12   8Jul2024            

=------------------------------------------------------------------------------=
   JOB DONE.
=------------------------------------------------------------------------------=
