

 Parallel Execution: Process Information
 ==============================================================================
 Rank   Node Name                              NodeID   MyNodeRank  NodeMaster
    0   ubuntu-kch                                0          0          0
    1   ubuntu-kch                                0          1         -1
    2   ubuntu-kch                                0          2         -1
    3   ubuntu-kch                                0          3         -1
 ==============================================================================


May use up to 7570MB of RAM as shared memory on node 0

 *******************************************************************************
 *                                                                             *
 *  --------------------------------                                           *
 *   Amsterdam Modeling Suite (AMS)              2020.202                      *
 *  --------------------------------                                           *
 *                                               r90167 2020-12-05             *
 *                                                                             *
 *                                                                             *
 *                              =================                              *
 *                              |               |                              *
 *                              |     A M S     |                              *
 *                              |               |                              *
 *                              =================                              *
 *                                                                             *
 *                                                                             *
 *   Online information and documentation:  https://www.scm.com/support/       *
 *   E-mail:  support@scm.com   info@scm.com                                   *
 *                                                                             *
 *   Scientific publications using AMS results must be properly referenced     *
 *   See the User Manuals (or the web site) for recommended citations          *
 *   The terms and conditions of the End User License Agreement apply to       *
 *   the use of AMS, https://www.scm.com/license-terms/                        *
 *                                                                             *
 **********************  x86_64_linux_intel / intelmpi  ************************
 
 Licensed to: Dr. Miroslav Ilias / Matej Bel University, Department Chemistry, Fac. Natural Sciences / Banska Bystrica / SLOVAKIA
 SCM User ID: u17848
  
 AMS 2020.202  RunTime: Feb08-2021 17:49:01  Nodes: 1  Procs: 4

 AMS jobname: ams
 AMS jobid  : 1632212401

 Start   directory: /home/milias/work/projects/open-collection/theoretical_chemistry/projects/nmr_diplomovky/HD/ams/pbe0_tz2p_good/no_solvent/tmp.milias.762968.0.noindex/
 Results directory: /home/milias/work/projects/open-collection/theoretical_chemistry/projects/nmr_diplomovky/HD/ams/pbe0_tz2p_good/no_solvent/HD.geopt_freq_nmr_shield_pbe0_tz2p_good.results/
 Scratch directory: /tmp/amstmp_ams_kid0.1632212401/


 Communication costs MPI_COMM_WORLD:      0.268 usec per message,   0.0034 usec per 8-byte item
 Communication costs for intra-node:      0.261 usec per message,   0.0106 usec per 8-byte item

 RNG seed: 1433570677 1444227252 -210550172 607055992 1726197840 1776689231 1348556762 2052494526



                        ********************************************************************
                        *  ADF 2020.202  RunTime: Feb08-2021 17:49:02  Nodes: 1  Procs: 4  *
                        ********************************************************************
  
       ***************************
       *  GEOMETRY OPTIMIZATION  *
       ***************************

Optimization Method                    Quasi Newton
Optimization Coordinates               Delocalized Coordinates
Optimize lattice                       F
 
 ------------------------------------------------------
 Convergence criteria (Hartree,Angstrom)
 ------------------------------------------------------
 Maximum gradient               0.001000000000
 Maximum rms gradient           0.000666666667
 Maximum step allowed           0.001000000000
 Maximum rms step allowed       0.000666666667
 Maximum energy change allowe   0.000150000000
 Maximum stress energy allowe   0.000500000000
 
Initial model Hessian                  Automatic Hessian
 
------------------------------------
Quasi-Newton Optimizer Parameters
------------------------------------
Hessian Update Method                  BFGS
Maximum number of steps                  250
First GDIIS cycle                          0
Maximum GDIIS vectors                      0
Trust radius (bohr)                        0.200000
Trust radius varies                        T
Constraints converged at all steps         T
Use projector                              T
 
 Rigid motions settings for: old optimizer
 Atomic rotations (x,y,z):     T T T
 Atomic translations (x,y,z):  T T T
 Tolerance:                   1.000000000000000E-006
 
--------
Geometry
--------
Atoms
  Index Symbol   x (angstrom)   y (angstrom)   z (angstrom)
      1      S     0.00000000    -0.00000000    -0.96270310
      2      C     1.37539800    -0.00000000     0.21759479
      3      H     1.30859250     0.88826987     0.84667183
      4      H     1.30859250    -0.88826987     0.84667183
      5      C     2.66969601    -0.00000000    -0.55831387
      6      H     2.76938648     0.88788554    -1.17805410
      7      H     2.76938648    -0.88788554    -1.17805410
      8      C    -1.37539800     0.00000000     0.21759479
      9      H    -1.30859250    -0.88826987     0.84667183
     10      H    -1.30859250     0.88826987     0.84667183
     11      C    -2.66969601     0.00000000    -0.55831387
     12      H    -2.76938648     0.88788554    -1.17805410
     13      H    -2.76938648    -0.88788554    -1.17805410
     14     Cl     4.06608205    -0.00000000     0.56288473
     15     Cl    -4.06608205     0.00000000     0.56288473
 
Total System Charge             0.00000
Bonding info available!
 
 
----------------
ADF Engine Input
----------------
 
 Basis
 Type TZ2P
 Core None
 End
 Save TAPE10
 XC
 Hybrid PBE0
 End
 Relativity
 Level None
 End
 NumericalQuality Good
 

 Title: *** (NO TITLE) ***

Number of symmetry operators: 4
Schoenflies symbol:           C(2V)
 Using automatic Hessian for delocalized coordinates.
 *** GOStep1 ***



 ======================
 RI Hartree-Fock Scheme
 ======================
  
 Fit Set Quality     : GOOD
 Integration Quality : GOOD
 Threshold Quality   : GOOD
 Response Quality    : DEFAULT
 Is Range Separated  :  F
 
 RIHartreeFock Dependency: number of modified vectors:          12
  
 Hartree-Fock exchange energy:   -103.688046681919     
  pauli hf:                              1.356138171688514         36.9024           850.99          3560.54
  elstat hf:                            -1.320656241504555        -35.9369          -828.72         -3467.38

 Energy gradients wrt nuclear displacements
 ==========================================

     Atom      Cartesian (a.u./angstrom)
                 X         Y         Z
 ----------------------------------------
     1 S     0.000000  0.000000  0.000925
     2 C     0.002787  0.000000  0.002807
     3 H    -0.001235  0.000003 -0.000758
     4 H    -0.001235 -0.000003 -0.000758
     5 C    -0.004749  0.000000 -0.005292
     6 H     0.001039 -0.000276  0.000780
     7 H     0.001039  0.000276  0.000780
     8 C    -0.002787  0.000000  0.002807
     9 H     0.001235 -0.000003 -0.000758
    10 H     0.001235  0.000003 -0.000758
    11 C     0.004749  0.000000 -0.005292
    12 H    -0.001039 -0.000276  0.000780
    13 H    -0.001039  0.000276  0.000780
    14 Cl    0.002368  0.000000  0.001978
    15 Cl   -0.002368  0.000000  0.001978
 ----------------------------------------
 Mulliken charges used for AMS results%charges...
 
----------------------------------------------------------------------
Geometry Convergence after Step   1       (Hartree/Angstrom,Angstrom)
----------------------------------------------------------------------
current energy                               -3.34398967 Hartree
energy change                      -3.34398967     0.00015000    F
constrained gradient max            0.00529229     0.00100000    F
constrained gradient rms            0.00193086     0.00066667    F
gradient max                        0.00529229
gradient rms                        0.00193086
cart. step max                      0.00494151     0.00100000    F
cart. step rms                      0.00231476     0.00066667    F
 
 
--------
Geometry
--------
Atoms
  Index Symbol   x (angstrom)   y (angstrom)   z (angstrom)
      1      S     0.00000000    -0.00000000    -0.96242360
      2      C     1.37566773    -0.00000000     0.21781289
      3      H     1.31353401     0.88774900     0.84845129
      4      H     1.31353401    -0.88774900     0.84845129
      5      C     2.67021197    -0.00000000    -0.55700000
      6      H     2.76498861     0.88748734    -1.17864192
      7      H     2.76498861    -0.88748734    -1.17864192
      8      C    -1.37566773     0.00000000     0.21781289
      9      H    -1.31353401    -0.88774900     0.84845129
     10      H    -1.31353401     0.88774900     0.84845129
     11      C    -2.67021197     0.00000000    -0.55700000
     12      H    -2.76498861     0.88748734    -1.17864192
     13      H    -2.76498861    -0.88748734    -1.17864192
     14     Cl     4.06864319    -0.00000000     0.55882975
     15     Cl    -4.06864319     0.00000000     0.55882975
 
Total System Charge             0.00000
Bonding info available!
 
 *** GOStep2 ***



 ======================
 RI Hartree-Fock Scheme
 ======================
  
 Fit Set Quality     : GOOD
 Integration Quality : GOOD
 Threshold Quality   : GOOD
 Response Quality    : DEFAULT
 Is Range Separated  :  F
 
 RIHartreeFock Dependency: number of modified vectors:          12
  
 Hartree-Fock exchange energy:   -103.688327722194     
  pauli hf:                              1.358926152052785         36.9783           852.74          3567.86
  elstat hf:                            -1.321234265462810        -35.9526          -829.09         -3468.90

 Energy gradients wrt nuclear displacements
 ==========================================

     Atom      Cartesian (a.u./angstrom)
                 X         Y         Z
 ----------------------------------------
     1 S     0.000000  0.000000 -0.000664
     2 C     0.001545  0.000000  0.000995
     3 H    -0.000241 -0.000038 -0.000411
     4 H    -0.000241  0.000038 -0.000411
     5 C    -0.003347  0.000000 -0.002402
     6 H     0.000283 -0.000144  0.000478
     7 H     0.000283  0.000144  0.000478
     8 C    -0.001545 -0.000000  0.000995
     9 H     0.000241  0.000038 -0.000411
    10 H     0.000241 -0.000038 -0.000411
    11 C     0.003347  0.000000 -0.002402
    12 H    -0.000283 -0.000144  0.000478
    13 H    -0.000283  0.000144  0.000478
    14 Cl    0.002316  0.000000  0.001605
    15 Cl   -0.002316  0.000000  0.001605
 ----------------------------------------
 Mulliken charges used for AMS results%charges...

 dE(predicted):    -0.34577E-04, dE(actual):    -0.43192E-04, Trust radius:    0.200000, all in a.u.
 
----------------------------------------------------------------------
Geometry Convergence after Step   2       (Hartree/Angstrom,Angstrom)
----------------------------------------------------------------------
current energy                               -3.34403287 Hartree
energy change                      -0.00004319     0.00015000    T
constrained gradient max            0.00334728     0.00100000    F
constrained gradient rms            0.00114750     0.00066667    F
gradient max                        0.00334728
gradient rms                        0.00114750
cart. step max                      0.00354761     0.00100000    F
cart. step rms                      0.00176568     0.00066667    F
 
 
--------
Geometry
--------
Atoms
  Index Symbol   x (angstrom)   y (angstrom)   z (angstrom)
      1      S     0.00000000    -0.00000000    -0.96086192
      2      C     1.37554074    -0.00000000     0.21869859
      3      H     1.31627549     0.88726303     0.85074776
      4      H     1.31627549    -0.88726303     0.85074776
      5      C     2.66996284    -0.00000000    -0.55693837
      6      H     2.76144100     0.88712807    -1.18025354
      7      H     2.76144100    -0.88712807    -1.18025354
      8      C    -1.37554074     0.00000000     0.21869859
      9      H    -1.31627549    -0.88726303     0.85074776
     10      H    -1.31627549     0.88726303     0.85074776
     11      C    -2.66996284     0.00000000    -0.55693837
     12      H    -2.76144100     0.88712807    -1.18025354
     13      H    -2.76144100    -0.88712807    -1.18025354
     14     Cl     4.06730590    -0.00000000     0.55573187
     15     Cl    -4.06730590     0.00000000     0.55573187
 
Total System Charge             0.00000
Bonding info available!
 
 *** GOStep3 ***



 ======================
 RI Hartree-Fock Scheme
 ======================
  
 Fit Set Quality     : GOOD
 Integration Quality : GOOD
 Threshold Quality   : GOOD
 Response Quality    : DEFAULT
 Is Range Separated  :  F
 
 RIHartreeFock Dependency: number of modified vectors:          12
  
 Hartree-Fock exchange energy:   -103.689446620965     
  pauli hf:                              1.361569568402722         37.0502           854.40          3574.80
  elstat hf:                            -1.322353630104811        -35.9831          -829.79         -3471.84

 Energy gradients wrt nuclear displacements
 ==========================================

     Atom      Cartesian (a.u./angstrom)
                 X         Y         Z
 ----------------------------------------
     1 S     0.000000  0.000000 -0.001277
     2 C     0.000619 -0.000000  0.000207
     3 H     0.000192 -0.000032  0.000001
     4 H     0.000192  0.000032  0.000001
     5 C    -0.001495  0.000000 -0.000535
     6 H    -0.000042  0.000022  0.000089
     7 H    -0.000042 -0.000022  0.000089
     8 C    -0.000619  0.000000  0.000207
     9 H    -0.000192  0.000032  0.000001
    10 H    -0.000192 -0.000032  0.000001
    11 C     0.001495  0.000000 -0.000535
    12 H     0.000042  0.000022  0.000089
    13 H     0.000042 -0.000022  0.000089
    14 Cl    0.001003  0.000000  0.000787
    15 Cl   -0.001003  0.000000  0.000787
 ----------------------------------------
 Mulliken charges used for AMS results%charges...

 dE(predicted):    -0.13838E-04, dE(actual):    -0.18731E-04, Trust radius:    0.200000, all in a.u.
 
----------------------------------------------------------------------
Geometry Convergence after Step   3       (Hartree/Angstrom,Angstrom)
----------------------------------------------------------------------
current energy                               -3.34405160 Hartree
energy change                      -0.00001873     0.00015000    T
constrained gradient max            0.00149471     0.00100000    F
constrained gradient rms            0.00049363     0.00066667    T
gradient max                        0.00149471
gradient rms                        0.00049363
cart. step max                      0.00202306     0.00100000    F
cart. step rms                      0.00070688     0.00066667    F
 
 
--------
Geometry
--------
Atoms
  Index Symbol   x (angstrom)   y (angstrom)   z (angstrom)
      1      S     0.00000000     0.00000000    -0.95892598
      2      C     1.37589297    -0.00000000     0.21929737
      3      H     1.31695382     0.88713487     0.85170990
      4      H     1.31695382    -0.88713487     0.85170990
      5      C     2.67053834    -0.00000000    -0.55696617
      6      H     2.76094642     0.88689901    -1.18097363
      7      H     2.76094642    -0.88689901    -1.18097363
      8      C    -1.37589297     0.00000000     0.21929737
      9      H    -1.31695382    -0.88713487     0.85170990
     10      H    -1.31695382     0.88713487     0.85170990
     11      C    -2.67053834     0.00000000    -0.55696617
     12      H    -2.76094642     0.88689901    -1.18097363
     13      H    -2.76094642    -0.88689901    -1.18097363
     14     Cl     4.06746682    -0.00000000     0.55370881
     15     Cl    -4.06746682     0.00000000     0.55370881
 
Total System Charge             0.00000
Bonding info available!
 
 *** GOStep4 ***



 ======================
 RI Hartree-Fock Scheme
 ======================
  
 Fit Set Quality     : GOOD
 Integration Quality : GOOD
 Threshold Quality   : GOOD
 Response Quality    : DEFAULT
 Is Range Separated  :  F
 
 RIHartreeFock Dependency: number of modified vectors:          12
  
 Hartree-Fock exchange energy:   -103.690216061605     
  pauli hf:                              1.362660285285962         37.0799           855.08          3577.66
  elstat hf:                            -1.322929739031700        -35.9987          -830.15         -3473.35

 Energy gradients wrt nuclear displacements
 ==========================================

     Atom      Cartesian (a.u./angstrom)
                 X         Y         Z
 ----------------------------------------
     1 S     0.000000  0.000000 -0.000513
     2 C     0.000285  0.000000 -0.000161
     3 H     0.000115 -0.000011  0.000085
     4 H     0.000115  0.000011  0.000085
     5 C    -0.000337  0.000000  0.000160
     6 H    -0.000035  0.000046 -0.000042
     7 H    -0.000035 -0.000046 -0.000042
     8 C    -0.000285  0.000000 -0.000161
     9 H    -0.000115  0.000011  0.000085
    10 H    -0.000115 -0.000011  0.000085
    11 C     0.000337  0.000000  0.000160
    12 H     0.000035  0.000046 -0.000042
    13 H     0.000035 -0.000046 -0.000042
    14 Cl    0.000248  0.000000  0.000172
    15 Cl   -0.000248  0.000000  0.000172
 ----------------------------------------
 Mulliken charges used for AMS results%charges...

 dE(predicted):    -0.29967E-05, dE(actual):    -0.37727E-05, Trust radius:    0.200000, all in a.u.
 
----------------------------------------------------------------------
Geometry Convergence after Step   4       (Hartree/Angstrom,Angstrom)
----------------------------------------------------------------------
current energy                               -3.34405537 Hartree
energy change                      -0.00000377     0.00015000    T
constrained gradient max            0.00051302     0.00100000    T
constrained gradient rms            0.00015217     0.00066667    T
gradient max                        0.00051302
gradient rms                        0.00015217
cart. step max                      0.00110183     0.00100000    F
cart. step rms                      0.00042033     0.00066667    T
 
 
--------
Geometry
--------
Atoms
  Index Symbol   x (angstrom)   y (angstrom)   z (angstrom)
      1      S    -0.00000000     0.00000000    -0.95904625
      2      C     1.37528739    -0.00000000     0.21931674
      3      H     1.31585199     0.88719751     0.85158415
      4      H     1.31585199    -0.88719751     0.85158415
      5      C     2.67022891    -0.00000000    -0.55688549
      6      H     2.76068585     0.88684647    -1.18093388
      7      H     2.76068585    -0.88684647    -1.18093388
      8      C    -1.37528739     0.00000000     0.21931674
      9      H    -1.31585199    -0.88719751     0.85158415
     10      H    -1.31585199     0.88719751     0.85158415
     11      C    -2.67022891     0.00000000    -0.55688549
     12      H    -2.76068585     0.88684647    -1.18093388
     13      H    -2.76068585    -0.88684647    -1.18093388
     14     Cl     4.06653448    -0.00000000     0.55384090
     15     Cl    -4.06653448     0.00000000     0.55384090
 
Total System Charge             0.00000
Bonding info available!
 
 *** GOStep5 ***



 ======================
 RI Hartree-Fock Scheme
 ======================
  
 Fit Set Quality     : GOOD
 Integration Quality : GOOD
 Threshold Quality   : GOOD
 Response Quality    : DEFAULT
 Is Range Separated  :  F
 
 RIHartreeFock Dependency: number of modified vectors:          12
  
 Hartree-Fock exchange energy:   -103.690721756616     
  pauli hf:                              1.362758340234954         37.0825           855.14          3577.92
  elstat hf:                            -1.323274356229163        -36.0081          -830.37         -3474.26

 Energy gradients wrt nuclear displacements
 ==========================================

     Atom      Cartesian (a.u./angstrom)
                 X         Y         Z
 ----------------------------------------
     1 S     0.000000  0.000000 -0.000221
     2 C     0.000063  0.000000  0.000017
     3 H     0.000018  0.000002  0.000050
     4 H     0.000018 -0.000002  0.000050
     5 C    -0.000019  0.000000  0.000089
     6 H     0.000003  0.000017 -0.000037
     7 H     0.000003 -0.000017 -0.000037
     8 C    -0.000063  0.000000  0.000017
     9 H    -0.000018 -0.000002  0.000050
    10 H    -0.000018  0.000002  0.000050
    11 C     0.000019  0.000000  0.000089
    12 H    -0.000003  0.000017 -0.000037
    13 H    -0.000003 -0.000017 -0.000037
    14 Cl   -0.000049  0.000000 -0.000022
    15 Cl    0.000049  0.000000 -0.000022
 ----------------------------------------
 Mulliken charges used for AMS results%charges...

 dE(predicted):    -0.50293E-06, dE(actual):    -0.17624E-05, Trust radius:    0.200000, all in a.u.
 
---------------------------------------------------------
Geometry Convergence after Step   5       ** CONVERGED **
---------------------------------------------------------
current energy                               -3.34405713 Hartree
energy change                      -0.00000176     0.00015000    T
constrained gradient max            0.00022087     0.00100000    T
constrained gradient rms            0.00004647     0.00066667    T
gradient max                        0.00022087
gradient rms                        0.00004647
cart. step max                      0.00018377     0.00100000    T
cart. step rms                      0.00009234     0.00066667    T
 
Geometry optimization converged

Optimized geometry:
 
--------
Geometry
--------
Atoms
  Index Symbol   x (angstrom)   y (angstrom)   z (angstrom)
      1      S    -0.00000000     0.00000000    -0.95904625
      2      C     1.37528739    -0.00000000     0.21931674
      3      H     1.31585199     0.88719751     0.85158415
      4      H     1.31585199    -0.88719751     0.85158415
      5      C     2.67022891    -0.00000000    -0.55688549
      6      H     2.76068585     0.88684647    -1.18093388
      7      H     2.76068585    -0.88684647    -1.18093388
      8      C    -1.37528739     0.00000000     0.21931674
      9      H    -1.31585199    -0.88719751     0.85158415
     10      H    -1.31585199     0.88719751     0.85158415
     11      C    -2.67022891     0.00000000    -0.55688549
     12      H    -2.76068585     0.88684647    -1.18093388
     13      H    -2.76068585    -0.88684647    -1.18093388
     14     Cl     4.06653448    -0.00000000     0.55384090
     15     Cl    -4.06653448     0.00000000     0.55384090
 
Total System Charge             0.00000
Bonding info available!
 
Performing a single point calculation on the final geometry ...

 *** adf ***



 ===========================
 A T T A C H E D   F I L E S
 ===========================
  
 Restart/tmp/amstmp_ams_kid0.1632212401/GOStep5.rkf*** GOStep5 ***



 ===============================
 M O D E L   P A R A M E T E R S
 ===============================
  
 DENSITY FUNCTIONAL POTENTIAL (scf)
    Hybrid:                            PBE0                                    == Not Default ==

 SPIN  (restricted / unrestr.)
    Molecule:                          Restricted                               
    Fragments:                         Restricted                               

 OTHER ASPECTS
    Relativistic Corrections:          ---                                     == Not Default ==

    Nuclear Charge Density Model:      Point Charge Nuclei                      
    Core Treatment:                    Frozen Orbital(s)                        

    Hyperfine or Zeeman Interaction:   ---                                      



 ===============
 G E O M E T R Y  ***  3D  Molecule  ***
 ===============
  

 ATOMS
 =====                            X Y Z                    CHARGE
                                (Angstrom)             Nucl     +Core       At.Mass
                       --------------------------    ----------------       -------
    1  S              -0.0000    0.0000   -0.9590     16.00     16.00       31.9721
    2  C               1.3753   -0.0000    0.2193      6.00      6.00       12.0000
    3  H               1.3159    0.8872    0.8516      1.00      1.00        1.0078
    4  H               1.3159   -0.8872    0.8516      1.00      1.00        1.0078
    5  C               2.6702   -0.0000   -0.5569      6.00      6.00       12.0000
    6  H               2.7607    0.8868   -1.1809      1.00      1.00        1.0078
    7  H               2.7607   -0.8868   -1.1809      1.00      1.00        1.0078
    8  C              -1.3753    0.0000    0.2193      6.00      6.00       12.0000
    9  H              -1.3159   -0.8872    0.8516      1.00      1.00        1.0078
   10  H              -1.3159    0.8872    0.8516      1.00      1.00        1.0078
   11  C              -2.6702    0.0000   -0.5569      6.00      6.00       12.0000
   12  H              -2.7607    0.8868   -1.1809      1.00      1.00        1.0078
   13  H              -2.7607   -0.8868   -1.1809      1.00      1.00        1.0078
   14  Cl              4.0665   -0.0000    0.5538     17.00     17.00       34.9689
   15  Cl             -4.0665    0.0000    0.5538     17.00     17.00       34.9689


 FRAGMENTS
 =========                                     Atoms in this Fragment     Cart. coord.s (Angstrom)
                                               -------------------------------------------------------
    1  S                                                 1  S           -0.0000    0.0000   -0.9590
    2  C                                                 2  C            1.3753   -0.0000    0.2193
    3  C                                                 5  C            2.6702   -0.0000   -0.5569
    4  C                                                 8  C           -1.3753    0.0000    0.2193
    5  C                                                11  C           -2.6702    0.0000   -0.5569
    6  H                                                 3  H            1.3159    0.8872    0.8516
    7  H                                                 4  H            1.3159   -0.8872    0.8516
    8  H                                                 6  H            2.7607    0.8868   -1.1809
    9  H                                                 7  H            2.7607   -0.8868   -1.1809
   10  H                                                 9  H           -1.3159   -0.8872    0.8516
   11  H                                                10  H           -1.3159    0.8872    0.8516
   12  H                                                12  H           -2.7607    0.8868   -1.1809
   13  H                                                13  H           -2.7607   -0.8868   -1.1809
   14  Cl                                               14  Cl           4.0665   -0.0000    0.5538
   15  Cl                                               15  Cl          -4.0665    0.0000    0.5538


 Interatomic Distance Matrix (Angstrom)
 --------------------------------------

   1)     0.000
   2)     1.811   0.000
   3)     2.408   1.091   0.000
   4)     2.408   1.091   1.774   0.000
   5)     2.700   1.510   2.146   2.146   0.000
   6)     2.908   2.160   2.494   3.060   1.088   0.000
   7)     2.908   2.160   3.060   2.494   1.088   1.774   0.000
   8)     1.811   2.751   2.903   2.903   4.119   4.456   4.456   0.000
   9)     2.408   2.903   3.174   2.632   4.320   4.888   4.555   1.091   0.000
  10)     2.408   2.903   2.632   3.174   4.320   4.555   4.888   1.091   1.774   0.000
  11)     2.700   4.119   4.320   4.320   5.340   5.538   5.538   1.510   2.146   2.146
          0.000
  12)     2.908   4.456   4.555   4.888   5.538   5.521   5.799   2.160   3.060   2.494
          1.088   0.000
  13)     2.908   4.456   4.888   4.555   5.538   5.799   5.521   2.160   2.494   3.060
          1.088   1.774   0.000
  14)     4.339   2.712   2.906   2.906   1.784   2.345   2.345   5.452   5.463   5.463
          6.828   7.100   7.100   0.000
  15)     4.339   5.452   5.463   5.463   6.828   7.100   7.100   2.712   2.906   2.906
          1.784   2.345   2.345   8.133   0.000

 Min. Distance =    1.0882
 Max. Distance =    8.1331



 =====================================
 S Y M M E T R Y ,   E L E C T R O N S
 =====================================
  
 Symmetry: C(2V)

 Irreducible Representations, including subspecies
 -------------------------------------------------
 A1
 A2
 B1
 B2

 Symmetry is NOT used when fitting density


 Configuration of Valence Electrons
 ==================================
 ( determined in the SCF procedure )

 Total:   82

 Net Charge: 0 (Nuclei minus Electrons)

 Aufbau principle for MO occupations will be applied through SCF cycle no.     150
 Thereafter, the program will assign electrons to MOs that are spatially
 similar to the occupied MOs in a "reference" cycle ("KeepOrbitals").
 The reference cycle is always the PREVIOUS cycle: it will evolve with
 the SCF procedure.
1
 ***************************************************************************************************



                                      ****************************************
                                      *  B U I L D : (Fragments, Functions)  *
                                      ****************************************
  



 =======
 S F O s  ***  (Symmetrized Fragment Orbitals)  ***
 =======
  
 SFOs are linear combinations of (valence) Fragment Orbitals (FOs), such that the SFOs transform as the
 irreducible representations of the (molecular) symmetry group. Each SFO is therefore characterized by
 an irrep of the molecule and by a few (or only one) generating FOs.
 The SFOs constitute a symmetry-adapted basis for the Fock matrix. The MO eigenvector coefficients in
 this basis provide a direct interpretation of the MOs in terms of Frontier Orbital Theory.

 The SFOs are combined with auxiliary Core Functions (CFs) to ensure orthogonalization on the (frozen)
 Core Orbitals (COs). The Core-orthogonalized SFOs (CSFOs) constitute the true Fock basis.

 The FOs, and hence also the (C)SFOs are combinations of the elementary basis functions (BAS). The basis
 functions that participate in the description of the SFOs depend on the irrep. The indices of the
 involved functions are printed below for each irrep.
 (The complete list of primitive basis functions is printed in another section)

 Total nr. of (C)SFOs (summation over all irreps) :   294

 NOTE: a (C)SFO that is defined as a combination of more than one FO is usually NOT normalized.



                                       === A1 ===
 Nr. of SFOs :   98
 Cartesian basis functions that participate in this irrep (total number =   252) :
      1     2     3     4    11    12    13     7    10    16
     19    22    28    23    26    38    31    36    39    99
     40   100    41   101    42   102    43   103    46   106
     49   109    52   112    44   104    47   107    50   110
     58   118    55   115    53    56   113   116    68   128
     64   124    61    66   121   126    59    62   119   122
     69   129    70   130    71   131    72   132    73   133
     76   136    79   139    82   142    74   134    77   137
     80   140    88   148    85   145    83    86   143   146
     98   158    94   154    91    96   151   156    89    92
    149   152   159   171   207   219   160   172   208   220
    161   173   209   221   164   176   212   224   162   163
    174   175   210   211   222   223   170   182   218   230
    167   169   179   181   215   217   227   229   165   166
    168   177   178   180   213   214   216   225   226   228
    183   195   231   243   184   196   232   244   185   197
    233   245   188   200   236   248   186   187   198   199
    234   235   246   247   194   206   242   254   191   193
    203   205   239   241   251   253   189   190   192   201
    202   204   237   238   240   249   250   252   255   293
    256   294   257   295   258   296   265   303   266   304
    267   305   261   299   264   302   270   308   273   311
    276   314   259   297   262   300   268   306   271   309
    274   312   282   320   279   317   277   280   315   318
    292   330   288   326   285   290   323   328   283   286
    321   324

    SFO  (index         Fragment          Generating    Expansion in Fragment Orbitals
  indx  incl.CFs)   Occup   Orb.Energy   FragmentType  Coeff.   Orbital     on Fragment
 --------------------------------------------------------------------------------------
     1       1      2.000     -89.098 au  S             1.00      1 S               1
                        (   -2424.489 eV)
     2       2      2.000      -8.072 au  S             1.00      2 S               1
                        (    -219.643 eV)
     3       3      2.000      -0.710 au  S             1.00      3 S               1
                        (     -19.307 eV)
     4       4       --         0.231 au  S             1.00      4 S               1
                        (       6.280 eV)
     5       5       --         2.125 au  S             1.00      5 S               1
                        (      57.822 eV)
     6       6       --        12.877 au  S             1.00      6 S               1
                        (     350.390 eV)
     7       7       --       200.702 au  S             1.00      7 S               1
                        (    5461.371 eV)
     8       8      2.000      -6.002 au  S             1.00      1 P:z             1
                        (    -163.314 eV)
     9       9      1.333      -0.279 au  S             1.00      2 P:z             1
                        (      -7.592 eV)
    10      10       --         0.156 au  S             1.00      3 P:z             1
                        (       4.258 eV)
    11      11       --         1.281 au  S             1.00      4 P:z             1
                        (      34.851 eV)
    12      12       --        13.316 au  S             1.00      5 P:z             1
                        (     362.345 eV)
    13      13       --         0.491 au  S             1.00      1 D:z2            1
                        (      13.368 eV)
    14      14       --         0.491 au  S             1.00      1 D:x2-y2         1
                        (      13.368 eV)
    15      15       --         1.336 au  S             1.00      1 F:z3            1
                        (      36.349 eV)
    16      16       --         1.336 au  S             1.00      1 F:z             1
                        (      36.349 eV)
    17      17      2.000     -10.406 au  C             0.71      1 S               2
                        (    -283.169 eV)               0.71      1 S               4
    18      18      2.000      -0.583 au  C             0.71      2 S               2
                        (     -15.858 eV)               0.71      2 S               4
    19      19       --         0.415 au  C             0.71      3 S               2
                        (      11.281 eV)               0.71      3 S               4
    20      20       --         5.555 au  C             0.71      4 S               2
                        (     151.157 eV)               0.71      4 S               4
    21      21       --        50.670 au  C             0.71      5 S               2
                        (    1378.798 eV)               0.71      5 S               4
    22      22      0.667      -0.186 au  C             0.71      1 P:x             2
                        (      -5.051 eV)              -0.71      1 P:x             4
    23      23       --         0.203 au  C             0.71      2 P:x             2
                        (       5.518 eV)              -0.71      2 P:x             4
    24      24       --         2.125 au  C             0.71      3 P:x             2
                        (      57.838 eV)              -0.71      3 P:x             4
    25      25      0.667      -0.186 au  C             0.71      1 P:z             2
                        (      -5.051 eV)               0.71      1 P:z             4
    26      26       --         0.203 au  C             0.71      2 P:z             2
                        (       5.518 eV)               0.71      2 P:z             4
    27      27       --         2.125 au  C             0.71      3 P:z             2
                        (      57.838 eV)               0.71      3 P:z             4
    28      28       --         1.300 au  C             0.71      1 D:z2            2
                        (      35.363 eV)               0.71      1 D:z2            4
    29      29       --         1.300 au  C             0.71      1 D:x2-y2         2
                        (      35.363 eV)               0.71      1 D:x2-y2         4
    30      30       --         1.300 au  C             0.71      1 D:xz            2
                        (      35.363 eV)              -0.71      1 D:xz            4
    31      31       --         4.097 au  C             0.71      1 F:z3            2
                        (     111.488 eV)               0.71      1 F:z3            4
    32      32       --         4.097 au  C             0.71      1 F:z             2
                        (     111.488 eV)               0.71      1 F:z             4
    33      33       --         4.097 au  C             0.71      1 F:z2x           2
                        (     111.488 eV)              -0.71      1 F:z2x           4
    34      34       --         4.097 au  C             0.71      1 F:x             2
                        (     111.488 eV)              -0.71      1 F:x             4
    35      35      2.000     -10.406 au  C             0.71      1 S               3
                        (    -283.169 eV)               0.71      1 S               5
    36      36      2.000      -0.583 au  C             0.71      2 S               3
                        (     -15.858 eV)               0.71      2 S               5
    37      37       --         0.415 au  C             0.71      3 S               3
                        (      11.281 eV)               0.71      3 S               5
    38      38       --         5.555 au  C             0.71      4 S               3
                        (     151.157 eV)               0.71      4 S               5
    39      39       --        50.670 au  C             0.71      5 S               3
                        (    1378.798 eV)               0.71      5 S               5
    40      40      0.667      -0.186 au  C             0.71      1 P:x             3
                        (      -5.051 eV)              -0.71      1 P:x             5
    41      41       --         0.203 au  C             0.71      2 P:x             3
                        (       5.518 eV)              -0.71      2 P:x             5
    42      42       --         2.125 au  C             0.71      3 P:x             3
                        (      57.838 eV)              -0.71      3 P:x             5
    43      43      0.667      -0.186 au  C             0.71      1 P:z             3
                        (      -5.051 eV)               0.71      1 P:z             5
    44      44       --         0.203 au  C             0.71      2 P:z             3
                        (       5.518 eV)               0.71      2 P:z             5
    45      45       --         2.125 au  C             0.71      3 P:z             3
                        (      57.838 eV)               0.71      3 P:z             5
    46      46       --         1.300 au  C             0.71      1 D:z2            3
                        (      35.363 eV)               0.71      1 D:z2            5
    47      47       --         1.300 au  C             0.71      1 D:x2-y2         3
                        (      35.363 eV)               0.71      1 D:x2-y2         5
    48      48       --         1.300 au  C             0.71      1 D:xz            3
                        (      35.363 eV)              -0.71      1 D:xz            5
    49      49       --         4.097 au  C             0.71      1 F:z3            3
                        (     111.488 eV)               0.71      1 F:z3            5
    50      50       --         4.097 au  C             0.71      1 F:z             3
                        (     111.488 eV)               0.71      1 F:z             5
    51      51       --         4.097 au  C             0.71      1 F:z2x           3
                        (     111.488 eV)              -0.71      1 F:z2x           5
    52      52       --         4.097 au  C             0.71      1 F:x             3
                        (     111.488 eV)              -0.71      1 F:x             5
    53      53      1.000      -0.242 au  H             0.50      1 S               6
                        (      -6.582 eV)               0.50      1 S               7
                                                        0.50      1 S              10
                                                        0.50      1 S              11
    54      54       --         0.113 au  H             0.50      2 S               6
                        (       3.073 eV)               0.50      2 S               7
                                                        0.50      2 S              10
                                                        0.50      2 S              11
    55      55       --         1.599 au  H             0.50      3 S               6
                        (      43.507 eV)               0.50      3 S               7
                                                        0.50      3 S              10
                                                        0.50      3 S              11
    56      56       --         0.445 au  H             0.50      1 P:x             6
                        (      12.103 eV)               0.50      1 P:x             7
                                                       -0.50      1 P:x            10
                                                       -0.50      1 P:x            11
    57      57       --         0.445 au  H             0.50      1 P:y             6
                        (      12.103 eV)              -0.50      1 P:y             7
                                                       -0.50      1 P:y            10
                                                        0.50      1 P:y            11
    58      58       --         0.445 au  H             0.50      1 P:z             6
                        (      12.103 eV)               0.50      1 P:z             7
                                                        0.50      1 P:z            10
                                                        0.50      1 P:z            11
    59      59       --         2.628 au  H             0.50      1 D:z2            6
                        (      71.513 eV)               0.50      1 D:z2            7
                                                        0.50      1 D:z2           10
                                                        0.50      1 D:z2           11
    60      60       --         2.628 au  H             0.50      1 D:x2-y2         6
                        (      71.513 eV)               0.50      1 D:x2-y2         7
                                                        0.50      1 D:x2-y2        10
                                                        0.50      1 D:x2-y2        11
    61      61       --         2.628 au  H             0.50      1 D:xy            6
                        (      71.513 eV)              -0.50      1 D:xy            7
                                                        0.50      1 D:xy           10
                                                       -0.50      1 D:xy           11
    62      62       --         2.628 au  H             0.50      1 D:xz            6
                        (      71.513 eV)               0.50      1 D:xz            7
                                                       -0.50      1 D:xz           10
                                                       -0.50      1 D:xz           11
    63      63       --         2.628 au  H             0.50      1 D:yz            6
                        (      71.513 eV)              -0.50      1 D:yz            7
                                                       -0.50      1 D:yz           10
                                                        0.50      1 D:yz           11
    64      64      1.000      -0.242 au  H             0.50      1 S               8
                        (      -6.582 eV)               0.50      1 S               9
                                                        0.50      1 S              12
                                                        0.50      1 S              13
    65      65       --         0.113 au  H             0.50      2 S               8
                        (       3.073 eV)               0.50      2 S               9
                                                        0.50      2 S              12
                                                        0.50      2 S              13
    66      66       --         1.599 au  H             0.50      3 S               8
                        (      43.507 eV)               0.50      3 S               9
                                                        0.50      3 S              12
                                                        0.50      3 S              13
    67      67       --         0.445 au  H             0.50      1 P:x             8
                        (      12.103 eV)               0.50      1 P:x             9
                                                       -0.50      1 P:x            12
                                                       -0.50      1 P:x            13
    68      68       --         0.445 au  H             0.50      1 P:y             8
                        (      12.103 eV)              -0.50      1 P:y             9
                                                        0.50      1 P:y            12
                                                       -0.50      1 P:y            13
    69      69       --         0.445 au  H             0.50      1 P:z             8
                        (      12.103 eV)               0.50      1 P:z             9
                                                        0.50      1 P:z            12
                                                        0.50      1 P:z            13
    70      70       --         2.628 au  H             0.50      1 D:z2            8
                        (      71.513 eV)               0.50      1 D:z2            9
                                                        0.50      1 D:z2           12
                                                        0.50      1 D:z2           13
    71      71       --         2.628 au  H             0.50      1 D:x2-y2         8
                        (      71.513 eV)               0.50      1 D:x2-y2         9
                                                        0.50      1 D:x2-y2        12
                                                        0.50      1 D:x2-y2        13
    72      72       --         2.628 au  H             0.50      1 D:xy            8
                        (      71.513 eV)              -0.50      1 D:xy            9
                                                       -0.50      1 D:xy           12
                                                        0.50      1 D:xy           13
    73      73       --         2.628 au  H             0.50      1 D:xz            8
                        (      71.513 eV)               0.50      1 D:xz            9
                                                       -0.50      1 D:xz           12
                                                       -0.50      1 D:xz           13
    74      74       --         2.628 au  H             0.50      1 D:yz            8
                        (      71.513 eV)              -0.50      1 D:yz            9
                                                        0.50      1 D:yz           12
                                                       -0.50      1 D:yz           13
    75      75      2.000    -101.760 au  Cl            0.71      1 S              14
                        (   -2769.023 eV)               0.71      1 S              15
    76      76      2.000      -9.584 au  Cl            0.71      2 S              14
                        (    -260.807 eV)               0.71      2 S              15
    77      77      2.000      -0.848 au  Cl            0.71      3 S              14
                        (     -23.065 eV)               0.71      3 S              15
    78      78       --         0.237 au  Cl            0.71      4 S              14
                        (       6.461 eV)               0.71      4 S              15
    79      79       --         2.095 au  Cl            0.71      5 S              14
                        (      57.011 eV)               0.71      5 S              15
    80      80       --        12.974 au  Cl            0.71      6 S              14
                        (     353.034 eV)               0.71      6 S              15
    81      81       --       215.823 au  Cl            0.71      7 S              14
                        (    5872.843 eV)               0.71      7 S              15
    82      82      2.000      -7.312 au  Cl            0.71      1 P:x            14
                        (    -198.964 eV)              -0.71      1 P:x            15
    83      83      1.667      -0.356 au  Cl            0.71      2 P:x            14
                        (      -9.692 eV)              -0.71      2 P:x            15
    84      84       --         0.265 au  Cl            0.71      3 P:x            14
                        (       7.201 eV)              -0.71      3 P:x            15
    85      85       --         2.209 au  Cl            0.71      4 P:x            14
                        (      60.097 eV)              -0.71      4 P:x            15
    86      86       --        19.178 au  Cl            0.71      5 P:x            14
                        (     521.872 eV)              -0.71      5 P:x            15
    87      87      2.000      -7.312 au  Cl            0.71      1 P:z            14
                        (    -198.964 eV)               0.71      1 P:z            15
    88      88      1.667      -0.356 au  Cl            0.71      2 P:z            14
                        (      -9.692 eV)               0.71      2 P:z            15
    89      89       --         0.265 au  Cl            0.71      3 P:z            14
                        (       7.201 eV)               0.71      3 P:z            15
    90      90       --         2.209 au  Cl            0.71      4 P:z            14
                        (      60.097 eV)               0.71      4 P:z            15
    91      91       --        19.178 au  Cl            0.71      5 P:z            14
                        (     521.872 eV)               0.71      5 P:z            15
    92      92       --         0.442 au  Cl            0.71      1 D:z2           14
                        (      12.026 eV)               0.71      1 D:z2           15
    93      93       --         0.442 au  Cl            0.71      1 D:x2-y2        14
                        (      12.026 eV)               0.71      1 D:x2-y2        15
    94      94       --         0.442 au  Cl            0.71      1 D:xz           14
                        (      12.026 eV)              -0.71      1 D:xz           15
    95      95       --         1.250 au  Cl            0.71      1 F:z3           14
                        (      34.015 eV)               0.71      1 F:z3           15
    96      96       --         1.250 au  Cl            0.71      1 F:z            14
                        (      34.015 eV)               0.71      1 F:z            15
    97      97       --         1.250 au  Cl            0.71      1 F:z2x          14
                        (      34.015 eV)              -0.71      1 F:z2x          15
    98      98       --         1.250 au  Cl            0.71      1 F:x            14
                        (      34.015 eV)              -0.71      1 F:x            15



                                       === A2 ===
 Nr. of SFOs :   50
 Cartesian basis functions that participate in this irrep (total number =   156) :
     24    33    45   105    48   108    51   111    57   117
     54   114    67   127    63   123    60    65   120   125
     75   135    78   138    81   141    87   147    84   144
     97   157    93   153    90    95   150   155   159   171
    207   219   160   172   208   220   161   173   209   221
    164   176   212   224   162   163   174   175   210   211
    222   223   170   182   218   230   167   169   179   181
    215   217   227   229   165   166   168   177   178   180
    213   214   216   225   226   228   183   195   231   243
    184   196   232   244   185   197   233   245   188   200
    236   248   186   187   198   199   234   235   246   247
    194   206   242   254   191   193   203   205   239   241
    251   253   189   190   192   201   202   204   237   238
    240   249   250   252   260   298   263   301   269   307
    272   310   275   313   281   319   278   316   291   329
    287   325   284   289   322   327

    SFO  (index         Fragment          Generating    Expansion in Fragment Orbitals
  indx  incl.CFs)   Occup   Orb.Energy   FragmentType  Coeff.   Orbital     on Fragment
 --------------------------------------------------------------------------------------
     1       1       --         0.491 au  S             1.00      1 D:xy            1
                        (      13.368 eV)
     2       2       --         1.336 au  S             1.00      1 F:xyz           1
                        (      36.349 eV)
     3       3      0.667      -0.186 au  C             0.71      1 P:y             2
                        (      -5.051 eV)              -0.71      1 P:y             4
     4       4       --         0.203 au  C             0.71      2 P:y             2
                        (       5.518 eV)              -0.71      2 P:y             4
     5       5       --         2.125 au  C             0.71      3 P:y             2
                        (      57.838 eV)              -0.71      3 P:y             4
     6       6       --         1.300 au  C             0.71      1 D:xy            2
                        (      35.363 eV)               0.71      1 D:xy            4
     7       7       --         1.300 au  C             0.71      1 D:yz            2
                        (      35.363 eV)              -0.71      1 D:yz            4
     8       8       --         4.097 au  C             0.71      1 F:xyz           2
                        (     111.488 eV)               0.71      1 F:xyz           4
     9       9       --         4.097 au  C             0.71      1 F:z2y           2
                        (     111.488 eV)              -0.71      1 F:z2y           4
    10      10       --         4.097 au  C             0.71      1 F:y             2
                        (     111.488 eV)              -0.71      1 F:y             4
    11      11      0.667      -0.186 au  C             0.71      1 P:y             3
                        (      -5.051 eV)              -0.71      1 P:y             5
    12      12       --         0.203 au  C             0.71      2 P:y             3
                        (       5.518 eV)              -0.71      2 P:y             5
    13      13       --         2.125 au  C             0.71      3 P:y             3
                        (      57.838 eV)              -0.71      3 P:y             5
    14      14       --         1.300 au  C             0.71      1 D:xy            3
                        (      35.363 eV)               0.71      1 D:xy            5
    15      15       --         1.300 au  C             0.71      1 D:yz            3
                        (      35.363 eV)              -0.71      1 D:yz            5
    16      16       --         4.097 au  C             0.71      1 F:xyz           3
                        (     111.488 eV)               0.71      1 F:xyz           5
    17      17       --         4.097 au  C             0.71      1 F:z2y           3
                        (     111.488 eV)              -0.71      1 F:z2y           5
    18      18       --         4.097 au  C             0.71      1 F:y             3
                        (     111.488 eV)              -0.71      1 F:y             5
    19      19      1.000      -0.242 au  H             0.50      1 S               6
                        (      -6.582 eV)              -0.50      1 S               7
                                                        0.50      1 S              10
                                                       -0.50      1 S              11
    20      20       --         0.113 au  H             0.50      2 S               6
                        (       3.073 eV)              -0.50      2 S               7
                                                        0.50      2 S              10
                                                       -0.50      2 S              11
    21      21       --         1.599 au  H             0.50      3 S               6
                        (      43.507 eV)              -0.50      3 S               7
                                                        0.50      3 S              10
                                                       -0.50      3 S              11
    22      22       --         0.445 au  H             0.50      1 P:x             6
                        (      12.103 eV)              -0.50      1 P:x             7
                                                       -0.50      1 P:x            10
                                                        0.50      1 P:x            11
    23      23       --         0.445 au  H             0.50      1 P:y             6
                        (      12.103 eV)               0.50      1 P:y             7
                                                       -0.50      1 P:y            10
                                                       -0.50      1 P:y            11
    24      24       --         0.445 au  H             0.50      1 P:z             6
                        (      12.103 eV)              -0.50      1 P:z             7
                                                        0.50      1 P:z            10
                                                       -0.50      1 P:z            11
    25      25       --         2.628 au  H             0.50      1 D:z2            6
                        (      71.513 eV)              -0.50      1 D:z2            7
                                                        0.50      1 D:z2           10
                                                       -0.50      1 D:z2           11
    26      26       --         2.628 au  H             0.50      1 D:x2-y2         6
                        (      71.513 eV)              -0.50      1 D:x2-y2         7
                                                        0.50      1 D:x2-y2        10
                                                       -0.50      1 D:x2-y2        11
    27      27       --         2.628 au  H             0.50      1 D:xy            6
                        (      71.513 eV)               0.50      1 D:xy            7
                                                        0.50      1 D:xy           10
                                                        0.50      1 D:xy           11
    28      28       --         2.628 au  H             0.50      1 D:xz            6
                        (      71.513 eV)              -0.50      1 D:xz            7
                                                       -0.50      1 D:xz           10
                                                        0.50      1 D:xz           11
    29      29       --         2.628 au  H             0.50      1 D:yz            6
                        (      71.513 eV)               0.50      1 D:yz            7
                                                       -0.50      1 D:yz           10
                                                       -0.50      1 D:yz           11
    30      30      1.000      -0.242 au  H             0.50      1 S               8
                        (      -6.582 eV)              -0.50      1 S               9
                                                       -0.50      1 S              12
                                                        0.50      1 S              13
    31      31       --         0.113 au  H             0.50      2 S               8
                        (       3.073 eV)              -0.50      2 S               9
                                                       -0.50      2 S              12
                                                        0.50      2 S              13
    32      32       --         1.599 au  H             0.50      3 S               8
                        (      43.507 eV)              -0.50      3 S               9
                                                       -0.50      3 S              12
                                                        0.50      3 S              13
    33      33       --         0.445 au  H             0.50      1 P:x             8
                        (      12.103 eV)              -0.50      1 P:x             9
                                                        0.50      1 P:x            12
                                                       -0.50      1 P:x            13
    34      34       --         0.445 au  H             0.50      1 P:y             8
                        (      12.103 eV)               0.50      1 P:y             9
                                                       -0.50      1 P:y            12
                                                       -0.50      1 P:y            13
    35      35       --         0.445 au  H             0.50      1 P:z             8
                        (      12.103 eV)              -0.50      1 P:z             9
                                                       -0.50      1 P:z            12
                                                        0.50      1 P:z            13
    36      36       --         2.628 au  H             0.50      1 D:z2            8
                        (      71.513 eV)              -0.50      1 D:z2            9
                                                       -0.50      1 D:z2           12
                                                        0.50      1 D:z2           13
    37      37       --         2.628 au  H             0.50      1 D:x2-y2         8
                        (      71.513 eV)              -0.50      1 D:x2-y2         9
                                                       -0.50      1 D:x2-y2        12
                                                        0.50      1 D:x2-y2        13
    38      38       --         2.628 au  H             0.50      1 D:xy            8
                        (      71.513 eV)               0.50      1 D:xy            9
                                                        0.50      1 D:xy           12
                                                        0.50      1 D:xy           13
    39      39       --         2.628 au  H             0.50      1 D:xz            8
                        (      71.513 eV)              -0.50      1 D:xz            9
                                                        0.50      1 D:xz           12
                                                       -0.50      1 D:xz           13
    40      40       --         2.628 au  H             0.50      1 D:yz            8
                        (      71.513 eV)               0.50      1 D:yz            9
                                                       -0.50      1 D:yz           12
                                                       -0.50      1 D:yz           13
    41      41      2.000      -7.312 au  Cl            0.71      1 P:y            14
                        (    -198.964 eV)              -0.71      1 P:y            15
    42      42      1.667      -0.356 au  Cl            0.71      2 P:y            14
                        (      -9.692 eV)              -0.71      2 P:y            15
    43      43       --         0.265 au  Cl            0.71      3 P:y            14
                        (       7.201 eV)              -0.71      3 P:y            15
    44      44       --         2.209 au  Cl            0.71      4 P:y            14
                        (      60.097 eV)              -0.71      4 P:y            15
    45      45       --        19.178 au  Cl            0.71      5 P:y            14
                        (     521.872 eV)              -0.71      5 P:y            15
    46      46       --         0.442 au  Cl            0.71      1 D:xy           14
                        (      12.026 eV)               0.71      1 D:xy           15
    47      47       --         0.442 au  Cl            0.71      1 D:yz           14
                        (      12.026 eV)              -0.71      1 D:yz           15
    48      48       --         1.250 au  Cl            0.71      1 F:xyz          14
                        (      34.015 eV)               0.71      1 F:xyz          15
    49      49       --         1.250 au  Cl            0.71      1 F:z2y          14
                        (      34.015 eV)              -0.71      1 F:z2y          15
    50      50       --         1.250 au  Cl            0.71      1 F:y            14
                        (      34.015 eV)              -0.71      1 F:y            15



                                       === B1 ===
 Nr. of SFOs :   90
 Cartesian basis functions that participate in this irrep (total number =   243) :
      5     8    14    17    20    25    34    29    32    39
     99    40   100    41   101    42   102    43   103    46
    106    49   109    52   112    44   104    47   107    50
    110    58   118    55   115    53    56   113   116    68
    128    64   124    61    66   121   126    59    62   119
    122    69   129    70   130    71   131    72   132    73
    133    76   136    79   139    82   142    74   134    77
    137    80   140    88   148    85   145    83    86   143
    146    98   158    94   154    91    96   151   156    89
     92   149   152   159   171   207   219   160   172   208
    220   161   173   209   221   164   176   212   224   162
    163   174   175   210   211   222   223   170   182   218
    230   167   169   179   181   215   217   227   229   165
    166   168   177   178   180   213   214   216   225   226
    228   183   195   231   243   184   196   232   244   185
    197   233   245   188   200   236   248   186   187   198
    199   234   235   246   247   194   206   242   254   191
    193   203   205   239   241   251   253   189   190   192
    201   202   204   237   238   240   249   250   252   255
    293   256   294   257   295   258   296   265   303   266
    304   267   305   261   299   264   302   270   308   273
    311   276   314   259   297   262   300   268   306   271
    309   274   312   282   320   279   317   277   280   315
    318   292   330   288   326   285   290   323   328   283
    286   321   324

    SFO  (index         Fragment          Generating    Expansion in Fragment Orbitals
  indx  incl.CFs)   Occup   Orb.Energy   FragmentType  Coeff.   Orbital     on Fragment
 --------------------------------------------------------------------------------------
     1       1      2.000      -6.002 au  S             1.00      1 P:x             1
                        (    -163.314 eV)
     2       2      1.333      -0.279 au  S             1.00      2 P:x             1
                        (      -7.592 eV)
     3       3       --         0.156 au  S             1.00      3 P:x             1
                        (       4.258 eV)
     4       4       --         1.281 au  S             1.00      4 P:x             1
                        (      34.851 eV)
     5       5       --        13.316 au  S             1.00      5 P:x             1
                        (     362.345 eV)
     6       6       --         0.491 au  S             1.00      1 D:xz            1
                        (      13.368 eV)
     7       7       --         1.336 au  S             1.00      1 F:z2x           1
                        (      36.349 eV)
     8       8       --         1.336 au  S             1.00      1 F:x             1
                        (      36.349 eV)
     9       9      2.000     -10.406 au  C             0.71      1 S               2
                        (    -283.169 eV)              -0.71      1 S               4
    10      10      2.000      -0.583 au  C             0.71      2 S               2
                        (     -15.858 eV)              -0.71      2 S               4
    11      11       --         0.415 au  C             0.71      3 S               2
                        (      11.281 eV)              -0.71      3 S               4
    12      12       --         5.555 au  C             0.71      4 S               2
                        (     151.157 eV)              -0.71      4 S               4
    13      13       --        50.670 au  C             0.71      5 S               2
                        (    1378.798 eV)              -0.71      5 S               4
    14      14      0.667      -0.186 au  C             0.71      1 P:x             2
                        (      -5.051 eV)               0.71      1 P:x             4
    15      15       --         0.203 au  C             0.71      2 P:x             2
                        (       5.518 eV)               0.71      2 P:x             4
    16      16       --         2.125 au  C             0.71      3 P:x             2
                        (      57.838 eV)               0.71      3 P:x             4
    17      17      0.667      -0.186 au  C             0.71      1 P:z             2
                        (      -5.051 eV)              -0.71      1 P:z             4
    18      18       --         0.203 au  C             0.71      2 P:z             2
                        (       5.518 eV)              -0.71      2 P:z             4
    19      19       --         2.125 au  C             0.71      3 P:z             2
                        (      57.838 eV)              -0.71      3 P:z             4
    20      20       --         1.300 au  C             0.71      1 D:z2            2
                        (      35.363 eV)              -0.71      1 D:z2            4
    21      21       --         1.300 au  C             0.71      1 D:x2-y2         2
                        (      35.363 eV)              -0.71      1 D:x2-y2         4
    22      22       --         1.300 au  C             0.71      1 D:xz            2
                        (      35.363 eV)               0.71      1 D:xz            4
    23      23       --         4.097 au  C             0.71      1 F:z3            2
                        (     111.488 eV)              -0.71      1 F:z3            4
    24      24       --         4.097 au  C             0.71      1 F:z             2
                        (     111.488 eV)              -0.71      1 F:z             4
    25      25       --         4.097 au  C             0.71      1 F:z2x           2
                        (     111.488 eV)               0.71      1 F:z2x           4
    26      26       --         4.097 au  C             0.71      1 F:x             2
                        (     111.488 eV)               0.71      1 F:x             4
    27      27      2.000     -10.406 au  C             0.71      1 S               3
                        (    -283.169 eV)              -0.71      1 S               5
    28      28      2.000      -0.583 au  C             0.71      2 S               3
                        (     -15.858 eV)              -0.71      2 S               5
    29      29       --         0.415 au  C             0.71      3 S               3
                        (      11.281 eV)              -0.71      3 S               5
    30      30       --         5.555 au  C             0.71      4 S               3
                        (     151.157 eV)              -0.71      4 S               5
    31      31       --        50.670 au  C             0.71      5 S               3
                        (    1378.798 eV)              -0.71      5 S               5
    32      32      0.667      -0.186 au  C             0.71      1 P:x             3
                        (      -5.051 eV)               0.71      1 P:x             5
    33      33       --         0.203 au  C             0.71      2 P:x             3
                        (       5.518 eV)               0.71      2 P:x             5
    34      34       --         2.125 au  C             0.71      3 P:x             3
                        (      57.838 eV)               0.71      3 P:x             5
    35      35      0.667      -0.186 au  C             0.71      1 P:z             3
                        (      -5.051 eV)              -0.71      1 P:z             5
    36      36       --         0.203 au  C             0.71      2 P:z             3
                        (       5.518 eV)              -0.71      2 P:z             5
    37      37       --         2.125 au  C             0.71      3 P:z             3
                        (      57.838 eV)              -0.71      3 P:z             5
    38      38       --         1.300 au  C             0.71      1 D:z2            3
                        (      35.363 eV)              -0.71      1 D:z2            5
    39      39       --         1.300 au  C             0.71      1 D:x2-y2         3
                        (      35.363 eV)              -0.71      1 D:x2-y2         5
    40      40       --         1.300 au  C             0.71      1 D:xz            3
                        (      35.363 eV)               0.71      1 D:xz            5
    41      41       --         4.097 au  C             0.71      1 F:z3            3
                        (     111.488 eV)              -0.71      1 F:z3            5
    42      42       --         4.097 au  C             0.71      1 F:z             3
                        (     111.488 eV)              -0.71      1 F:z             5
    43      43       --         4.097 au  C             0.71      1 F:z2x           3
                        (     111.488 eV)               0.71      1 F:z2x           5
    44      44       --         4.097 au  C             0.71      1 F:x             3
                        (     111.488 eV)               0.71      1 F:x             5
    45      45      1.000      -0.242 au  H             0.50      1 S               6
                        (      -6.582 eV)               0.50      1 S               7
                                                       -0.50      1 S              10
                                                       -0.50      1 S              11
    46      46       --         0.113 au  H             0.50      2 S               6
                        (       3.073 eV)               0.50      2 S               7
                                                       -0.50      2 S              10
                                                       -0.50      2 S              11
    47      47       --         1.599 au  H             0.50      3 S               6
                        (      43.507 eV)               0.50      3 S               7
                                                       -0.50      3 S              10
                                                       -0.50      3 S              11
    48      48       --         0.445 au  H             0.50      1 P:x             6
                        (      12.103 eV)               0.50      1 P:x             7
                                                        0.50      1 P:x            10
                                                        0.50      1 P:x            11
    49      49       --         0.445 au  H             0.50      1 P:y             6
                        (      12.103 eV)              -0.50      1 P:y             7
                                                        0.50      1 P:y            10
                                                       -0.50      1 P:y            11
    50      50       --         0.445 au  H             0.50      1 P:z             6
                        (      12.103 eV)               0.50      1 P:z             7
                                                       -0.50      1 P:z            10
                                                       -0.50      1 P:z            11
    51      51       --         2.628 au  H             0.50      1 D:z2            6
                        (      71.513 eV)               0.50      1 D:z2            7
                                                       -0.50      1 D:z2           10
                                                       -0.50      1 D:z2           11
    52      52       --         2.628 au  H             0.50      1 D:x2-y2         6
                        (      71.513 eV)               0.50      1 D:x2-y2         7
                                                       -0.50      1 D:x2-y2        10
                                                       -0.50      1 D:x2-y2        11
    53      53       --         2.628 au  H             0.50      1 D:xy            6
                        (      71.513 eV)              -0.50      1 D:xy            7
                                                       -0.50      1 D:xy           10
                                                        0.50      1 D:xy           11
    54      54       --         2.628 au  H             0.50      1 D:xz            6
                        (      71.513 eV)               0.50      1 D:xz            7
                                                        0.50      1 D:xz           10
                                                        0.50      1 D:xz           11
    55      55       --         2.628 au  H             0.50      1 D:yz            6
                        (      71.513 eV)              -0.50      1 D:yz            7
                                                        0.50      1 D:yz           10
                                                       -0.50      1 D:yz           11
[...]
                               0.673    -0.158    -0.723
                               0.718    -0.097     0.690
                        -----------------------------------
 
================================================================================
 
 
===  TOTAL NMR SHIELDING TENSOR (ppm)
 
                        ***********************************
                        CARTESIAN AXIS REPRESENTATION

                        ==== total shielding tensor
                        -----------------------------------
                              29.790    -0.963    -1.717
                              -0.963    26.264    -5.398
                              -1.717    -5.398    28.546
                        -----------------------------------
                                  isotropic =     28.200

                        ***********************************
                        -----------------------------------
                        PRINCIPAL AXIS REPRESENTATION

                        ==== Principal components:

                              21.482    30.019    33.098
 
                        ==== Principal Axis System:

                              -0.216     0.948    -0.235
                              -0.750    -0.315    -0.582
                              -0.625     0.050     0.779
                        -----------------------------------
################################################################################
********************************************************************************
****  N U C L E U S : H(13)
 
 ADF-GUI atom: H(13)
 Internal NMR numbering of atoms: H(13)
 
 
================================================================================
 
 
===  PARAMAGNETIC NMR SHIELDING TENSORS (ppm)
 
    ===     paramagnetic b^(1) tensor       ===     paramagnetic u^(1) tensor
    -----------------------------------     -----------------------------------
           0.000     0.000     0.000               4.546   -14.015   -10.104
           0.000     0.000     0.000             -14.015     3.492   -10.260
           0.000     0.000     0.000             -10.104   -10.260     0.959
    -----------------------------------     -----------------------------------
              isotropic =      0.000                  isotropic =      2.999

    ===     paramagnetic s^(1) tensor       ===     paramagnetic gauge tensor
    -----------------------------------     -----------------------------------
          -3.108    15.047     9.642              -0.389    -0.540    -0.298
          15.047    -4.773     9.778              -0.540    -2.170    -0.193
           9.642     9.778    -1.578              -0.298    -0.193     0.125
    -----------------------------------     -----------------------------------
              isotropic =     -3.153                  isotropic =     -0.811

                        ***********************************
                        CARTESIAN AXIS REPRESENTATION

                        ==== total paramagnetic tensor
                        -----------------------------------
                               1.050     0.492    -0.760
                               0.492    -3.452    -0.675
                              -0.760    -0.675    -0.493
                        -----------------------------------
                                  isotropic =     -0.965

                        ***********************************
                        -----------------------------------
                        PRINCIPAL AXIS REPRESENTATION

                        ==== Principal components:

                              -3.621    -0.739     1.466
 
                        ==== Principal Axis System:

                               0.072     0.420    -0.904
                              -0.978    -0.147    -0.146
                              -0.194     0.895     0.401
                        -----------------------------------
 
================================================================================
 
 
===  DIAMAGNETIC NMR SHIELDING TENSORS (ppm)
 
    ===       diamagnetic core tensor       ===    diamagnetic valence tensor
    -----------------------------------     -----------------------------------
           0.000     0.000     0.000              28.741     0.474    -0.961
           0.000     0.000     0.000               0.474    29.717     6.081
           0.000     0.000     0.000              -0.961     6.081    29.049
    -----------------------------------     -----------------------------------
              isotropic =      0.000                  isotropic =     29.169

                        ***********************************
                        CARTESIAN AXIS REPRESENTATION

                        ==== total diamagnetic tensor
                        -----------------------------------
                              28.741     0.474    -0.961
                               0.474    29.717     6.081
                              -0.961     6.081    29.049
                        -----------------------------------
                                  isotropic =     29.169

                        ***********************************
                        -----------------------------------
                        PRINCIPAL AXIS REPRESENTATION

                        ==== Principal components:

                              23.106    28.912    35.488
 
                        ==== Principal Axis System:

                               0.179     0.983     0.047
                              -0.673     0.158    -0.723
                               0.718    -0.097    -0.690
                        -----------------------------------
 
================================================================================
 
 
===  TOTAL NMR SHIELDING TENSOR (ppm)
 
                        ***********************************
                        CARTESIAN AXIS REPRESENTATION

                        ==== total shielding tensor
                        -----------------------------------
                              29.790     0.966    -1.721
                               0.966    26.265     5.406
                              -1.721     5.406    28.555
                        -----------------------------------
                                  isotropic =     28.204

                        ***********************************
                        -----------------------------------
                        PRINCIPAL AXIS REPRESENTATION

                        ==== Principal components:

                              21.477    30.021    33.112
 
                        ==== Principal Axis System:

                               0.217     0.948    -0.234
                              -0.750     0.315     0.582
                               0.625     0.050     0.779
                        -----------------------------------
################################################################################
********************************************************************************
****  N U C L E U S : Cl(14)
 
 ADF-GUI atom: Cl(14)
 Internal NMR numbering of atoms: Cl(14)
 
 
================================================================================
 
 
===  PARAMAGNETIC NMR SHIELDING TENSORS (ppm)
 
    ===     paramagnetic b^(1) tensor       ===     paramagnetic u^(1) tensor
    -----------------------------------     -----------------------------------
           0.000     0.000     0.000            -206.894   -72.531   281.134
           0.000     0.000     0.000             -72.531  -551.693   194.008
           0.000     0.000     0.000             281.134   194.008  -286.768
    -----------------------------------     -----------------------------------
              isotropic =      0.000                  isotropic =   -348.452

    ===     paramagnetic s^(1) tensor       ===     paramagnetic gauge tensor
    -----------------------------------     -----------------------------------
          58.967    55.172  -146.554              -0.791    -2.242     1.317
          55.172    73.978   -72.857              -2.242    -2.805     4.521
        -146.554   -72.857     2.717               1.317     4.521    -3.114
    -----------------------------------     -----------------------------------
              isotropic =     45.220                  isotropic =     -2.237

                        ***********************************
                        CARTESIAN AXIS REPRESENTATION

                        ==== total paramagnetic tensor
                        -----------------------------------
                            -148.718   -19.600   135.897
                             -19.600  -480.520   125.672
                             135.897   125.672  -287.166
                        -----------------------------------
                                  isotropic =   -305.468

                        ***********************************
                        -----------------------------------
                        PRINCIPAL AXIS REPRESENTATION

                        ==== Principal components:

                            -558.618  -298.711   -59.075
 
                        ==== Principal Axis System:

                              -0.204     0.536    -0.819
                              -0.845    -0.518    -0.129
                               0.494    -0.666    -0.559
                        -----------------------------------
 
================================================================================
 
 
===  DIAMAGNETIC NMR SHIELDING TENSORS (ppm)
 
    ===       diamagnetic core tensor       ===    diamagnetic valence tensor
    -----------------------------------     -----------------------------------
           0.000     0.000     0.000            1150.818     0.000     4.555
           0.000     0.000     0.000               0.000  1141.771    -0.001
           0.000     0.000     0.000               4.555    -0.001  1146.941
    -----------------------------------     -----------------------------------
              isotropic =      0.000                  isotropic =   1146.510

                        ***********************************
                        CARTESIAN AXIS REPRESENTATION

                        ==== total diamagnetic tensor
                        -----------------------------------
                            1150.818     0.000     4.555
                               0.000  1141.771    -0.001
                               4.555    -0.001  1146.941
                        -----------------------------------
                                  isotropic =   1146.510

                        ***********************************
                        -----------------------------------
                        PRINCIPAL AXIS REPRESENTATION

                        ==== Principal components:

                            1141.771  1143.929  1153.830
 
                        ==== Principal Axis System:

                              -0.000    -0.552     0.834
                               1.000    -0.000    -0.000
                               0.000     0.834     0.552
                        -----------------------------------
 
================================================================================
 
 
===  TOTAL NMR SHIELDING TENSOR (ppm)
 
                        ***********************************
                        CARTESIAN AXIS REPRESENTATION

                        ==== total shielding tensor
                        -----------------------------------
                            1002.099   -19.600   140.452
                             -19.600   661.251   125.671
                             140.452   125.671   859.775
                        -----------------------------------
                                  isotropic =    841.042

                        ***********************************
                        -----------------------------------
                        PRINCIPAL AXIS REPRESENTATION

                        ==== Principal components:

                             583.867   844.700  1094.559
 
                        ==== Principal Axis System:

                              -0.204     0.534    -0.821
                              -0.847    -0.516    -0.125
                               0.490    -0.670    -0.558
                        -----------------------------------
################################################################################
********************************************************************************
****  N U C L E U S : Cl(15)
 
 ADF-GUI atom: Cl(15)
 Internal NMR numbering of atoms: Cl(15)
 
 
================================================================================
 
 
===  PARAMAGNETIC NMR SHIELDING TENSORS (ppm)
 
    ===     paramagnetic b^(1) tensor       ===     paramagnetic u^(1) tensor
    -----------------------------------     -----------------------------------
           0.000     0.000     0.000            -206.867    -0.004  -281.298
           0.000     0.000     0.000              -0.004  -551.949    -0.007
           0.000     0.000     0.000            -281.298    -0.007  -287.049
    -----------------------------------     -----------------------------------
              isotropic =      0.000                  isotropic =   -348.622

    ===     paramagnetic s^(1) tensor       ===     paramagnetic gauge tensor
    -----------------------------------     -----------------------------------
          58.937    -0.000   146.512              -0.791     0.000    -1.316
          -0.000    73.997    -0.000               0.000    -2.805     0.000
         146.512    -0.000     2.718              -1.316     0.000    -3.114
    -----------------------------------     -----------------------------------
              isotropic =     45.218                  isotropic =     -2.237

                        ***********************************
                        CARTESIAN AXIS REPRESENTATION

                        ==== total paramagnetic tensor
                        -----------------------------------
                            -148.720    -0.004  -136.103
                              -0.004  -480.757    -0.007
                            -136.103    -0.007  -287.445
                        -----------------------------------
                                  isotropic =   -305.641

                        ***********************************
                        -----------------------------------
                        PRINCIPAL AXIS REPRESENTATION

                        ==== Principal components:

                            -480.757  -370.841   -65.324
 
                        ==== Principal Axis System:

                              -0.000     0.522    -0.853
                              -1.000    -0.000    -0.000
                              -0.000     0.853     0.522
                        -----------------------------------
 
================================================================================
 
 
===  DIAMAGNETIC NMR SHIELDING TENSORS (ppm)
 
    ===       diamagnetic core tensor       ===    diamagnetic valence tensor
    -----------------------------------     -----------------------------------
           0.000     0.000     0.000            1149.960     0.000    -4.556
           0.000     0.000     0.000               0.000  1142.480     0.000
           0.000     0.000     0.000              -4.556     0.000  1146.083
    -----------------------------------     -----------------------------------
              isotropic =      0.000                  isotropic =   1146.174

                        ***********************************
                        CARTESIAN AXIS REPRESENTATION

                        ==== total diamagnetic tensor
                        -----------------------------------
                            1149.960     0.000    -4.556
                               0.000  1142.480     0.000
                              -4.556     0.000  1146.083
                        -----------------------------------
                                  isotropic =   1146.174

                        ***********************************
                        -----------------------------------
                        PRINCIPAL AXIS REPRESENTATION

                        ==== Principal components:

                            1142.480  1143.070  1152.973
 
                        ==== Principal Axis System:

                              -0.000     0.552     0.834
                               1.000     0.000    -0.000
                              -0.000     0.834    -0.552
                        -----------------------------------
 
================================================================================
 
 
===  TOTAL NMR SHIELDING TENSOR (ppm)
 
                        ***********************************
                        CARTESIAN AXIS REPRESENTATION

                        ==== total shielding tensor
                        -----------------------------------
                            1001.240    -0.004  -140.659
                              -0.004   661.723    -0.007
                            -140.659    -0.007   858.638
                        -----------------------------------
                                  isotropic =    840.534

                        ***********************************
                        -----------------------------------
                        PRINCIPAL AXIS REPRESENTATION

                        ==== Principal components:

                             661.723   772.241  1087.637
 
                        ==== Principal Axis System:

                              -0.000     0.523    -0.852
                              -1.000    -0.000    -0.000
                              -0.000     0.852     0.523
                        -----------------------------------
 *******************************************************************************

                             N M R   E X I T
 NORMAL TERMINATION



 =================
 Timing Statistics
 =================
  
 Total Used :                     CPU=      193.08      System=        3.81     Elapsed=      223.25

 Calls  Section                     ( Mean, Percentage )
 ---------------------------------------------------------------------------------------------------
     3  ><      ................      0.00    0.01             0.00    0.11             0.01    0.01
     1  INIT    ................      0.36    0.19             0.01    0.26             0.50    0.23
     1  RDEIGX  ................     46.91   24.29             0.48   12.49            52.37   23.46
     1  AOF1K   ................      4.00    2.07             0.10    2.72             4.39    1.97
    15  AOPKK   ................      4.46   34.68             0.12   48.92             5.37   36.08
    15  XSIGP   ................      0.01    0.06             0.00    0.01             0.01    0.06
    15  AODKKK  ................      4.98   38.67             0.09   35.09             5.68   38.16
    15  XDV     ................      0.00    0.02             0.00    0.11             0.00    0.03
    15  XSIGD   ................      0.00    0.00             0.00    0.00             0.00    0.00
     1  EXIT PROCEDURE .........      0.01    0.00             0.01    0.31             0.02    0.01


 Currently Open Files (EXIT00)
 ====================

 Unit    Access Format  Status   Type       Ident (file)
 -------------------------------------------------------
   3      SEQ    FORM   TRANSP  NORMAL      LOGFILE
                                          ( /home/milias/work/projects/open-collection/theoretical_chemistry/projects/nmr_diplomovky/HD/ams/pbe0_tz2p_good/no_solvent/HD.geopt_freq_nmr_shield_pbe0_tz2p_good.logfile )
