LAMMPS (29 Sep 2021 - Update 2)
OMP_NUM_THREADS environment is not set. Defaulting to 1 thread. (src/comm.cpp:98)
  using 1 OpenMP thread(s) per MPI task
units real
atom_style full

read_data silica.data
Reading data file ...
  orthogonal box = (-3.1662119 2.4397298 1.5469185) to (23.751790 18.145848 19.038659)
  2 by 1 by 2 MPI processor grid
  reading atoms ...
  576 atoms
  reading velocities ...
  576 velocities
Finding 1-2 1-3 1-4 neighbors ...
  special bond factors lj:    0        0        0       
  special bond factors coul:  0        0        0       
     0 = max # of 1-2 neighbors
     0 = max # of 1-3 neighbors
     0 = max # of 1-4 neighbors
     1 = max # of special neighbors
  special bonds CPU = 0.001 seconds
  read_data CPU = 0.015 seconds

mass 1 28.0855 # Si
mass 2 15.999 # O


pair_style reaxff NULL safezone 3.0 mincap 150
ERROR: Unrecognized pair style 'reaxff' is part of the REAXFF package which is not enabled in this LAMMPS binary. (src/force.cpp:278)
Last command: pair_style reaxff NULL safezone 3.0 mincap 150
