 argument  1 = /home/milias/Work/open-collection/theoretical_chemistry/projects/nmr_diplomovky/derivaty_markerov/derivative_2/nwchem/geom_optimiz_nmr/der2.odft_geomopt_nmr_b3lyp_cosmo-chcl3_ccpvdz.nw
 


============================== echo of input deck ==============================
echo

start molecule

memory total 40 gb

print low

title "der2"
charge 0

# spin-spin coupling only for odft
dft
  odft
  mult 1
end

geometry units angstroms print xyz autosym
#  load format xyz VX.converged_geometry_blyp_tz2p-solvent-chcl3.xyz
#  load format xyz VX.geom.xyz
 # load format xyz der1.pbe0_tz2p_good_cosmo-chcl3_optimized_geom.xyz
  load format xyz der2.geopt_freq_nmr_pbe0_tz2p_good_cosmo-chcl3_converged_geometry.xyz
end

basis
  * library cc-pvdz
end

dft
  direct
  grid fine
  xc b3lyp
  mult 1
# Reduce output during geometry optimization
  noprint "final vectors analysis"
end

driver
  tight
  maxiter 9999
  xyz der2_geom_ccpvdz
end


property
  giao
  shielding 1  2
  spinspin  3  2 23 2 30 2 31
end

cosmo
  solvent chcl3
end

task dft optimize
task dft property
================================================================================


                                         
                                         
 
 
             Northwest Computational Chemistry Package (NWChem) 7.0.1
             --------------------------------------------------------
 
 
                    Environmental Molecular Sciences Laboratory
                       Pacific Northwest National Laboratory
                                Richland, WA 99352
 
                              Copyright (c) 1994-2020
                       Pacific Northwest National Laboratory
                            Battelle Memorial Institute
 
             NWChem is an open-source computational chemistry package
                        distributed under the terms of the
                      Educational Community License (ECL) 2.0
             A copy of the license is included with this distribution
                              in the LICENSE.TXT file
 
                                  ACKNOWLEDGMENT
                                  --------------

            This software and its documentation were developed at the
            EMSL at Pacific Northwest National Laboratory, a multiprogram
            national laboratory, operated for the U.S. Department of Energy
            by Battelle under Contract Number DE-AC05-76RL01830. Support
            for this work was provided by the Department of Energy Office
            of Biological and Environmental Research, Office of Basic
            Energy Sciences, and the Office of Advanced Scientific Computing.


           Job information
           ---------------

    hostname        = comp37.grid.umb.sk
    program         = /home/milias/Work/qch/software/nwchem_suite/nwchem_master/bin/LINUX64/nwchem
    date            = Sun Sep 12 18:55:35 2021

    compiled        = Sat_Sep_11_13:54:11_2021
    source          = /home/milias/Work/qch/software/nwchem_suite/nwchem_master
    nwchem branch   = 7.0.0
    nwchem revision = nwchem_on_git-2853-g04c637f
    ga revision     = 5.8.0
    use scalapack   = F
    input           = /home/milias/Work/open-collection/theoretical_chemistry/projects/nmr_diplomovky/derivaty_markerov/derivative_2/nwchem/geom_optimiz_nmr/der2.odft_geomopt_nmr_b3lyp_cosmo-chcl3_ccpvdz.nw
    prefix          = molecule.
    data base       = ./molecule.db
    status          = startup
    nproc           =       12
    time left       =     -1s



           Memory information
           ------------------

    heap     = 1342177274 doubles =  10240.0 Mbytes
    stack    = 1342177279 doubles =  10240.0 Mbytes
    global   = 2684354560 doubles =  20480.0 Mbytes (distinct from heap & stack)
    total    = 5368709113 doubles =  40960.0 Mbytes
    verify   = yes
    hardfail = no 


           Directory information
           ---------------------
 
  0 permanent = .
  0 scratch   = .
 
 
 
 
                                NWChem Input Module
                                -------------------
 
 
                                       der2
                                       ----

 Scaling coordinates for geometry "geometry" by  1.889725989
 (inverse scale =  0.529177249)


          ------
          auto-z
          ------
  no constraints, skipping   0.000000000000000E+000
  no constraints, skipping   0.000000000000000E+000
 
 
                             Geometry "geometry" -> ""
                             -------------------------
 
 Output coordinates in angstroms (scale by  1.889725989 to convert to a.u.)
 
  No.       Tag          Charge          X              Y              Z
 ---- ---------------- ---------- -------------- -------------- --------------
    1 O                    8.0000    -0.04341044    -0.73369813    -0.04085401
    2 P                   15.0000    -0.44611685     0.47703258    -1.05343430
    3 O                    8.0000     0.83720009     1.48585040    -1.04137126
    4 O                    8.0000    -1.28975000     1.37172392     0.02064437
    5 C                    6.0000     0.84108504     2.39610613     0.08887089
    6 C                    6.0000    -0.67674430     2.64706668     0.32804480
    7 C                    6.0000     1.53348750     1.72111364     1.26334319
    8 C                    6.0000     1.61284146     3.63086321    -0.32700096
    9 C                    6.0000    -1.26605170     3.67640246    -0.62378209
   10 C                    6.0000    -1.02568757     2.99451554     1.76012825
   11 H                    1.0000     1.66107846     2.42286749     2.08854573
   12 H                    1.0000     0.98002643     0.85289405     1.61631651
   13 H                    1.0000     2.52215176     1.39017053     0.94319721
   14 H                    1.0000     1.23639267     4.04556628    -1.26021739
   15 H                    1.0000     1.54820876     4.39619674     0.44881612
   16 H                    1.0000     2.66469413     3.37618356    -0.46141862
   17 H                    1.0000    -0.92294367     4.68206117    -0.37963408
   18 H                    1.0000    -1.00229208     3.45958160    -1.65979489
   19 H                    1.0000    -2.35248448     3.65478089    -0.53418895
   20 H                    1.0000    -0.51750808     3.91290247     2.06034667
   21 H                    1.0000    -2.10007263     3.16035386     1.84572717
   22 H                    1.0000    -0.74337543     2.19790863     2.44577211
   23 C                    6.0000     0.27747309    -2.00999264    -0.58709657
   24 C                    6.0000    -0.38988564    -3.07281736     0.26282843
   25 N                    7.0000    -0.04881684    -4.41716103    -0.16101358
   26 C                    6.0000     1.29387398    -4.79179613     0.23888988
   27 H                    1.0000    -2.00978854    -5.12664754     0.00115322
   28 H                    1.0000     1.51908242    -5.79393874    -0.12845467
   29 C                    6.0000    -1.00692680    -5.37744254     0.34913174
   30 H                    1.0000    -0.07040759    -2.08538831    -1.62252377
   31 H                    1.0000     1.36372261    -2.12034771    -0.58801192
   32 H                    1.0000    -1.47086993    -2.94513519     0.17386901
   33 H                    1.0000    -0.13145960    -2.89978976     1.32199975
   34 H                    1.0000    -1.02302957    -5.41235605     1.45178254
   35 H                    1.0000     1.41486849    -4.79273521     1.33573382
   36 H                    1.0000     2.03168980    -4.11023581    -0.18315365
   37 H                    1.0000    -0.75732086    -6.37537787    -0.01475063
 
      Atomic Mass 
      ----------- 
 
      O                 15.994910
      P                 30.973760
      C                 12.000000
      H                  1.007825
      N                 14.003070
 

 Effective nuclear repulsion energy (a.u.)    1268.2890542614

            Nuclear Dipole moment (a.u.) 
            ----------------------------
        X                 Y               Z
 ---------------- ---------------- ----------------
     0.0000000000    -0.0000000000    -0.0000000000
 


                                Z-matrix (autoz)
                                -------- 

 Units are Angstrom for bonds and degrees for angles
 
      Type          Name      I     J     K     L     M      Value
      ----------- --------  ----- ----- ----- ----- ----- ----------
    1 Stretch                  1     2                       1.62891
    2 Stretch                  1    23                       1.42488
    3 Stretch                  2     3                       1.63241
    4 Stretch                  2     4                       1.63274
    5 Stretch                  3     5                       1.45122
    6 Stretch                  4     6                       1.44802
    7 Stretch                  5     6                       1.55692
    8 Stretch                  5     7                       1.52132
    9 Stretch                  5     8                       1.51433
   10 Stretch                  6     9                       1.52079
   11 Stretch                  6    10                       1.51438
   12 Stretch                  7    11                       1.09073
   13 Stretch                  7    12                       1.08845
   14 Stretch                  7    13                       1.09063
   15 Stretch                  8    14                       1.08839
   16 Stretch                  8    15                       1.09170
   17 Stretch                  8    16                       1.09056
   18 Stretch                  9    17                       1.09027
   19 Stretch                  9    18                       1.09083
   20 Stretch                  9    19                       1.09034
   21 Stretch                 10    20                       1.09170
   22 Stretch                 10    21                       1.09047
   23 Stretch                 10    22                       1.08830
   24 Stretch                 23    24                       1.51570
   25 Stretch                 23    30                       1.09490
   26 Stretch                 23    31                       1.09184
   27 Stretch                 24    25                       1.45025
   28 Stretch                 24    32                       1.09213
   29 Stretch                 24    33                       1.10389
   30 Stretch                 25    26                       1.45020
   31 Stretch                 25    29                       1.44926
   32 Stretch                 26    28                       1.09085
   33 Stretch                 26    35                       1.10350
   34 Stretch                 26    36                       1.08950
   35 Stretch                 27    29                       1.09074
   36 Stretch                 29    34                       1.10332
   37 Stretch                 29    37                       1.09114
   38 Bend                     1     2     3               105.09322
   39 Bend                     1     2     4                97.24432
   40 Bend                     1    23    24               108.29843
   41 Bend                     1    23    30               110.65034
   42 Bend                     1    23    31               108.35489
   43 Bend                     2     1    23               118.89033
   44 Bend                     2     3     5               113.29639
   45 Bend                     2     4     6               113.79946
   46 Bend                     3     2     4                93.59475
   47 Bend                     3     5     6               102.59969
   48 Bend                     3     5     7               108.91586
   49 Bend                     3     5     8               107.39265
   50 Bend                     4     6     5               103.77626
   51 Bend                     4     6     9               107.41057
   52 Bend                     4     6    10               107.77501
   53 Bend                     5     6     9               112.99973
   54 Bend                     5     6    10               114.00959
   55 Bend                     5     7    11               110.60048
   56 Bend                     5     7    12               111.89103
   57 Bend                     5     7    13               108.69906
   58 Bend                     5     8    14               111.70835
   59 Bend                     5     8    15               110.26048
   60 Bend                     5     8    16               109.57130
   61 Bend                     6     5     7               113.36754
   62 Bend                     6     5     8               114.05402
   63 Bend                     6     9    17               111.23640
   64 Bend                     6     9    18               111.48121
   65 Bend                     6     9    19               108.73941
   66 Bend                     6    10    20               110.23103
   67 Bend                     6    10    21               109.64210
   68 Bend                     6    10    22               111.59641
   69 Bend                     7     5     8               109.98882
   70 Bend                     9     6    10               110.32149
   71 Bend                    11     7    12               109.10738
   72 Bend                    11     7    13               108.13573
   73 Bend                    12     7    13               108.30615
   74 Bend                    14     8    15               108.76819
   75 Bend                    14     8    16               108.47551
   76 Bend                    15     8    16               107.96347
   77 Bend                    17     9    18               108.65870
   78 Bend                    17     9    19               108.26819
   79 Bend                    18     9    19               108.36275
   80 Bend                    20    10    21               108.00518
   81 Bend                    20    10    22               108.76958
   82 Bend                    21    10    22               108.50842
   83 Bend                    23    24    25               112.49323
   84 Bend                    23    24    32               107.94779
   85 Bend                    23    24    33               108.96844
   86 Bend                    24    23    30               110.00532
   87 Bend                    24    23    31               111.57016
   88 Bend                    24    25    26               112.12447
   89 Bend                    24    25    29               110.84618
   90 Bend                    25    24    32               108.50258
   91 Bend                    25    24    33               111.75610
   92 Bend                    25    26    28               109.60969
   93 Bend                    25    26    35               112.07570
   94 Bend                    25    26    36               111.01255
   95 Bend                    25    29    27               110.07108
   96 Bend                    25    29    34               112.48276
   97 Bend                    25    29    37               109.71733
   98 Bend                    26    25    29               110.11168
   99 Bend                    27    29    34               108.22156
  100 Bend                    27    29    37               108.31394
  101 Bend                    28    26    35               108.13772
  102 Bend                    28    26    36               107.72453
  103 Bend                    30    23    31               107.95965
  104 Bend                    32    24    33               106.95061
  105 Bend                    34    29    37               107.91966
  106 Bend                    35    26    36               108.13856
  107 Torsion                  1     2     3     5         -82.12025
  108 Torsion                  1     2     4     6         113.85827
  109 Torsion                  1    23    24    25        -176.12111
  110 Torsion                  1    23    24    32          64.19786
  111 Torsion                  1    23    24    33         -51.61224
  112 Torsion                  2     1    23    24        -137.12910
  113 Torsion                  2     1    23    30         -16.48541
  114 Torsion                  2     1    23    31         101.69329
  115 Torsion                  2     3     5     6         -32.97790
  116 Torsion                  2     3     5     7          87.43406
  117 Torsion                  2     3     5     8        -153.48746
  118 Torsion                  2     4     6     5         -27.36425
  119 Torsion                  2     4     6     9          92.53668
  120 Torsion                  2     4     6    10        -148.59896
  121 Torsion                  3     2     1    23        -107.45302
  122 Torsion                  3     2     4     6           8.13516
  123 Torsion                  3     5     6     4          35.58340
  124 Torsion                  3     5     6     9         -80.44125
  125 Torsion                  3     5     6    10         152.53942
  126 Torsion                  3     5     7    11         173.06517
  127 Torsion                  3     5     7    12         -65.07036
  128 Torsion                  3     5     7    13          54.49165
  129 Torsion                  3     5     8    14          52.45457
  130 Torsion                  3     5     8    15         173.52527
  131 Torsion                  3     5     8    16         -67.78010
  132 Torsion                  4     2     1    23         156.82256
  133 Torsion                  4     2     3     5          16.37957
  134 Torsion                  4     6     5     7         -81.70273
  135 Torsion                  4     6     5     8         151.38095
  136 Torsion                  4     6     9    17         174.16519
  137 Torsion                  4     6     9    18         -64.38251
  138 Torsion                  4     6     9    19          55.02412
  139 Torsion                  4     6    10    20         175.53112
  140 Torsion                  4     6    10    21         -65.69739
  141 Torsion                  4     6    10    22          54.55373
  142 Torsion                  5     6     9    17         -71.99233
  143 Torsion                  5     6     9    18          49.45996
  144 Torsion                  5     6     9    19         168.86660
  145 Torsion                  5     6    10    20          60.91401
  146 Torsion                  5     6    10    21         179.68551
  147 Torsion                  5     6    10    22         -60.06338
  148 Torsion                  6     5     7    11         -73.40309
  149 Torsion                  6     5     7    12          48.46137
  150 Torsion                  6     5     7    13         168.02338
  151 Torsion                  6     5     8    14         -60.50894
  152 Torsion                  6     5     8    15          60.56176
  153 Torsion                  6     5     8    16         179.25638
  154 Torsion                  7     5     6     9         162.27262
  155 Torsion                  7     5     6    10          35.25328
  156 Torsion                  7     5     8    14         170.84182
  157 Torsion                  7     5     8    15         -68.08748
  158 Torsion                  7     5     8    16          50.60714
  159 Torsion                  8     5     6     9          35.35630
  160 Torsion                  8     5     6    10         -91.66304
  161 Torsion                  8     5     7    11          55.62065
  162 Torsion                  8     5     7    12         177.48511
  163 Torsion                  8     5     7    13         -62.95288
  164 Torsion                  9     6    10    20         -67.48137
  165 Torsion                  9     6    10    21          51.29013
  166 Torsion                  9     6    10    22         171.54124
  167 Torsion                 10     6     9    17          56.95186
  168 Torsion                 10     6     9    18         178.40416
  169 Torsion                 10     6     9    19         -62.18921
  170 Torsion                 23    24    25    26          75.38476
  171 Torsion                 23    24    25    29        -161.11140
  172 Torsion                 24    25    26    28        -178.11163
  173 Torsion                 24    25    26    35          61.81523
  174 Torsion                 24    25    26    36         -59.22630
  175 Torsion                 24    25    29    27          58.52919
  176 Torsion                 24    25    29    34         -62.23527
  177 Torsion                 24    25    29    37         177.62853
  178 Torsion                 25    24    23    30          62.83505
  179 Torsion                 25    24    23    31         -56.95262
  180 Torsion                 26    25    24    32        -165.25683
  181 Torsion                 26    25    24    33         -47.57453
  182 Torsion                 26    25    29    27        -176.81775
  183 Torsion                 26    25    29    34          62.41779
  184 Torsion                 26    25    29    37         -57.71840
  185 Torsion                 28    26    25    29          57.97336
  186 Torsion                 29    25    24    32         -41.75299
  187 Torsion                 29    25    24    33          75.92931
  188 Torsion                 29    25    26    35         -62.09978
  189 Torsion                 29    25    26    36         176.85868
  190 Torsion                 30    23    24    32         -56.84598
  191 Torsion                 30    23    24    33        -172.65608
  192 Torsion                 31    23    24    32        -176.63365
  193 Torsion                 31    23    24    33          67.55626
 
 
            XYZ format geometry
            -------------------
    37
 geometry
 O                    -0.04341044    -0.73369813    -0.04085401
 P                    -0.44611685     0.47703258    -1.05343430
 O                     0.83720009     1.48585040    -1.04137126
 O                    -1.28975000     1.37172392     0.02064437
 C                     0.84108504     2.39610613     0.08887089
 C                    -0.67674430     2.64706668     0.32804480
 C                     1.53348750     1.72111364     1.26334319
 C                     1.61284146     3.63086321    -0.32700096
 C                    -1.26605170     3.67640246    -0.62378209
 C                    -1.02568757     2.99451554     1.76012825
 H                     1.66107846     2.42286749     2.08854573
 H                     0.98002643     0.85289405     1.61631651
 H                     2.52215176     1.39017053     0.94319721
 H                     1.23639267     4.04556628    -1.26021739
 H                     1.54820876     4.39619674     0.44881612
 H                     2.66469413     3.37618356    -0.46141862
 H                    -0.92294367     4.68206117    -0.37963408
 H                    -1.00229208     3.45958160    -1.65979489
 H                    -2.35248448     3.65478089    -0.53418895
 H                    -0.51750808     3.91290247     2.06034667
 H                    -2.10007263     3.16035386     1.84572717
 H                    -0.74337543     2.19790863     2.44577211
 C                     0.27747309    -2.00999264    -0.58709657
 C                    -0.38988564    -3.07281736     0.26282843
 N                    -0.04881684    -4.41716103    -0.16101358
 C                     1.29387398    -4.79179613     0.23888988
 H                    -2.00978854    -5.12664754     0.00115322
 H                     1.51908242    -5.79393874    -0.12845467
 C                    -1.00692680    -5.37744254     0.34913174
 H                    -0.07040759    -2.08538831    -1.62252377
 H                     1.36372261    -2.12034771    -0.58801192
 H                    -1.47086993    -2.94513519     0.17386901
 H                    -0.13145960    -2.89978976     1.32199975
 H                    -1.02302957    -5.41235605     1.45178254
 H                     1.41486849    -4.79273521     1.33573382
 H                     2.03168980    -4.11023581    -0.18315365
 H                    -0.75732086    -6.37537787    -0.01475063
 
 ==============================================================================
                                internuclear distances
 ------------------------------------------------------------------------------
       center one      |      center two      | atomic units |  angstroms
 ------------------------------------------------------------------------------
    2 P                |   1 O                |     3.07820  |     1.62891
    3 O                |   2 P                |     3.08481  |     1.63241
    4 O                |   2 P                |     3.08543  |     1.63274
    5 C                |   3 O                |     2.74240  |     1.45122
    6 C                |   4 O                |     2.73637  |     1.44802
    6 C                |   5 C                |     2.94215  |     1.55692
    7 C                |   5 C                |     2.87488  |     1.52132
    8 C                |   5 C                |     2.86166  |     1.51433
    9 C                |   6 C                |     2.87387  |     1.52079
   10 C                |   6 C                |     2.86176  |     1.51438
   11 H                |   7 C                |     2.06119  |     1.09073
   12 H                |   7 C                |     2.05686  |     1.08845
   13 H                |   7 C                |     2.06099  |     1.09063
   14 H                |   8 C                |     2.05675  |     1.08839
   15 H                |   8 C                |     2.06301  |     1.09170
   16 H                |   8 C                |     2.06086  |     1.09056
   17 H                |   9 C                |     2.06030  |     1.09027
   18 H                |   9 C                |     2.06136  |     1.09083
   19 H                |   9 C                |     2.06043  |     1.09034
   20 H                |  10 C                |     2.06302  |     1.09170
   21 H                |  10 C                |     2.06070  |     1.09047
   22 H                |  10 C                |     2.05658  |     1.08830
   23 C                |   1 O                |     2.69263  |     1.42488
   24 C                |  23 C                |     2.86425  |     1.51570
   25 N                |  24 C                |     2.74058  |     1.45025
   26 C                |  25 N                |     2.74049  |     1.45020
   28 H                |  26 C                |     2.06140  |     1.09085
   29 C                |  25 N                |     2.73871  |     1.44926
   29 C                |  27 H                |     2.06120  |     1.09074
   30 H                |  23 C                |     2.06907  |     1.09490
   31 H                |  23 C                |     2.06328  |     1.09184
   32 H                |  24 C                |     2.06382  |     1.09213
   33 H                |  24 C                |     2.08604  |     1.10389
   34 H                |  29 C                |     2.08497  |     1.10332
   35 H                |  26 C                |     2.08531  |     1.10350
   36 H                |  26 C                |     2.05886  |     1.08950
   37 H                |  29 C                |     2.06196  |     1.09114
 ------------------------------------------------------------------------------
                         number of included internuclear distances:         37
 ==============================================================================



 ==============================================================================
                                 internuclear angles
 ------------------------------------------------------------------------------
        center 1       |       center 2       |       center 3       |  degrees
 ------------------------------------------------------------------------------
    2 P                |   1 O                |  23 C                |   118.89
    1 O                |   2 P                |   3 O                |   105.09
    1 O                |   2 P                |   4 O                |    97.24
    3 O                |   2 P                |   4 O                |    93.59
    2 P                |   3 O                |   5 C                |   113.30
    2 P                |   4 O                |   6 C                |   113.80
    3 O                |   5 C                |   6 C                |   102.60
    3 O                |   5 C                |   7 C                |   108.92
    3 O                |   5 C                |   8 C                |   107.39
    6 C                |   5 C                |   7 C                |   113.37
    6 C                |   5 C                |   8 C                |   114.05
    7 C                |   5 C                |   8 C                |   109.99
    4 O                |   6 C                |   5 C                |   103.78
    4 O                |   6 C                |   9 C                |   107.41
    4 O                |   6 C                |  10 C                |   107.78
    5 C                |   6 C                |   9 C                |   113.00
    5 C                |   6 C                |  10 C                |   114.01
    9 C                |   6 C                |  10 C                |   110.32
    5 C                |   7 C                |  11 H                |   110.60
    5 C                |   7 C                |  12 H                |   111.89
    5 C                |   7 C                |  13 H                |   108.70
   11 H                |   7 C                |  12 H                |   109.11
   11 H                |   7 C                |  13 H                |   108.14
   12 H                |   7 C                |  13 H                |   108.31
    5 C                |   8 C                |  14 H                |   111.71
    5 C                |   8 C                |  15 H                |   110.26
    5 C                |   8 C                |  16 H                |   109.57
   14 H                |   8 C                |  15 H                |   108.77
   14 H                |   8 C                |  16 H                |   108.48
   15 H                |   8 C                |  16 H                |   107.96
    6 C                |   9 C                |  17 H                |   111.24
    6 C                |   9 C                |  18 H                |   111.48
    6 C                |   9 C                |  19 H                |   108.74
   17 H                |   9 C                |  18 H                |   108.66
   17 H                |   9 C                |  19 H                |   108.27
   18 H                |   9 C                |  19 H                |   108.36
    6 C                |  10 C                |  20 H                |   110.23
    6 C                |  10 C                |  21 H                |   109.64
    6 C                |  10 C                |  22 H                |   111.60
   20 H                |  10 C                |  21 H                |   108.01
   20 H                |  10 C                |  22 H                |   108.77
   21 H                |  10 C                |  22 H                |   108.51
    1 O                |  23 C                |  24 C                |   108.30
    1 O                |  23 C                |  30 H                |   110.65
    1 O                |  23 C                |  31 H                |   108.35
   24 C                |  23 C                |  30 H                |   110.01
   24 C                |  23 C                |  31 H                |   111.57
   30 H                |  23 C                |  31 H                |   107.96
   23 C                |  24 C                |  25 N                |   112.49
   23 C                |  24 C                |  32 H                |   107.95
   23 C                |  24 C                |  33 H                |   108.97
   25 N                |  24 C                |  32 H                |   108.50
   25 N                |  24 C                |  33 H                |   111.76
   32 H                |  24 C                |  33 H                |   106.95
   24 C                |  25 N                |  26 C                |   112.12
   24 C                |  25 N                |  29 C                |   110.85
   26 C                |  25 N                |  29 C                |   110.11
   25 N                |  26 C                |  28 H                |   109.61
   25 N                |  26 C                |  35 H                |   112.08
   25 N                |  26 C                |  36 H                |   111.01
   28 H                |  26 C                |  35 H                |   108.14
   28 H                |  26 C                |  36 H                |   107.72
   35 H                |  26 C                |  36 H                |   108.14
   25 N                |  29 C                |  27 H                |   110.07
   25 N                |  29 C                |  34 H                |   112.48
   25 N                |  29 C                |  37 H                |   109.72
   27 H                |  29 C                |  34 H                |   108.22
   27 H                |  29 C                |  37 H                |   108.31
   34 H                |  29 C                |  37 H                |   107.92
 ------------------------------------------------------------------------------
                            number of included internuclear angles:         69
 ==============================================================================





 Summary of "ao basis" -> "" (cartesian)
 ------------------------------------------------------------------------------
       Tag                 Description            Shells   Functions and Types
 ---------------- ------------------------------  ------  ---------------------
 *                          cc-pvdz                   on all atoms 


 
 
                           NWChem Geometry Optimization
                           ----------------------------
 
 
 
 
                                       der2
 
 
  no constraints, skipping   0.000000000000000E+000
 maximum gradient threshold         (gmax) =   0.000015
 rms gradient threshold             (grms) =   0.000010
 maximum cartesian step threshold   (xmax) =   0.000060
 rms cartesian step threshold       (xrms) =   0.000040
 fixed trust radius                (trust) =   0.300000
 maximum step size to saddle      (sadstp) =   0.100000
 energy precision                  (eprec) =   5.0D-06
 maximum number of steps          (nptopt) = 9999
 initial hessian option           (inhess) =    0
 line search option               (linopt) =    1
 hessian update option            (modupd) =    1
 saddle point option              (modsad) =    0
 initial eigen-mode to follow     (moddir) =    0
 initial variable to follow       (vardir) =    0
 follow first negative mode     (firstneg) =    T
 apply conjugacy                    (opcg) =    F
 source of zmatrix                         =   autoz   


          -------------------
          Energy Minimization
          -------------------

 
 Names of Z-matrix variables 
    1              2              3              4              5         
    6              7              8              9             10         
   11             12             13             14             15         
   16             17             18             19             20         
   21             22             23             24             25         
   26             27             28             29             30         
   31             32             33             34             35         
   36             37             38             39             40         
   41             42             43             44             45         
   46             47             48             49             50         
   51             52             53             54             55         
   56             57             58             59             60         
   61             62             63             64             65         
   66             67             68             69             70         
   71             72             73             74             75         
   76             77             78             79             80         
   81             82             83             84             85         
   86             87             88             89             90         
   91             92             93             94             95         
   96             97             98             99            100         
  101            102            103            104            105         
  106            107            108            109            110         
  111            112            113            114            115         
  116            117            118            119            120         
  121            122            123            124            125         
  126            127            128            129            130         
  131            132            133            134            135         
  136            137            138            139            140         
  141            142            143            144            145         
  146            147            148            149            150         
  151            152            153            154            155         
  156            157            158            159            160         
  161            162            163            164            165         
  166            167            168            169            170         
  171            172            173            174            175         
  176            177            178            179            180         
  181            182            183            184            185         
  186            187            188            189            190         
  191            192            193         
 
 Variables with the same non-blank name are constrained to be equal
 
 
 Using diagonal initial Hessian 
 Scaling for Hessian diagonals: bonds = 1.00  angles = 0.25  torsions = 0.10

          --------
          Step   0
          --------
 
                                 NWChem DFT Module
                                 -----------------
 
 
                                       der2
 
 
                      Basis "ao basis" -> "ao basis" (cartesian)
                      -----
  O (Oxygen)
  ----------
            Exponent  Coefficients 
       -------------- ---------------------------------------------------------
  1 S  1.17200000E+04  0.000710
  1 S  1.75900000E+03  0.005470
  1 S  4.00800000E+02  0.027837
  1 S  1.13700000E+02  0.104800
  1 S  3.70300000E+01  0.283062
  1 S  1.32700000E+01  0.448719
  1 S  5.02500000E+00  0.270952
  1 S  1.01300000E+00  0.015458
 
  2 S  1.17200000E+04 -0.000160
  2 S  1.75900000E+03 -0.001263
  2 S  4.00800000E+02 -0.006267
  2 S  1.13700000E+02 -0.025716
  2 S  3.70300000E+01 -0.070924
  2 S  1.32700000E+01 -0.165411
  2 S  5.02500000E+00 -0.116955
  2 S  1.01300000E+00  0.557368
 
  3 S  3.02300000E-01  1.000000
 
  4 P  1.77000000E+01  0.043018
  4 P  3.85400000E+00  0.228913
  4 P  1.04600000E+00  0.508728
 
  5 P  2.75300000E-01  1.000000
 
  6 D  1.18500000E+00  1.000000
 
  P (Phosphorous)
  ---------------
            Exponent  Coefficients 
       -------------- ---------------------------------------------------------
  1 S  9.48400000E+04  0.000256
  1 S  1.42200000E+04  0.001982
  1 S  3.23600000E+03  0.010276
  1 S  9.17100000E+02  0.041482
  1 S  2.99500000E+02  0.131984
  1 S  1.08100000E+02  0.308662
  1 S  4.21800000E+01  0.420647
  1 S  1.72800000E+01  0.222878
  1 S  4.85800000E+00  0.016403
  1 S  1.81800000E+00 -0.002543
  1 S  3.37200000E-01  0.000748
 
  2 S  9.48400000E+04 -0.000070
  2 S  1.42200000E+04 -0.000535
  2 S  3.23600000E+03 -0.002837
  2 S  9.17100000E+02 -0.011398
  2 S  2.99500000E+02 -0.039293
  2 S  1.08100000E+02 -0.099636
  2 S  4.21800000E+01 -0.197983
  2 S  1.72800000E+01 -0.114860
  2 S  4.85800000E+00  0.518595
  2 S  1.81800000E+00  0.601847
  2 S  3.37200000E-01  0.036861
 
  3 S  9.48400000E+04  0.000019
  3 S  1.42200000E+04  0.000147
  3 S  3.23600000E+03  0.000778
  3 S  9.17100000E+02  0.003145
  3 S  2.99500000E+02  0.010820
  3 S  1.08100000E+02  0.027996
  3 S  4.21800000E+01  0.056398
  3 S  1.72800000E+01  0.035819
  3 S  4.85800000E+00 -0.193387
  3 S  1.81800000E+00 -0.372097
  3 S  3.37200000E-01  0.624246
 
  4 S  1.23200000E-01  1.000000
 
  5 P  3.70500000E+02  0.003950
  5 P  8.73300000E+01  0.030249
  5 P  2.75900000E+01  0.129554
  5 P  1.00000000E+01  0.327594
  5 P  3.82500000E+00  0.456992
  5 P  1.49400000E+00  0.253086
  5 P  3.92100000E-01  0.016880
 
  6 P  3.70500000E+02 -0.000960
  6 P  8.73300000E+01 -0.007112
  6 P  2.75900000E+01 -0.032712
  6 P  1.00000000E+01 -0.079578
  6 P  3.82500000E+00 -0.135016
  6 P  1.49400000E+00 -0.009106
  6 P  3.92100000E-01  0.537802
 
  7 P  1.18600000E-01  1.000000
 
  8 D  3.73000000E-01  1.000000
 
  C (Carbon)
  ----------
            Exponent  Coefficients 
       -------------- ---------------------------------------------------------
  1 S  6.66500000E+03  0.000692
  1 S  1.00000000E+03  0.005329
  1 S  2.28000000E+02  0.027077
  1 S  6.47100000E+01  0.101718
  1 S  2.10600000E+01  0.274740
  1 S  7.49500000E+00  0.448564
  1 S  2.79700000E+00  0.285074
  1 S  5.21500000E-01  0.015204
 
  2 S  6.66500000E+03 -0.000146
  2 S  1.00000000E+03 -0.001154
  2 S  2.28000000E+02 -0.005725
  2 S  6.47100000E+01 -0.023312
  2 S  2.10600000E+01 -0.063955
  2 S  7.49500000E+00 -0.149981
  2 S  2.79700000E+00 -0.127262
  2 S  5.21500000E-01  0.544529
 
  3 S  1.59600000E-01  1.000000
 
  4 P  9.43900000E+00  0.038109
  4 P  2.00200000E+00  0.209480
  4 P  5.45600000E-01  0.508557
 
  5 P  1.51700000E-01  1.000000
 
  6 D  5.50000000E-01  1.000000
 
  H (Hydrogen)
  ------------
            Exponent  Coefficients 
       -------------- ---------------------------------------------------------
  1 S  1.30100000E+01  0.019685
  1 S  1.96200000E+00  0.137977
  1 S  4.44600000E-01  0.478148
 
  2 S  1.22000000E-01  1.000000
 
  3 P  7.27000000E-01  1.000000
 
  N (Nitrogen)
  ------------
            Exponent  Coefficients 
       -------------- ---------------------------------------------------------
  1 S  9.04600000E+03  0.000700
  1 S  1.35700000E+03  0.005389
  1 S  3.09300000E+02  0.027406
  1 S  8.77300000E+01  0.103207
  1 S  2.85600000E+01  0.278723
  1 S  1.02100000E+01  0.448540
  1 S  3.83800000E+00  0.278238
  1 S  7.46600000E-01  0.015440
 
  2 S  9.04600000E+03 -0.000153
  2 S  1.35700000E+03 -0.001208
  2 S  3.09300000E+02 -0.005992
  2 S  8.77300000E+01 -0.024544
  2 S  2.85600000E+01 -0.067459
  2 S  1.02100000E+01 -0.158078
  2 S  3.83800000E+00 -0.121831
  2 S  7.46600000E-01  0.549003
 
  3 S  2.24800000E-01  1.000000
 
  4 P  1.35500000E+01  0.039919
  4 P  2.91700000E+00  0.217169
  4 P  7.97300000E-01  0.510319
 
  5 P  2.18500000E-01  1.000000
 
  6 D  8.17000000E-01  1.000000
 


 Summary of "ao basis" -> "ao basis" (cartesian)
 ------------------------------------------------------------------------------
       Tag                 Description            Shells   Functions and Types
 ---------------- ------------------------------  ------  ---------------------
 O                          cc-pvdz                  6       15   3s2p1d
 P                          cc-pvdz                  8       19   4s3p1d
 C                          cc-pvdz                  6       15   3s2p1d
 H                          cc-pvdz                  3        5   2s1p
 N                          cc-pvdz                  6       15   3s2p1d


 
 
 solvent parameters
 solvname_short: chcl3   
 solvname_long:  chloroform                         
 dielec:        4.7113
 dielecinf:     2.0906

          ---------------
          -cosmo- solvent
          ---------------
 Cosmo: York-Karplus, doi: 10.1021/jp992097l
 dielectric constant -eps-     =   4.71
 screen = (eps-1)/(eps    )    =   0.78774
 surface charge correction     = lagrangian
 -lineq- algorithm             =   0
 -bem- low  level              =   2
 -bem- from -octahedral-
 gaussian surface charge width =   0.98000
 degree of switching           =   1.00000
 switching function tolerance  =   0.00010
 atomic radii = 
 --------------
    1  8.000  1.720
    2 15.000  2.106
    3  8.000  1.720
    4  8.000  1.720
    5  6.000  2.000
    6  6.000  2.000
    7  6.000  2.000
    8  6.000  2.000
    9  6.000  2.000
   10  6.000  2.000
   11  1.000  1.300
   12  1.000  1.300
   13  1.000  1.300
   14  1.000  1.300
   15  1.000  1.300
   16  1.000  1.300
   17  1.000  1.300
   18  1.000  1.300
   19  1.000  1.300
   20  1.000  1.300
   21  1.000  1.300
   22  1.000  1.300
   23  6.000  2.000
   24  6.000  2.000
   25  7.000  1.830
   26  6.000  2.000
   27  1.000  1.300
   28  1.000  1.300
   29  6.000  2.000
   30  1.000  1.300
   31  1.000  1.300
   32  1.000  1.300
   33  1.000  1.300
   34  1.000  1.300
   35  1.000  1.300
   36  1.000  1.300
   37  1.000  1.300

 solvent accessible surface
 --------------------------

 ---------- ATOMIC COORDINATES (A.U.) ------------ VDWR(ANG.) --
     1   -0.08203385   -1.38648842   -0.07720288     1.720
     2   -0.84303861    0.90146087   -1.99070217     2.106
     3    1.58207877    2.80785011   -1.96790633     1.720
     4   -2.43727410    2.59218234    0.03901221     1.720
     5    1.58942026    4.52798402    0.16794163     2.000
     6   -1.27886128    5.00223071    0.61991478     2.000
     7    2.89787117    3.25243318    2.38737245     2.000
     8    3.04782843    6.86133657   -0.61794220     2.000
     9   -2.39249080    6.94739328   -1.17877722     2.000
    10   -1.93826846    5.65881384    3.32616010     2.000
    11    3.13898314    4.57855566    3.94677914     1.300
    12    1.85198141    1.61173605    3.05439532     1.300
    13    4.76617572    2.62704139    1.78238428     1.300
    14    2.33644335    7.64501175   -2.38146555     1.300
    15    2.92569034    8.30760723    0.84813948     1.300
    16    5.03554175    6.38006181   -0.87195476     1.300
    17   -1.74411063    8.84781268   -0.71740438     1.300
    18   -1.89405739    6.53766125   -3.13655753     1.300
    19   -4.44555107    6.90653443   -1.00947074     1.300
    20   -0.97794846    7.39431349    3.89349065     1.300
    21   -3.96856183    5.97220281    3.48791860     1.300
    22   -1.40477587    4.15344506    4.62183912     1.300
    23    0.52434811   -3.79833533   -1.10945164     2.000
    24   -0.73677702   -5.80678282    0.49667372     2.000
    25   -0.09225046   -8.34722400   -0.30427155     1.830
    26    2.44506729   -9.05518169    0.45143642     2.000
    27   -3.79794963   -9.68795910    0.00217926     1.300
    28    2.87064952  -10.94895662   -0.24274413     1.300
    29   -1.90281575  -10.16189292    0.65976332     2.000
    30   -0.13305105   -3.94081249   -3.06612533     1.300
    31    2.57706206   -4.00687618   -1.11118141     1.300
    32   -2.77954114   -5.56549851    0.32856479     1.300
    33   -0.24842261   -5.47980808    2.49821728     1.300
    34   -1.93324556  -10.22786988    2.74347119     1.300
    35    2.67371376   -9.05695629    2.52417092     1.300
    36    3.83933702   -7.76721943   -0.34611021     1.300
    37   -1.43112891  -12.04771726   -0.02787465     1.300
 number of segments per atom =         32
 number of   points per atom =         32
 atom (   nspa,  nppa )
 ----------------------
    1 (     10,     0 )       0
    2 (     13,     0 )       0
    3 (     14,     0 )       0
    4 (     10,     0 )       0
    5 (      2,     0 )       0
    6 (      2,     0 )       0
    7 (     14,     0 )       0
    8 (     15,     0 )       0
    9 (     12,     0 )       0
   10 (     12,     0 )       0
   11 (     13,     0 )       0
   12 (     12,     0 )       0
   13 (     13,     0 )       0
   14 (     11,     0 )       0
   15 (     12,     0 )       0
   16 (     15,     0 )       0
   17 (     13,     0 )       0
   18 (     14,     0 )       0
   19 (     16,     0 )       0
   20 (     14,     0 )       0
   21 (     14,     0 )       0
   22 (     14,     0 )       0
   23 (     10,     0 )       0
   24 (      9,     0 )       0
   25 (      6,     0 )       0
   26 (     15,     0 )       0
   27 (     14,     0 )       0
   28 (     13,     0 )       0
   29 (     15,     0 )       0
   30 (     12,     0 )       0
   31 (     14,     0 )       0
   32 (     14,     0 )       0
   33 (     14,     0 )       0
   34 (     16,     0 )       0
   35 (     16,     0 )       0
   36 (     12,     0 )       0
   37 (     14,     0 )       0
 number of -cosmo- surface points =      459
 molecular surface =    278.311 angstrom**2
 molecular volume  =    152.827 angstrom**3
 G(cav/disp)       =      2.252 kcal/mol
 ...... end of -cosmo- initialization ......


  Caching 1-el integrals 
   Time after variat. SCF:     14.2
   Time prior to 1st pass:     14.2
  Resetting Diis


         Total DFT energy =    -1016.170581431177
      One electron energy =    -3911.466143370841
           Coulomb energy =     1744.859159747080
    Exchange-Corr. energy =     -118.728521380193
 Nuclear repulsion energy =     1268.289054261353

             COSMO energy =        0.875869311423

 Numeric. integr. density =      127.999983224909

     Total iterative time =    690.6s


                                   COSMO solvation results
                                   -----------------------

                 gas phase energy =     -1016.162224036458
                 sol phase energy =     -1016.170581431177
 (electrostatic) solvation energy =         0.008357394719 (    5.24 kcal/mol)

     --------------------------
     Expectation value of S2:  
     --------------------------
      <S2> =     -0.0000 (Exact =     0.0000)
 


                         DFT ENERGY GRADIENTS

    atom               coordinates                        gradient
                 x          y          z           x          y          z
   1 O      -0.082034  -1.386488  -0.077203   -0.006727   0.015678  -0.023479
   2 P      -0.843039   0.901461  -1.990702    0.017750   0.009834   0.041675
   3 O       1.582079   2.807850  -1.967906   -0.024542  -0.011608   0.008139
   4 O      -2.437274   2.592182   0.039012    0.020355  -0.007135  -0.017625
   5 C       1.589420   4.527984   0.167942   -0.000244  -0.003576  -0.003439
   6 C      -1.278861   5.002231   0.619915   -0.001972  -0.004236  -0.001723
   7 C       2.897871   3.252433   2.387372   -0.000298  -0.000094  -0.000464
   8 C       3.047828   6.861337  -0.617942   -0.000065   0.000182   0.000187
   9 C      -2.392491   6.947393  -1.178777    0.000426  -0.000258  -0.000215
  10 C      -1.938268   5.658814   3.326160    0.000447   0.000159   0.000002
  11 H       3.138983   4.578556   3.946779   -0.001097  -0.003611  -0.005100
  12 H       1.851981   1.611736   3.054395    0.002954   0.004859  -0.002157
  13 H       4.766176   2.627041   1.782384   -0.006005   0.002345   0.001686
  14 H       2.336443   7.645012  -2.381466    0.001517  -0.002514   0.005437
  15 H       2.925690   8.307607   0.848139    0.000148  -0.004591  -0.004302
  16 H       5.035542   6.380062  -0.871955   -0.006496   0.001062   0.001094
  17 H      -1.744111   8.847813  -0.717404   -0.001524  -0.006141  -0.001013
  18 H      -1.894057   6.537661  -3.136558   -0.001363   0.000874   0.006093
  19 H      -4.445551   6.906534  -1.009471    0.006656   0.000011  -0.000037
  20 H      -0.977948   7.394313   3.893491   -0.002951  -0.005198  -0.002009
  21 H      -3.968562   5.972203   3.487919    0.006525  -0.000843  -0.001067
  22 H      -1.404776   4.153445   4.621839   -0.001083   0.004339  -0.004299
  23 C       0.524348  -3.798335  -1.109452   -0.000100   0.003639  -0.000125
  24 C      -0.736777  -5.806783   0.496674   -0.000920  -0.000817   0.000632
  25 N      -0.092250  -8.347224  -0.304272    0.000705   0.000881   0.005844
  26 C       2.445067  -9.055182   0.451436    0.000548  -0.000031   0.000899
  27 H      -3.797950  -9.687959   0.002179    0.006392  -0.001364   0.001788
  28 H       2.870650 -10.948957  -0.242744   -0.001684   0.006274   0.002016
  29 C      -1.902816 -10.161893   0.659763   -0.000560  -0.000311   0.001260
  30 H      -0.133051  -3.940812  -3.066125    0.001604   0.000745   0.006227
  31 H       2.577062  -4.006876  -1.111181   -0.006377   0.000486   0.000100
  32 H      -2.779541  -5.565499   0.328565    0.006130  -0.000974   0.000275
  33 H      -0.248423  -5.479808   2.498217   -0.001230  -0.001631  -0.006599
  34 H      -1.933246 -10.227870   2.743471    0.000817   0.000892  -0.006991
  35 H       2.673714  -9.056956   2.524171   -0.001696   0.000321  -0.006894
  36 H       3.839337  -7.767219  -0.346110   -0.004739  -0.004031   0.002316
  37 H      -1.431129 -12.047717  -0.027875   -0.001301   0.006380   0.001867
 
  no constraints, skipping   0.000000000000000E+000

@ Step       Energy      Delta E   Gmax     Grms     Xrms     Xmax   Walltime
@ ---- ---------------- -------- -------- -------- -------- -------- --------
@    0   -1016.17058143  0.0D+00  0.03464  0.00501  0.00000  0.00000    785.1
                                                                    

  no constraints, skipping   0.000000000000000E+000
  no constraints, skipping   0.000000000000000E+000
  no constraints, skipping   0.000000000000000E+000
  no constraints, skipping   0.000000000000000E+000
  no constraints, skipping   0.000000000000000E+000
  no constraints, skipping   0.000000000000000E+000
  no constraints, skipping   0.000000000000000E+000
  no constraints, skipping   0.000000000000000E+000
 
                                 NWChem DFT Module
                                 -----------------
 
 
                                       der2
 
 
 
 
 solvent parameters
 solvname_short: chcl3   
 solvname_long:  chloroform                         
 dielec:        4.7113
 dielecinf:     2.0906

          ---------------
          -cosmo- solvent
          ---------------
 Cosmo: York-Karplus, doi: 10.1021/jp992097l
 dielectric constant -eps-     =   4.71
 screen = (eps-1)/(eps    )    =   0.78774
 surface charge correction     = lagrangian
 -lineq- algorithm             =   0
 -bem- low  level              =   2
 -bem- from -octahedral-
 gaussian surface charge width =   0.98000
 degree of switching           =   1.00000
 switching function tolerance  =   0.00010
 atomic radii = 
 --------------
    1  8.000  1.720
    2 15.000  2.106
    3  8.000  1.720
    4  8.000  1.720
    5  6.000  2.000
    6  6.000  2.000
    7  6.000  2.000
    8  6.000  2.000
    9  6.000  2.000
   10  6.000  2.000
   11  1.000  1.300
   12  1.000  1.300
   13  1.000  1.300
   14  1.000  1.300
   15  1.000  1.300
   16  1.000  1.300
   17  1.000  1.300
   18  1.000  1.300
   19  1.000  1.300
   20  1.000  1.300
   21  1.000  1.300
   22  1.000  1.300
   23  6.000  2.000
   24  6.000  2.000
   25  7.000  1.830
   26  6.000  2.000
   27  1.000  1.300
   28  1.000  1.300
   29  6.000  2.000
   30  1.000  1.300
   31  1.000  1.300
   32  1.000  1.300
   33  1.000  1.300
   34  1.000  1.300
   35  1.000  1.300
   36  1.000  1.300
   37  1.000  1.300

 solvent accessible surface
 --------------------------

 ---------- ATOMIC COORDINATES (A.U.) ------------ VDWR(ANG.) --
     1   -0.06870220   -1.42694479   -0.10819933     1.720
     2   -0.85133004    0.92335191   -2.05845420     2.106
     3    1.61530978    2.88193232   -2.01171509     1.720
     4   -2.46910961    2.64510918    0.02438774     1.720
     5    1.60650638    4.61200931    0.16072820     2.000
     6   -1.29465793    5.08077963    0.62156024     2.000
     7    2.92953355    3.31824881    2.38965377     2.000
     8    3.07797163    6.96507406   -0.61868903     2.000
     9   -2.42950447    7.04701754   -1.17689506     2.000
    10   -1.96714668    5.72471404    3.34997272     2.000
    11    3.17412683    4.64142372    3.97501993     1.300
    12    1.88026582    1.65666672    3.05383494     1.300
    13    4.81656054    2.69245882    1.77739753     1.300
    14    2.36917516    7.76648036   -2.39594308     1.300
    15    2.95523244    8.42004585    0.86434988     1.300
    16    5.08547380    6.48476471   -0.87562328     1.300
    17   -1.78847530    8.96785210   -0.70728933     1.300
    18   -1.93077964    6.65062969   -3.15646280     1.300
    19   -4.50149572    6.99693577   -1.00645916     1.300
    20   -1.00514642    7.47455045    3.93676918     1.300
    21   -4.01716784    6.03411611    3.51594366     1.300
    22   -1.43130364    4.20342846    4.65434511     1.300
    23    0.54443100   -3.87499244   -1.12975331     2.000
    24   -0.72903488   -5.88813798    0.49406364     2.000
    25   -0.09355810   -8.45989467   -0.29966929     1.830
    26    2.45862325   -9.19452137    0.45933349     2.000
    27   -3.84195002   -9.78674802    0.00350147     1.300
    28    2.87289853  -11.11061963   -0.23900662     1.300
    29   -1.93236090  -10.27545937    0.67000987     2.000
    30   -0.11502155   -4.03255662   -3.10446921     1.300
    31    2.61556529   -4.08540634   -1.12881791     1.300
    32   -2.78828272   -5.63795259    0.31834062     1.300
    33   -0.24135473   -5.54357879    2.51409376     1.300
    34   -1.97744511  -10.34875620    2.77405118     1.300
    35    2.70565043   -9.19990374    2.55095582     1.300
    36    3.87751873   -7.90946653   -0.34893915     1.300
    37   -1.47097797  -12.18456097   -0.01924491     1.300
 number of segments per atom =         32
 number of   points per atom =         32
 atom (   nspa,  nppa )
 ----------------------
    1 (     10,     0 )       0
    2 (     13,     0 )       0
    3 (     15,     0 )       0
    4 (     10,     0 )       0
    5 (      2,     0 )       0
    6 (      3,     0 )       0
    7 (     14,     0 )       0
    8 (     15,     0 )       0
    9 (     11,     0 )       0
   10 (     12,     0 )       0
   11 (     14,     0 )       0
   12 (     12,     0 )       0
   13 (     14,     0 )       0
   14 (     12,     0 )       0
   15 (     12,     0 )       0
   16 (     15,     0 )       0
   17 (     13,     0 )       0
   18 (     14,     0 )       0
   19 (     16,     0 )       0
   20 (     14,     0 )       0
   21 (     15,     0 )       0
   22 (     14,     0 )       0
   23 (     11,     0 )       0
   24 (      9,     0 )       0
   25 (      6,     0 )       0
   26 (     14,     0 )       0
   27 (     14,     0 )       0
   28 (     13,     0 )       0
   29 (     15,     0 )       0
   30 (     12,     0 )       0
   31 (     15,     0 )       0
   32 (     14,     0 )       0
   33 (     14,     0 )       0
   34 (     16,     0 )       0
   35 (     16,     0 )       0
   36 (     12,     0 )       0
   37 (     14,     0 )       0
 number of -cosmo- surface points =      465
 molecular surface =    283.066 angstrom**2
 molecular volume  =    155.087 angstrom**3
 G(cav/disp)       =      2.275 kcal/mol
 ...... end of -cosmo- initialization ......


  Caching 1-el integrals 
   Time after variat. SCF:    786.0
   Time prior to 1st pass:    786.0


         Total DFT energy =    -1016.177400233953
      One electron energy =    -3878.455373023124
           Coulomb energy =     1728.294361515310
    Exchange-Corr. energy =     -118.523359095589
 Nuclear repulsion energy =     1251.576274218376

             COSMO energy =        0.930696151073

 Numeric. integr. density =      127.999986476290

     Total iterative time =    509.3s


                                   COSMO solvation results
                                   -----------------------

                 gas phase energy =     -1016.168737697345
                 sol phase energy =     -1016.177400233953
 (electrostatic) solvation energy =         0.008662536608 (    5.44 kcal/mol)

     --------------------------
     Expectation value of S2:  
     --------------------------
      <S2> =     -0.0000 (Exact =     0.0000)
 
 Line search: 
     step= 1.00 grad=-1.2D-02 hess= 5.5D-03 energy=  -1016.177400 mode=downhill
 new step= 1.12                   predicted energy=  -1016.177480
  no constraints, skipping   0.000000000000000E+000
  no constraints, skipping   0.000000000000000E+000
  no constraints, skipping   0.000000000000000E+000
  no constraints, skipping   0.000000000000000E+000
  no constraints, skipping   0.000000000000000E+000
  no constraints, skipping   0.000000000000000E+000
  no constraints, skipping   0.000000000000000E+000
  no constraints, skipping   0.000000000000000E+000

          --------
          Step   1
          --------
 
                                 NWChem DFT Module
                                 -----------------
 
 
                                       der2
 
 
 
 
 solvent parameters
 solvname_short: chcl3   
 solvname_long:  chloroform                         
 dielec:        4.7113
 dielecinf:     2.0906

          ---------------
          -cosmo- solvent
          ---------------
 Cosmo: York-Karplus, doi: 10.1021/jp992097l
 dielectric constant -eps-     =   4.71
 screen = (eps-1)/(eps    )    =   0.78774
 surface charge correction     = lagrangian
 -lineq- algorithm             =   0
 -bem- low  level              =   2
 -bem- from -octahedral-
 gaussian surface charge width =   0.98000
 degree of switching           =   1.00000
 switching function tolerance  =   0.00010
 atomic radii = 
 --------------
    1  8.000  1.720
    2 15.000  2.106
    3  8.000  1.720
    4  8.000  1.720
    5  6.000  2.000
    6  6.000  2.000
    7  6.000  2.000
    8  6.000  2.000
    9  6.000  2.000
   10  6.000  2.000
   11  1.000  1.300
   12  1.000  1.300
   13  1.000  1.300
   14  1.000  1.300
   15  1.000  1.300
   16  1.000  1.300
   17  1.000  1.300
   18  1.000  1.300
   19  1.000  1.300
   20  1.000  1.300
   21  1.000  1.300
   22  1.000  1.300
   23  6.000  2.000
   24  6.000  2.000
   25  7.000  1.830
   26  6.000  2.000
   27  1.000  1.300
   28  1.000  1.300
   29  6.000  2.000
   30  1.000  1.300
   31  1.000  1.300
   32  1.000  1.300
   33  1.000  1.300
   34  1.000  1.300
   35  1.000  1.300
   36  1.000  1.300
   37  1.000  1.300

 solvent accessible surface
 --------------------------

 ---------- ATOMIC COORDINATES (A.U.) ------------ VDWR(ANG.) --
     1   -0.06708316   -1.43181406   -0.11200130     1.720
     2   -0.85232576    0.92600235   -2.06665335     2.106
     3    1.61930234    2.89088138   -2.01698016     1.720
     4   -2.47292678    2.65148553    0.02262231     1.720
     5    1.60854809    4.62212919    0.15986400     2.000
     6   -1.29654917    5.09022708    0.62176116     2.000
     7    2.93333952    3.32617484    2.38992129     2.000
     8    3.08159715    6.97755602   -0.61877081     2.000
     9   -2.43396512    7.05899408   -1.17664983     2.000
    10   -1.97061976    5.73262775    3.35283364     2.000
    11    3.17836656    4.64897570    3.97841074     1.300
    12    1.88366946    1.66208059    3.05375677     1.300
    13    4.82261659    2.70033567    1.77678385     1.300
    14    2.37312161    7.78110827   -2.39766874     1.300
    15    2.95879808    8.43357247    0.86631162     1.300
    16    5.09147895    6.49735800   -0.87605887     1.300
    17   -1.79384053    8.98228400   -0.70604607     1.300
    18   -1.93521680    6.66422931   -3.15883558     1.300
    19   -4.50823261    7.00779050   -1.00608046     1.300
    20   -1.00842599    7.48418140    3.94198402     1.300
    21   -4.02301550    6.04154075    3.51930845     1.300
    22   -1.43449981    4.20942464    4.65825220     1.300
    23    0.54686186   -3.88422235   -1.13222351     2.000
    24   -0.72808318   -5.89792171    0.49373684     2.000
    25   -0.09371041   -8.47344723   -0.29910015     1.830
    26    2.46024247   -9.21129457    0.46030665     2.000
    27   -3.84723619   -9.79861054    0.00366789     1.300
    28    2.87314115  -11.13007824   -0.23852339     1.300
    29   -1.93591501  -10.28910239    0.67125978     2.000
    30   -0.11283849   -4.04362798   -3.10910207     1.300
    31    2.62021385   -4.09485630   -1.13096952     1.300
    32   -2.78931220   -5.64666655    0.31709140     1.300
    33   -0.24048316   -5.55121588    2.51597908     1.300
    34   -1.98279069  -10.36326714    2.77774067     1.300
    35    2.70949196   -9.21712584    2.55419267     1.300
    36    3.88210447   -7.92661468   -0.34926256     1.300
    37   -1.47578613  -12.20100452   -0.01817667     1.300
 number of segments per atom =         32
 number of   points per atom =         32
 atom (   nspa,  nppa )
 ----------------------
    1 (     10,     0 )       0
    2 (     13,     0 )       0
    3 (     15,     0 )       0
    4 (     11,     0 )       0
    5 (      2,     0 )       0
    6 (      3,     0 )       0
    7 (     14,     0 )       0
    8 (     15,     0 )       0
    9 (     11,     0 )       0
   10 (     12,     0 )       0
   11 (     14,     0 )       0
   12 (     12,     0 )       0
   13 (     14,     0 )       0
   14 (     12,     0 )       0
   15 (     12,     0 )       0
   16 (     15,     0 )       0
   17 (     13,     0 )       0
   18 (     14,     0 )       0
   19 (     16,     0 )       0
   20 (     14,     0 )       0
   21 (     15,     0 )       0
   22 (     14,     0 )       0
   23 (     11,     0 )       0
   24 (      9,     0 )       0
   25 (      6,     0 )       0
   26 (     14,     0 )       0
   27 (     14,     0 )       0
   28 (     13,     0 )       0
   29 (     15,     0 )       0
   30 (     12,     0 )       0
   31 (     15,     0 )       0
   32 (     14,     0 )       0
   33 (     14,     0 )       0
   34 (     16,     0 )       0
   35 (     16,     0 )       0
   36 (     13,     0 )       0
   37 (     14,     0 )       0
 number of -cosmo- surface points =      467
 molecular surface =    283.620 angstrom**2
 molecular volume  =    155.348 angstrom**3
 G(cav/disp)       =      2.278 kcal/mol
 ...... end of -cosmo- initialization ......


  Caching 1-el integrals 
   Time after variat. SCF:   1296.4
   Time prior to 1st pass:   1296.5


         Total DFT energy =    -1016.177513067200
      One electron energy =    -3874.545078308450
           Coulomb energy =     1726.332127115472
    Exchange-Corr. energy =     -118.499163323469
 Nuclear repulsion energy =     1249.597079753370

             COSMO energy =        0.937521695877

 Numeric. integr. density =      127.999986729738

     Total iterative time =    538.8s


                                   COSMO solvation results
                                   -----------------------

                 gas phase energy =     -1016.168808742587
                 sol phase energy =     -1016.177513067200
 (electrostatic) solvation energy =         0.008704324614 (    5.46 kcal/mol)

     --------------------------
     Expectation value of S2:  
     --------------------------
      <S2> =     -0.0000 (Exact =     0.0000)
 


                         DFT ENERGY GRADIENTS

    atom               coordinates                        gradient
                 x          y          z           x          y          z
   1 O      -0.067083  -1.431814  -0.112001   -0.002864   0.005766  -0.008018
   2 P      -0.852326   0.926002  -2.066653    0.004043   0.000716   0.010981
   3 O       1.619302   2.890881  -2.016980   -0.007302  -0.004649  -0.000687
   4 O      -2.472927   2.651486   0.022622    0.004441  -0.002593  -0.006209
   5 C       1.608548   4.622129   0.159864    0.002292   0.000508  -0.000963
   6 C      -1.296549   5.090227   0.621761   -0.002540  -0.000138   0.001407
   7 C       2.933340   3.326175   2.389921   -0.000565   0.000880   0.000032
   8 C       3.081597   6.977556  -0.618771   -0.000210  -0.000199   0.000964
   9 C      -2.433965   7.058994  -1.176650    0.000693   0.000170   0.000642
  10 C      -1.970620   5.732628   3.352834    0.000598   0.000569  -0.000743
  11 H       3.178367   4.648976   3.978411    0.000223   0.000388   0.000697
  12 H       1.883669   1.662081   3.053757   -0.000171  -0.000661   0.000453
  13 H       4.822617   2.700336   1.776784    0.000975  -0.000143  -0.000101
  14 H       2.373122   7.781108  -2.397669   -0.000201   0.000360  -0.000549
  15 H       2.958798   8.433572   0.866312    0.000123   0.000738   0.000481
  16 H       5.091479   6.497358  -0.876059    0.000973  -0.000078  -0.000107
  17 H      -1.793841   8.982284  -0.706046    0.000142   0.000777  -0.000024
  18 H      -1.935217   6.664229  -3.158836   -0.000020  -0.000091  -0.000846
  19 H      -4.508233   7.007790  -1.006080   -0.000924   0.000238   0.000179
  20 H      -1.008426   7.484181   3.941984    0.000186   0.000767   0.000444
  21 H      -4.023016   6.041541   3.519308   -0.000925   0.000275   0.000210
  22 H      -1.434500   4.209425   4.658252    0.000250  -0.000474   0.000543
  23 C       0.546862  -3.884222  -1.132224    0.000013  -0.000721   0.003093
  24 C      -0.728083  -5.897922   0.493737    0.000480  -0.000154  -0.002023
  25 N      -0.093710  -8.473447  -0.299100    0.000006   0.000102  -0.000261
  26 C       2.460242  -9.211295   0.460307    0.000003  -0.000157  -0.000188
  27 H      -3.847236  -9.798611   0.003668   -0.001009  -0.000064  -0.000245
  28 H       2.873141 -11.130078  -0.238523    0.000559  -0.000878  -0.000223
  29 C      -1.935915 -10.289102   0.671260    0.000166  -0.000248   0.000106
  30 H      -0.112838  -4.043628  -3.109102   -0.000582   0.000092  -0.000703
  31 H       2.620214  -4.094856  -1.130970    0.000889  -0.000701  -0.000364
  32 H      -2.789312  -5.646667   0.317091   -0.000878   0.000282  -0.000305
  33 H      -0.240483  -5.551216   2.515979    0.000271   0.000125   0.000957
  34 H      -1.982791 -10.363267   2.777741    0.000017  -0.000021   0.000889
  35 H       2.709492  -9.217126   2.554193    0.000079   0.000022   0.000895
  36 H       3.882104  -7.926615  -0.349263    0.000905   0.000269  -0.000235
  37 H      -1.475786 -12.201005  -0.018177   -0.000135  -0.001071  -0.000180
 
  no constraints, skipping   0.000000000000000E+000

  Step       Energy      Delta E   Gmax     Grms     Xrms     Xmax   Walltime
  ---- ---------------- -------- -------- -------- -------- -------- --------
@    1   -1016.17751307 -6.9D-03  0.00667  0.00087  0.06699  0.18111   1913.6
                                                                    

  no constraints, skipping   0.000000000000000E+000
  no constraints, skipping   0.000000000000000E+000
  no constraints, skipping   0.000000000000000E+000
  no constraints, skipping   0.000000000000000E+000
  no constraints, skipping   0.000000000000000E+000
  no constraints, skipping   0.000000000000000E+000
  no constraints, skipping   0.000000000000000E+000
  no constraints, skipping   0.000000000000000E+000
 
                                 NWChem DFT Module
                                 -----------------
 
 
                                       der2
 
 
 
 
 solvent parameters
 solvname_short: chcl3   
 solvname_long:  chloroform                         
 dielec:        4.7113
 dielecinf:     2.0906

          ---------------
          -cosmo- solvent
          ---------------
 Cosmo: York-Karplus, doi: 10.1021/jp992097l
 dielectric constant -eps-     =   4.71
 screen = (eps-1)/(eps    )    =   0.78774
 surface charge correction     = lagrangian
 -lineq- algorithm             =   0
 -bem- low  level              =   2
 -bem- from -octahedral-
 gaussian surface charge width =   0.98000
 degree of switching           =   1.00000
 switching function tolerance  =   0.00010
 atomic radii = 
 --------------
    1  8.000  1.720
    2 15.000  2.106
    3  8.000  1.720
    4  8.000  1.720
    5  6.000  2.000
    6  6.000  2.000
    7  6.000  2.000
    8  6.000  2.000
    9  6.000  2.000
   10  6.000  2.000
   11  1.000  1.300
   12  1.000  1.300
   13  1.000  1.300
   14  1.000  1.300
   15  1.000  1.300
   16  1.000  1.300
   17  1.000  1.300
   18  1.000  1.300
   19  1.000  1.300
   20  1.000  1.300
   21  1.000  1.300
   22  1.000  1.300
   23  6.000  2.000
   24  6.000  2.000
   25  7.000  1.830
   26  6.000  2.000
   27  1.000  1.300
   28  1.000  1.300
   29  6.000  2.000
   30  1.000  1.300
   31  1.000  1.300
   32  1.000  1.300
   33  1.000  1.300
   34  1.000  1.300
   35  1.000  1.300
   36  1.000  1.300
   37  1.000  1.300

 solvent accessible surface
 --------------------------

 ---------- ATOMIC COORDINATES (A.U.) ------------ VDWR(ANG.) --
     1   -0.04809301   -1.42325660   -0.08235710     1.720
     2   -0.84311683    0.91761238   -2.08502777     2.106
     3    1.64416153    2.89020570   -2.02999645     1.720
     4   -2.48063884    2.63553100    0.02048243     1.720
     5    1.60900146    4.60753944    0.15352399     2.000
     6   -1.29537443    5.06869494    0.61530212     2.000
     7    2.92679990    3.29941919    2.37963295     2.000
     8    3.07348496    6.96903411   -0.62009761     2.000
     9   -2.43156148    7.03816213   -1.18196968     2.000
    10   -1.97001269    5.69503202    3.34958521     2.000
    11    3.16298506    4.61201025    3.97641266     1.300
    12    1.87407542    1.63142611    3.02531646     1.300
    13    4.81705246    2.67903628    1.76914786     1.300
    14    2.36411686    7.77194810   -2.39798222     1.300
    15    2.94194441    8.41960429    0.86775475     1.300
    16    5.08369593    6.49605412   -0.87561674     1.300
    17   -1.79131773    8.95951606   -0.70795074     1.300
    18   -1.92939203    6.64405262   -3.16218263     1.300
    19   -4.50453093    6.98512997   -1.01411534     1.300
    20   -1.00763817    7.44261603    3.94560426     1.300
    21   -4.02125419    6.00089090    3.51628694     1.300
    22   -1.43369512    4.16531702    4.64565254     1.300
    23    0.56308384   -3.86586678   -1.11392773     2.000
    24   -0.71983593   -5.86798247    0.51958412     2.000
    25   -0.09742193   -8.43755969   -0.28966064     1.830
    26    2.45454869   -9.18433855    0.45581488     2.000
    27   -3.85046752   -9.74446186    0.00946712     1.300
    28    2.85623291  -11.09832743   -0.25773743     1.300
    29   -1.94286821  -10.24950519    0.67190112     2.000
    30   -0.10083912   -4.02246488   -3.08831155     1.300
    31    2.63472731   -4.07762127   -1.11845357     1.300
    32   -2.77921211   -5.60966100    0.34960606     1.300
    33   -0.22764556   -5.52549878    2.53970185     1.300
    34   -1.98835783  -10.33901450    2.77652708     1.300
    35    2.71414606   -9.20406736    2.54704041     1.300
    36    3.87129969   -7.89588776   -0.35336505     1.300
    37   -1.48804518  -12.15522905   -0.03291056     1.300
 number of segments per atom =         32
 number of   points per atom =         32
 atom (   nspa,  nppa )
 ----------------------
    1 (     11,     0 )       0
    2 (     13,     0 )       0
    3 (     15,     0 )       0
    4 (     11,     0 )       0
    5 (      2,     0 )       0
    6 (      3,     0 )       0
    7 (     14,     0 )       0
    8 (     15,     0 )       0
    9 (     11,     0 )       0
   10 (     12,     0 )       0
   11 (     13,     0 )       0
   12 (     11,     0 )       0
   13 (     14,     0 )       0
   14 (     12,     0 )       0
   15 (     12,     0 )       0
   16 (     15,     0 )       0
   17 (     13,     0 )       0
   18 (     14,     0 )       0
   19 (     16,     0 )       0
   20 (     14,     0 )       0
   21 (     15,     0 )       0
   22 (     14,     0 )       0
   23 (     10,     0 )       0
   24 (      9,     0 )       0
   25 (      5,     0 )       0
   26 (     15,     0 )       0
   27 (     14,     0 )       0
   28 (     13,     0 )       0
   29 (     15,     0 )       0
   30 (     12,     0 )       0
   31 (     15,     0 )       0
   32 (     14,     0 )       0
   33 (     14,     0 )       0
   34 (     16,     0 )       0
   35 (     16,     0 )       0
   36 (     12,     0 )       0
   37 (     14,     0 )       0
 number of -cosmo- surface points =      464
 molecular surface =    283.173 angstrom**2
 molecular volume  =    155.171 angstrom**3
 G(cav/disp)       =      2.276 kcal/mol
 ...... end of -cosmo- initialization ......


  Caching 1-el integrals 
   Time after variat. SCF:   1914.5
   Time prior to 1st pass:   1914.5


         Total DFT energy =    -1016.177996129828
      One electron energy =    -3877.266137933335
           Coulomb energy =     1727.704043559689
    Exchange-Corr. energy =     -118.502125127831
 Nuclear repulsion energy =     1250.966928955612

             COSMO energy =        0.919294416037

 Numeric. integr. density =      127.999982092117

     Total iterative time =    494.3s


                                   COSMO solvation results
                                   -----------------------

                 gas phase energy =     -1016.169394682986
                 sol phase energy =     -1016.177996129828
 (electrostatic) solvation energy =         0.008601446842 (    5.40 kcal/mol)

     --------------------------
     Expectation value of S2:  
     --------------------------
      <S2> =      0.0000 (Exact =     0.0000)
 
 Line search: 
     step= 1.00 grad=-8.1D-04 hess= 3.3D-04 energy=  -1016.177996 mode=downhill
 new step= 1.24                   predicted energy=  -1016.178015
  no constraints, skipping   0.000000000000000E+000
  no constraints, skipping   0.000000000000000E+000
  no constraints, skipping   0.000000000000000E+000
  no constraints, skipping   0.000000000000000E+000
  no constraints, skipping   0.000000000000000E+000
  no constraints, skipping   0.000000000000000E+000
  no constraints, skipping   0.000000000000000E+000
  no constraints, skipping   0.000000000000000E+000

          --------
          Step   2
          --------
 
                                 NWChem DFT Module
                                 -----------------
 
 
                                       der2
 
 
 
 
 solvent parameters
 solvname_short: chcl3   
 solvname_long:  chloroform                         
 dielec:        4.7113
 dielecinf:     2.0906

          ---------------
          -cosmo- solvent
          ---------------
 Cosmo: York-Karplus, doi: 10.1021/jp992097l
 dielectric constant -eps-     =   4.71
 screen = (eps-1)/(eps    )    =   0.78774
 surface charge correction     = lagrangian
 -lineq- algorithm             =   0
 -bem- low  level              =   2
 -bem- from -octahedral-
 gaussian surface charge width =   0.98000
 degree of switching           =   1.00000
 switching function tolerance  =   0.00010
 atomic radii = 
 --------------
    1  8.000  1.720
    2 15.000  2.106
    3  8.000  1.720
    4  8.000  1.720
    5  6.000  2.000
    6  6.000  2.000
    7  6.000  2.000
    8  6.000  2.000
    9  6.000  2.000
   10  6.000  2.000
   11  1.000  1.300
   12  1.000  1.300
   13  1.000  1.300
   14  1.000  1.300
   15  1.000  1.300
   16  1.000  1.300
   17  1.000  1.300
   18  1.000  1.300
   19  1.000  1.300
   20  1.000  1.300
   21  1.000  1.300
   22  1.000  1.300
   23  6.000  2.000
   24  6.000  2.000
   25  7.000  1.830
   26  6.000  2.000
   27  1.000  1.300
   28  1.000  1.300
   29  6.000  2.000
   30  1.000  1.300
   31  1.000  1.300
   32  1.000  1.300
   33  1.000  1.300
   34  1.000  1.300
   35  1.000  1.300
   36  1.000  1.300
   37  1.000  1.300

 solvent accessible surface
 --------------------------

[...]
   37 (     15,     0 )       0
 number of -cosmo- surface points =      465
 molecular surface =    282.226 angstrom**2
 molecular volume  =    154.812 angstrom**3
 G(cav/disp)       =      2.271 kcal/mol
 ...... end of -cosmo- initialization ......


 SCF residual:   1.762290886415638E-004

      ----------------------------------------------
      Calculating Paramagnetic Spin-Orbit Responses
      ----------------------------------------------

 
 solvent parameters
 solvname_short: chcl3   
 solvname_long:  chloroform                         
 dielec:        4.7113
 dielecinf:     2.0906

          ---------------
          -cosmo- solvent
          ---------------
 Cosmo: York-Karplus, doi: 10.1021/jp992097l
 dielectric constant -eps-     =   4.71
 screen = (eps-1)/(eps    )    =   0.78774
 surface charge correction     = lagrangian
 -lineq- algorithm             =   0
 -bem- low  level              =   2
 -bem- from -octahedral-
 gaussian surface charge width =   0.98000
 degree of switching           =   1.00000
 switching function tolerance  =   0.00010
 atomic radii = 
 --------------
    1  8.000  1.720
    2 15.000  2.106
    3  8.000  1.720
    4  8.000  1.720
    5  6.000  2.000
    6  6.000  2.000
    7  6.000  2.000
    8  6.000  2.000
    9  6.000  2.000
   10  6.000  2.000
   11  1.000  1.300
   12  1.000  1.300
   13  1.000  1.300
   14  1.000  1.300
   15  1.000  1.300
   16  1.000  1.300
   17  1.000  1.300
   18  1.000  1.300
   19  1.000  1.300
   20  1.000  1.300
   21  1.000  1.300
   22  1.000  1.300
   23  6.000  2.000
   24  6.000  2.000
   25  7.000  1.830
   26  6.000  2.000
   27  1.000  1.300
   28  1.000  1.300
   29  6.000  2.000
   30  1.000  1.300
   31  1.000  1.300
   32  1.000  1.300
   33  1.000  1.300
   34  1.000  1.300
   35  1.000  1.300
   36  1.000  1.300
   37  1.000  1.300

 solvent accessible surface
 --------------------------

 ---------- ATOMIC COORDINATES (A.U.) ------------ VDWR(ANG.) --
     1    1.10996731   -1.42487591   -0.09821012     1.720
     2   -0.26982392    0.73796658   -1.99788091     2.106
     3    1.86628367    3.08921943   -2.07226916     1.720
     4   -2.04179730    2.19792678    0.21163467     1.720
     5    1.66159031    4.79826692    0.10828544     2.000
     6   -1.24572619    4.80624751    0.69531940     2.000
     7    3.26952680    3.72768426    2.26782396     2.000
     8    2.70387190    7.35044078   -0.73874209     2.000
     9   -2.76329783    6.51676861   -1.08425301     2.000
    10   -1.89530027    5.39176407    3.44464139     2.000
    11    3.40433279    5.08451074    3.83764836     1.300
    12    2.49911361    1.94070209    2.98473053     1.300
    13    5.18983087    3.36689311    1.55670611     1.300
    14    1.80958054    8.00106475   -2.49373238     1.300
    15    2.39584738    8.78151733    0.74048126     1.300
    16    4.75179260    7.19918925   -1.06707053     1.300
    17   -2.45428762    8.52684740   -0.65351942     1.300
    18   -2.26054928    6.18503910   -3.07437584     1.300
    19   -4.78691530    6.10393514   -0.84704722     1.300
    20   -1.19682782    7.28167941    3.96556808     1.300
    21   -3.95942335    5.37691342    3.69567975     1.300
    22   -1.07277231    3.99614085    4.74031781     1.300
    23    1.34082616   -3.97722087   -1.01886857     2.000
    24   -0.40510884   -5.70717600    0.49650296     2.000
    25   -0.20892442   -8.34606611   -0.30391752     1.830
    26    2.05353124   -9.57578102    0.68781413     2.000
    27   -4.14804680   -8.91145551   -0.47491936     1.300
    28    2.19368989  -11.50676460   -0.07478718     1.300
    29   -2.46270119   -9.77988645    0.38093839     2.000
    30    0.85296566   -4.08804803   -3.04482984     1.300
    31    3.33816231   -4.51793652   -0.81095543     1.300
    32   -2.36155381   -5.06951767    0.18000599     1.300
    33   -0.01093371   -5.46237061    2.54963126     1.300
    34   -2.77070111   -9.88784339    2.46112240     1.300
    35    2.04781527   -9.70724810    2.78963035     1.300
    36    3.76401976   -8.54294779    0.11817629     1.300
    37   -2.29801933  -11.72748945   -0.33459796     1.300
 number of segments per atom =         32
 number of   points per atom =         32
 atom (   nspa,  nppa )
 ----------------------
    1 (      9,     0 )       0
    2 (     14,     0 )       0
    3 (     12,     0 )       0
    4 (     11,     0 )       0
    5 (      2,     0 )       0
    6 (      3,     0 )       0
    7 (     12,     0 )       0
    8 (     13,     0 )       0
    9 (     14,     0 )       0
   10 (     13,     0 )       0
   11 (     13,     0 )       0
   12 (     11,     0 )       0
   13 (     13,     0 )       0
   14 (     11,     0 )       0
   15 (     15,     0 )       0
   16 (     16,     0 )       0
   17 (     14,     0 )       0
   18 (     14,     0 )       0
   19 (     15,     0 )       0
   20 (     14,     0 )       0
   21 (     15,     0 )       0
   22 (     13,     0 )       0
   23 (     13,     0 )       0
   24 (     10,     0 )       0
   25 (      5,     0 )       0
   26 (     14,     0 )       0
   27 (     13,     0 )       0
   28 (     14,     0 )       0
   29 (     15,     0 )       0
   30 (     13,     0 )       0
   31 (     13,     0 )       0
   32 (     13,     0 )       0
   33 (     16,     0 )       0
   34 (     16,     0 )       0
   35 (     16,     0 )       0
   36 (     12,     0 )       0
   37 (     15,     0 )       0
 number of -cosmo- surface points =      465
 molecular surface =    282.226 angstrom**2
 molecular volume  =    154.812 angstrom**3
 G(cav/disp)       =      2.271 kcal/mol
 ...... end of -cosmo- initialization ......


 SCF residual:   1.762290886866943E-004

      ----------------------------------
      Indirect Spin-Spin Tensors (in Hz)
      ----------------------------------

      -------------------------------------------------
      Atom    2:  31-P  and Atom   23:  13-C 

      Respective Nuclear g-factors: 2.263200 & 1.404822
      -------------------------------------------------

      Fermi Contact (FC) Term (Hz):
     31.4629      0.0000      0.0000
      0.0000     31.4629      0.0000
      0.0000      0.0000     31.4629
        Isotropic =      31.4629

      Spin-Dipole   (SD) Term (Hz):
      0.1428      0.2206     -0.0809
     -0.0657      0.0256     -0.3092
     -0.0980      0.3197      0.0102
        Isotropic =       0.0595

      FC - SD  Cross Term (Hz):
     -0.4522     -1.0028      1.6268
     -1.0028     -0.4066     -3.2351
      1.6268     -3.2351      0.8588
        Isotropic =      -0.0000

      Paramagnetic Spin-Orbit Term (Hz):
     -1.5917     -0.2173      0.9513
     -0.0524     -1.4993      0.2244
      0.9255     -1.1205     -0.1772
        Isotropic =      -1.0894

      Diamagnetic Spin-Orbit Term (Hz):
     -0.5068     -0.7503      0.2029
     -0.8667      1.3853     -0.6717
      0.1088     -0.3255     -0.7397
        Isotropic =       0.0463

      Total Spin-Spin Coupling Tensor (Hz):
     29.0550     -1.7497      2.7002
     -1.9876     30.9679     -3.9917
      2.5631     -4.3613     31.4150


      Isotropic Spin-Spin Coupling =      30.4793 Hz



      -------------------------------------------------
      Atom    2:  31-P  and Atom   30:   1-H 

      Respective Nuclear g-factors: 2.263200 & 5.585689
      -------------------------------------------------

      Fermi Contact (FC) Term (Hz):
     12.4123      0.0000      0.0000
      0.0000     12.4123      0.0000
      0.0000      0.0000     12.4123
        Isotropic =      12.4123

      Spin-Dipole   (SD) Term (Hz):
      0.0357      0.2281     -0.3348
      0.2671     -0.5192     -0.0955
     -0.3896      0.0334     -0.3677
        Isotropic =      -0.2838

      FC - SD  Cross Term (Hz):
     -1.1495     -2.8497      3.2720
     -2.8497     -1.8829     -5.1059
      3.2720     -5.1059      3.0324
        Isotropic =       0.0000

      Paramagnetic Spin-Orbit Term (Hz):
      1.9053      0.5537      0.2975
      1.4806     -4.9523     -2.2790
      0.6699     -3.8321      0.9049
        Isotropic =      -0.7141

      Diamagnetic Spin-Orbit Term (Hz):
     -1.5044     -1.4070     -0.3009
     -1.9498      5.1527      0.9954
     -0.8502      2.8501     -1.9057
        Isotropic =       0.5809

      Total Spin-Spin Coupling Tensor (Hz):
     11.6994     -3.4749      2.9338
     -3.0517     10.2107     -6.4849
      2.7022     -6.0545     14.0761


      Isotropic Spin-Spin Coupling =      11.9954 Hz



      -------------------------------------------------
      Atom    2:  31-P  and Atom   31:   1-H 

      Respective Nuclear g-factors: 2.263200 & 5.585689
      -------------------------------------------------

      Fermi Contact (FC) Term (Hz):
      9.5274      0.0000      0.0000
      0.0000      9.5274      0.0000
      0.0000      0.0000      9.5274
        Isotropic =       9.5274

      Spin-Dipole   (SD) Term (Hz):
      0.1275      0.0897      0.3941
     -0.1276      0.1473     -0.3211
     -0.3187      0.2855     -0.2217
        Isotropic =       0.0177

      FC - SD  Cross Term (Hz):
      0.4557      1.5262      0.3294
      1.5262     -1.8651     -2.6049
      0.3294     -2.6049      1.4093
        Isotropic =       0.0000

      Paramagnetic Spin-Orbit Term (Hz):
     -0.3552      1.9704      0.6898
      2.3186     -1.7735     -0.2708
     -0.1668     -0.0732      1.2841
        Isotropic =      -0.2815

      Diamagnetic Spin-Orbit Term (Hz):
     -0.1163     -2.7723      0.9333
     -2.1228      0.8854     -1.1037
      0.3752     -0.5043     -1.7331
        Isotropic =      -0.3213

      Total Spin-Spin Coupling Tensor (Hz):
      9.6391      0.8140      2.3466
      1.5944      6.9216     -4.3004
      0.2190     -2.8969     10.2660


      Isotropic Spin-Spin Coupling =       8.9422 Hz




          -----------------------------------------
          Chemical Shielding Tensors (GIAO, in ppm)
          -----------------------------------------

 
 solvent parameters
 solvname_short: chcl3   
 solvname_long:  chloroform                         
 dielec:        4.7113
 dielecinf:     2.0906

          ---------------
          -cosmo- solvent
          ---------------
 Cosmo: York-Karplus, doi: 10.1021/jp992097l
 dielectric constant -eps-     =   4.71
 screen = (eps-1)/(eps    )    =   0.78774
 surface charge correction     = lagrangian
 -lineq- algorithm             =   0
 -bem- low  level              =   2
 -bem- from -octahedral-
 gaussian surface charge width =   0.98000
 degree of switching           =   1.00000
 switching function tolerance  =   0.00010
 atomic radii = 
 --------------
    1  8.000  1.720
    2 15.000  2.106
    3  8.000  1.720
    4  8.000  1.720
    5  6.000  2.000
    6  6.000  2.000
    7  6.000  2.000
    8  6.000  2.000
    9  6.000  2.000
   10  6.000  2.000
   11  1.000  1.300
   12  1.000  1.300
   13  1.000  1.300
   14  1.000  1.300
   15  1.000  1.300
   16  1.000  1.300
   17  1.000  1.300
   18  1.000  1.300
   19  1.000  1.300
   20  1.000  1.300
   21  1.000  1.300
   22  1.000  1.300
   23  6.000  2.000
   24  6.000  2.000
   25  7.000  1.830
   26  6.000  2.000
   27  1.000  1.300
   28  1.000  1.300
   29  6.000  2.000
   30  1.000  1.300
   31  1.000  1.300
   32  1.000  1.300
   33  1.000  1.300
   34  1.000  1.300
   35  1.000  1.300
   36  1.000  1.300
   37  1.000  1.300

 solvent accessible surface
 --------------------------

 ---------- ATOMIC COORDINATES (A.U.) ------------ VDWR(ANG.) --
     1    1.10996731   -1.42487591   -0.09821012     1.720
     2   -0.26982392    0.73796658   -1.99788091     2.106
     3    1.86628367    3.08921943   -2.07226916     1.720
     4   -2.04179730    2.19792678    0.21163467     1.720
     5    1.66159031    4.79826692    0.10828544     2.000
     6   -1.24572619    4.80624751    0.69531940     2.000
     7    3.26952680    3.72768426    2.26782396     2.000
     8    2.70387190    7.35044078   -0.73874209     2.000
     9   -2.76329783    6.51676861   -1.08425301     2.000
    10   -1.89530027    5.39176407    3.44464139     2.000
    11    3.40433279    5.08451074    3.83764836     1.300
    12    2.49911361    1.94070209    2.98473053     1.300
    13    5.18983087    3.36689311    1.55670611     1.300
    14    1.80958054    8.00106475   -2.49373238     1.300
    15    2.39584738    8.78151733    0.74048126     1.300
    16    4.75179260    7.19918925   -1.06707053     1.300
    17   -2.45428762    8.52684740   -0.65351942     1.300
    18   -2.26054928    6.18503910   -3.07437584     1.300
    19   -4.78691530    6.10393514   -0.84704722     1.300
    20   -1.19682782    7.28167941    3.96556808     1.300
    21   -3.95942335    5.37691342    3.69567975     1.300
    22   -1.07277231    3.99614085    4.74031781     1.300
    23    1.34082616   -3.97722087   -1.01886857     2.000
    24   -0.40510884   -5.70717600    0.49650296     2.000
    25   -0.20892442   -8.34606611   -0.30391752     1.830
    26    2.05353124   -9.57578102    0.68781413     2.000
    27   -4.14804680   -8.91145551   -0.47491936     1.300
    28    2.19368989  -11.50676460   -0.07478718     1.300
    29   -2.46270119   -9.77988645    0.38093839     2.000
    30    0.85296566   -4.08804803   -3.04482984     1.300
    31    3.33816231   -4.51793652   -0.81095543     1.300
    32   -2.36155381   -5.06951767    0.18000599     1.300
    33   -0.01093371   -5.46237061    2.54963126     1.300
    34   -2.77070111   -9.88784339    2.46112240     1.300
    35    2.04781527   -9.70724810    2.78963035     1.300
    36    3.76401976   -8.54294779    0.11817629     1.300
    37   -2.29801933  -11.72748945   -0.33459796     1.300
 number of segments per atom =         32
 number of   points per atom =         32
 atom (   nspa,  nppa )
 ----------------------
    1 (      9,     0 )       0
    2 (     14,     0 )       0
    3 (     12,     0 )       0
    4 (     11,     0 )       0
    5 (      2,     0 )       0
    6 (      3,     0 )       0
    7 (     12,     0 )       0
    8 (     13,     0 )       0
    9 (     14,     0 )       0
   10 (     13,     0 )       0
   11 (     13,     0 )       0
   12 (     11,     0 )       0
   13 (     13,     0 )       0
   14 (     11,     0 )       0
   15 (     15,     0 )       0
   16 (     16,     0 )       0
   17 (     14,     0 )       0
   18 (     14,     0 )       0
   19 (     15,     0 )       0
   20 (     14,     0 )       0
   21 (     15,     0 )       0
   22 (     13,     0 )       0
   23 (     13,     0 )       0
   24 (     10,     0 )       0
   25 (      5,     0 )       0
   26 (     14,     0 )       0
   27 (     13,     0 )       0
   28 (     14,     0 )       0
   29 (     15,     0 )       0
   30 (     13,     0 )       0
   31 (     13,     0 )       0
   32 (     13,     0 )       0
   33 (     16,     0 )       0
   34 (     16,     0 )       0
   35 (     16,     0 )       0
   36 (     12,     0 )       0
   37 (     15,     0 )       0
 number of -cosmo- surface points =      465
 molecular surface =    282.226 angstrom**2
 molecular volume  =    154.812 angstrom**3
 G(cav/disp)       =      2.271 kcal/mol
 ...... end of -cosmo- initialization ......


 SCF residual:   1.762290887040928E-004

 Wrote CPHF data to ./molecule.shieldcphf

 Calc. par tensor-> nonrel
      Atom:    1  P 
        Diamagnetic
    961.7846     -1.2870     -0.7408
     -1.2870    971.8892      0.3625
     -0.7408      0.3625    961.0987

        Paramagnetic
   -767.0901     11.0308     68.6082
     11.0308   -835.7577      1.6206
     68.6082      1.6206   -679.4175

        Total Shielding Tensor
    194.6945      9.7438     67.8674
      9.7438    136.1316      1.9830
     67.8674      1.9830    281.6813

           isotropic =     204.1691
          anisotropy =     172.2785

          Principal Components and Axis System
                 1           2           3
              319.0214    159.9747    133.5112

      1         0.4810      0.8309     -0.2798
      2         0.0351      0.3006      0.9531
      3         0.8760     -0.4682      0.1154



 
 
                                NWChem Input Module
                                -------------------
 
 
 
 
                                     CITATION
                                     --------
                Please cite the following reference when publishing
                           results obtained with NWChem:
 
          E. Apra, E. J. Bylaska, W. A. de Jong, N. Govind, K. Kowalski,
       T. P. Straatsma, M. Valiev, H. J. J. van Dam, Y. Alexeev, J. Anchell,
       V. Anisimov, F. W. Aquino, R. Atta-Fynn, J. Autschbach, N. P. Bauman,
     J. C. Becca, D. E. Bernholdt, K. Bhaskaran-Nair, S. Bogatko, P. Borowski,
         J. Boschen, J. Brabec, A. Bruner, E. Cauet, Y. Chen, G. N. Chuev,
      C. J. Cramer, J. Daily, M. J. O. Deegan, T. H. Dunning Jr., M. Dupuis,
   K. G. Dyall, G. I. Fann, S. A. Fischer, A. Fonari, H. Fruchtl, L. Gagliardi,
      J. Garza, N. Gawande, S. Ghosh, K. Glaesemann, A. W. Gotz, J. Hammond,
       V. Helms, E. D. Hermes, K. Hirao, S. Hirata, M. Jacquelin, L. Jensen,
   B. G. Johnson, H. Jonsson, R. A. Kendall, M. Klemm, R. Kobayashi, V. Konkov,
      S. Krishnamoorthy, M. Krishnan, Z. Lin, R. D. Lins, R. J. Littlefield,
      A. J. Logsdail, K. Lopata, W. Ma, A. V. Marenich, J. Martin del Campo,
   D. Mejia-Rodriguez, J. E. Moore, J. M. Mullin, T. Nakajima, D. R. Nascimento,
    J. A. Nichols, P. J. Nichols, J. Nieplocha, A. Otero-de-la-Roza, B. Palmer,
    A. Panyala, T. Pirojsirikul, B. Peng, R. Peverati, J. Pittner, L. Pollack,
   R. M. Richard, P. Sadayappan, G. C. Schatz, W. A. Shelton, D. W. Silverstein,
   D. M. A. Smith, T. A. Soares, D. Song, M. Swart, H. L. Taylor, G. S. Thomas,
            V. Tipparaju, D. G. Truhlar, K. Tsemekhman, T. Van Voorhis,
      A. Vazquez-Mayagoitia, P. Verma, O. Villa, A. Vishnu, K. D. Vogiatzis,
        D. Wang, J. H. Weare, M. J. Williamson, T. L. Windus, K. Wolinski,
        A. T. Wong, Q. Wu, C. Yang, Q. Yu, M. Zacharias, Z. Zhang, Y. Zhao,
                                and R. J. Harrison
                        "NWChem: Past, present, and future
                         J. Chem. Phys. 152, 184102 (2020)
                               doi:10.1063/5.0004997
 
                                      AUTHORS
                                      -------
     E. Apra, E. J. Bylaska, N. Govind, K. Kowalski, M. Valiev, W. A. de Jong,
      T. P. Straatsma, H. J. J. van Dam, D. Wang, T. L. Windus, N. P. Bauman,
       A. Panyala, J. Hammond, J. Autschbach, K. Bhaskaran-Nair, J. Brabec,
    K. Lopata, S. A. Fischer, S. Krishnamoorthy, M. Jacquelin, W. Ma, M. Klemm,
       O. Villa, Y. Chen, V. Anisimov, F. Aquino, S. Hirata, M. T. Hackler,
           Eric Hermes, L. Jensen, J. E. Moore, J. C. Becca, V. Konjkov,
            D. Mejia-Rodriguez, T. Risthaus, M. Malagoli, A. Marenich,
   A. Otero-de-la-Roza, J. Mullin, P. Nichols, R. Peverati, J. Pittner, Y. Zhao,
        P.-D. Fan, A. Fonari, M. J. Williamson, R. J. Harrison, J. R. Rehr,
      M. Dupuis, D. Silverstein, D. M. A. Smith, J. Nieplocha, V. Tipparaju,
      M. Krishnan, B. E. Van Kuiken, A. Vazquez-Mayagoitia, M. Swart, Q. Wu,
   T. Van Voorhis, A. A. Auer, M. Nooijen, L. D. Crosby, E. Brown, G. Cisneros,
     G. I. Fann, H. Fruchtl, J. Garza, K. Hirao, R. A. Kendall, J. A. Nichols,
       K. Tsemekhman, K. Wolinski, J. Anchell, D. E. Bernholdt, P. Borowski,
       T. Clark, D. Clerc, H. Dachsel, M. J. O. Deegan, K. Dyall, D. Elwood,
      E. Glendening, M. Gutowski, A. C. Hess, J. Jaffe, B. G. Johnson, J. Ju,
        R. Kobayashi, R. Kutteh, Z. Lin, R. Littlefield, X. Long, B. Meng,
      T. Nakajima, S. Niu, L. Pollack, M. Rosing, K. Glaesemann, G. Sandrone,
      M. Stave, H. Taylor, G. Thomas, J. H. van Lenthe, A. T. Wong, Z. Zhang.

 Total times  cpu:    39586.8s     wall:    39627.8s
