
     Program PWSCF v.7.4.1 starts on 19Feb2026 at 16:28:30 

     This program is part of the open-source Quantum ESPRESSO suite
     for quantum simulation of materials; please cite
         "P. Giannozzi et al., J. Phys.:Condens. Matter 21 395502 (2009);
         "P. Giannozzi et al., J. Phys.:Condens. Matter 29 465901 (2017);
         "P. Giannozzi et al., J. Chem. Phys. 152 154105 (2020);
          URL http://www.quantum-espresso.org", 
     in publications or presentations arising from this work. More details at
     http://www.quantum-espresso.org/quote

     Parallel version (MPI), running on     4 processors

     MPI processes distributed on     1 nodes
     15199 MiB available memory on the printing compute node when the environment starts

     Reading input from espresso.pwi
Warning: card &CELL ignored
Warning: card / ignored
Warning: card &FCP ignored
Warning: card / ignored
Warning: card &RISM ignored
Warning: card / ignored

     Current dimensions of program PWSCF are:
     Max number of different atomic species (ntypx) = 10
     Max number of k-points (npk) =  40000
     Max angular momentum in pseudopotentials (lmaxx) =  4
     Message from routine setup:
     using ibrav=0 with symmetry is DISCOURAGED, use correct ibrav instead

     R & G space division:  proc/nbgrp/npool/nimage =       4
     Subspace diagonalization in iterative solution of the eigenvalue problem:
     a serial algorithm will be used


     Parallelization info
     --------------------
     sticks:   dense  smooth     PW     G-vecs:    dense   smooth      PW
     Min         478     478    118                51532    51532    6424
     Max         479     479    119                51545    51545    6437
     Sum        1915    1915    475               206159   206159   25731

     Using Slab Decomposition



     bravais-lattice index     =            0
     lattice parameter (alat)  =       9.3214  a.u.
     unit-cell volume          =    2132.9405 (a.u.)^3
     number of atoms/cell      =            9
     number of atomic types    =            2
     number of electrons       =        33.00
     number of Kohn-Sham states=           21
     kinetic-energy cutoff     =      80.0000  Ry
     charge density cutoff     =     320.0000  Ry
     scf convergence threshold =      1.0E-10
     mixing beta               =       0.7000
     number of iterations used =            8  plain     mixing
     Exchange-correlation= PBE
                           (   1   4   3   4   0   0   0)

     celldm(1)=   9.321354  celldm(2)=   0.000000  celldm(3)=   0.000000
     celldm(4)=   0.000000  celldm(5)=   0.000000  celldm(6)=   0.000000

     crystal axes: (cart. coord. in units of alat)
               a(1) = (   1.000000   0.000000   0.000000 )  
               a(2) = (  -0.500000   0.866025   0.000000 )  
               a(3) = (   0.000000   0.000000   3.040963 )  

     reciprocal axes: (cart. coord. in units 2 pi/alat)
               b(1) = (  1.000000  0.577350 -0.000000 )  
               b(2) = (  0.000000  1.154701  0.000000 )  
               b(3) = (  0.000000 -0.000000  0.328843 )  


     PseudoPot. # 1 for C  read from file:
     ./C.upf
     MD5 check sum: 34a24e64c0a39f27c6c36b90a16ac686
     Pseudo is Norm-conserving + core correction, Zval =  4.0
     Generated using ONCVPSP code by D. R. Hamann
     Using radial grid of 1248 points,  4 beta functions with: 
                l(1) =   0
                l(2) =   0
                l(3) =   1
                l(4) =   1

     PseudoPot. # 2 for H  read from file:
     ./H.upf
     MD5 check sum: e96aa7e3e4a958db16958554ea960e2a
     Pseudo is Norm-conserving, Zval =  1.0
     Generated using ONCVPSP code by D. R. Hamann
     Using radial grid of 1166 points,  3 beta functions with: 
                l(1) =   0
                l(2) =   0
                l(3) =   1

     atomic species   valence    mass     pseudopotential
     C                 4.00    12.01100     C ( 1.00)
     H                 1.00     1.00800     H ( 1.00)

     Starting magnetic structure 
     atomic species   magnetization
     C               0.000
     H               0.000

      6 Sym. Ops. (no inversion) found ( 4 have fractional translation)



   Cartesian axes

     site n.     atom                  positions (alat units)
         1        C      tau(   1) = (  -0.0032275   0.0018634   1.4956518  )
         2        C      tau(   2) = (  -0.2500001   0.4292858   1.4956518  )
         3        C      tau(   3) = (   0.5032275   0.0018634   1.4956518  )
         4        C      tau(   4) = (   0.2499999   0.4330127   1.5890444  )
         5        C      tau(   5) = (  -0.0065612   0.2848870   1.5041569  )
         6        C      tau(   6) = (  -0.2500001   0.7216878   1.5267549  )
         7        C      tau(   7) = (   0.5065611   0.2848870   1.5041569  )
         8        C      tau(   8) = (   0.2499999   0.7292639   1.5041569  )
         9        H      tau(   9) = (   0.2499999   0.4330127   1.8123843  )

     --------------------------------------------
     DFT-D3 Dispersion Correction (3-body terms):
     --------------------------------------------
       Reference C6 values for interpolation: 

         atom   Coordination number   C6
         H          0.912             6.05
         H          0.000            15.18
         C          0.000            98.23
         C          0.987            86.49
         C          1.998            58.72
         C          2.999            51.56
         C          3.984            36.41

       Values used:

         atom   Coordination number  R0_AB[au]  C6      C8
         C          3.292            2.750     48.72   1409.19
         C          3.292            2.750     48.72   1409.19
         C          3.292            2.750     48.72   1409.19
         C          4.228            2.750     36.45   1054.30
         C          3.317            2.750     48.22   1394.59
         C          3.298            2.750     48.60   1405.60
         C          3.317            2.750     48.22   1394.59
         C          3.317            2.750     48.22   1394.59
         H          1.011            2.062      6.17     74.60

         Molecular C6 ( Ry / a.u.^6 ) =      3276.31


     number of k points=     1  Gaussian smearing, width (Ry)=  0.0100
                       cart. coord. in units 2pi/alat
        k(    1) = (   0.0000000   0.0000000   0.0000000), wk =   1.0000000

     Dense  grid:   206159 G-vectors     FFT dimensions: (  54,  54, 162)

     Estimated max dynamical RAM per process >      73.66 MB

     Estimated total dynamical RAM >     294.65 MB
     Generating pointlists ...
     new r_m :   0.0921 (alat units)  0.8588 (a.u.) for type    1
     new r_m :   0.0921 (alat units)  0.8588 (a.u.) for type    2

     Initial potential from superposition of free atoms

     starting charge      32.9996, renormalised to      33.0000

     negative rho (up, down):  3.149E-05 3.149E-05
     Starting wfcs are   33 randomized atomic wfcs

     total cpu time spent up to now is        0.8 secs

     Self-consistent Calculation

     iteration #  1     ecut=    80.00 Ry     beta= 0.70
     Davidson diagonalization with overlap
     ethr =  1.00E-02,  avg # of iterations =  6.0

     negative rho (up, down):  3.140E-07 2.542E-07

     total cpu time spent up to now is        2.1 secs

     total energy              =     -96.80183480 Ry
     estimated scf accuracy    <       0.96148635 Ry

     total magnetization       =    -0.00 Bohr mag/cell
     absolute magnetization    =     0.01 Bohr mag/cell

     iteration #  2     ecut=    80.00 Ry     beta= 0.70
     Davidson diagonalization with overlap
     ethr =  2.91E-03,  avg # of iterations =  2.0

     total cpu time spent up to now is        3.1 secs

     total energy              =     -96.94195793 Ry
     estimated scf accuracy    <       0.03253108 Ry

     total magnetization       =    -0.01 Bohr mag/cell
     absolute magnetization    =     0.01 Bohr mag/cell

     iteration #  3     ecut=    80.00 Ry     beta= 0.70
     Davidson diagonalization with overlap
     ethr =  9.86E-05,  avg # of iterations = 16.0

     total cpu time spent up to now is        4.3 secs

     total energy              =     -96.94787932 Ry
     estimated scf accuracy    <       0.00519117 Ry

     total magnetization       =    -0.02 Bohr mag/cell
     absolute magnetization    =     0.02 Bohr mag/cell

     iteration #  4     ecut=    80.00 Ry     beta= 0.70
     Davidson diagonalization with overlap
     ethr =  1.57E-05,  avg # of iterations =  2.0

     total cpu time spent up to now is        5.5 secs

     total energy              =     -96.94921964 Ry
     estimated scf accuracy    <       0.00333094 Ry

     total magnetization       =    -0.07 Bohr mag/cell
     absolute magnetization    =     0.07 Bohr mag/cell

     iteration #  5     ecut=    80.00 Ry     beta= 0.70
     Davidson diagonalization with overlap
     ethr =  1.01E-05,  avg # of iterations =  1.5

     total cpu time spent up to now is        6.4 secs

     total energy              =     -96.95032557 Ry
     estimated scf accuracy    <       0.00020259 Ry

     total magnetization       =    -0.20 Bohr mag/cell
     absolute magnetization    =     0.20 Bohr mag/cell

     iteration #  6     ecut=    80.00 Ry     beta= 0.70
     Davidson diagonalization with overlap
     ethr =  6.14E-07,  avg # of iterations =  4.0

     total cpu time spent up to now is        7.6 secs

     total energy              =     -96.94928347 Ry
     estimated scf accuracy    <       0.00098522 Ry

     total magnetization       =    -0.53 Bohr mag/cell
     absolute magnetization    =     0.54 Bohr mag/cell

     iteration #  7     ecut=    80.00 Ry     beta= 0.70
     Davidson diagonalization with overlap
     ethr =  6.14E-07,  avg # of iterations =  3.0

     total cpu time spent up to now is        8.6 secs

     total energy              =     -96.94961116 Ry
     estimated scf accuracy    <       0.00013727 Ry

     total magnetization       =    -0.18 Bohr mag/cell
     absolute magnetization    =     0.18 Bohr mag/cell

     iteration #  8     ecut=    80.00 Ry     beta= 0.70
     Davidson diagonalization with overlap
     ethr =  4.16E-07,  avg # of iterations =  3.0

     total cpu time spent up to now is        9.5 secs

     total energy              =     -96.94980411 Ry
     estimated scf accuracy    <       0.00000434 Ry

     total magnetization       =     0.03 Bohr mag/cell
     absolute magnetization    =     0.03 Bohr mag/cell

     iteration #  9     ecut=    80.00 Ry     beta= 0.70
     Davidson diagonalization with overlap
     ethr =  1.31E-08,  avg # of iterations =  3.0

     total cpu time spent up to now is       10.8 secs

     total energy              =     -96.94980896 Ry
     estimated scf accuracy    <       0.00000030 Ry

     total magnetization       =     0.00 Bohr mag/cell
     absolute magnetization    =     0.00 Bohr mag/cell

     iteration # 10     ecut=    80.00 Ry     beta= 0.70
     Davidson diagonalization with overlap
     ethr =  9.12E-10,  avg # of iterations =  4.0

     total cpu time spent up to now is       12.1 secs

     total energy              =     -96.94980909 Ry
     estimated scf accuracy    <       0.00000010 Ry

     total magnetization       =    -0.00 Bohr mag/cell
     absolute magnetization    =     0.00 Bohr mag/cell

     iteration # 11     ecut=    80.00 Ry     beta= 0.70
     Davidson diagonalization with overlap
     ethr =  3.04E-10,  avg # of iterations =  2.0

     total cpu time spent up to now is       13.2 secs

     total energy              =     -96.94980912 Ry
     estimated scf accuracy    <       0.00000002 Ry

     total magnetization       =    -0.00 Bohr mag/cell
     absolute magnetization    =     0.00 Bohr mag/cell

     iteration # 12     ecut=    80.00 Ry     beta= 0.70
     Davidson diagonalization with overlap
     ethr =  4.99E-11,  avg # of iterations =  3.5

     total cpu time spent up to now is       14.4 secs

     total energy              =     -96.94980913 Ry
     estimated scf accuracy    <          2.4E-09 Ry

     total magnetization       =    -0.00 Bohr mag/cell
     absolute magnetization    =     0.00 Bohr mag/cell

     iteration # 13     ecut=    80.00 Ry     beta= 0.70
     Davidson diagonalization with overlap
     ethr =  7.27E-12,  avg # of iterations =  4.5

     total cpu time spent up to now is       19.2 secs

     total energy              =     -96.94980913 Ry
     estimated scf accuracy    <          9.5E-10 Ry

     total magnetization       =    -0.00 Bohr mag/cell
     absolute magnetization    =     0.00 Bohr mag/cell

     iteration # 14     ecut=    80.00 Ry     beta= 0.70
     Davidson diagonalization with overlap
     ethr =  2.86E-12,  avg # of iterations =  4.0

     total cpu time spent up to now is       20.3 secs

     total energy              =     -96.94980913 Ry
     estimated scf accuracy    <          1.4E-10 Ry

     total magnetization       =    -0.00 Bohr mag/cell
     absolute magnetization    =     0.00 Bohr mag/cell

     iteration # 15     ecut=    80.00 Ry     beta= 0.70
     Davidson diagonalization with overlap
     ethr =  4.25E-13,  avg # of iterations =  4.0

     Magnetic moment per site  (integrated on atomic sphere of radius R)
     atom   1 (R=0.092)  charge=  0.9019  magn=  0.0000
     atom   2 (R=0.092)  charge=  0.9019  magn=  0.0000
     atom   3 (R=0.092)  charge=  0.9019  magn=  0.0000
     atom   4 (R=0.092)  charge=  0.8774  magn=  0.0000
     atom   5 (R=0.092)  charge=  0.8896  magn= -0.0000
     atom   6 (R=0.092)  charge=  0.8819  magn= -0.0000
     atom   7 (R=0.092)  charge=  0.8896  magn= -0.0000
     atom   8 (R=0.092)  charge=  0.8896  magn= -0.0000
     atom   9 (R=0.092)  charge=  0.4954  magn= -0.0000

     total cpu time spent up to now is       21.5 secs

     End of self-consistent calculation

 ------ SPIN UP ------------


          k = 0.0000 0.0000 0.0000 ( 25731 PWs)   bands (ev):

   -20.7752 -15.5769 -15.5769 -15.5490 -14.7313 -14.2065 -14.2065  -9.7651
    -7.8549  -7.2977  -7.2977  -6.7389  -4.4819  -4.4819  -3.3285  -3.3285
    -1.7151   0.5369   0.5369   1.4165   2.2413

 ------ SPIN DOWN ----------


          k = 0.0000 0.0000 0.0000 ( 25731 PWs)   bands (ev):

   -20.7752 -15.5769 -15.5768 -15.5490 -14.7313 -14.2065 -14.2065  -9.7651
    -7.8549  -7.2977  -7.2977  -6.7389  -4.4819  -4.4819  -3.3285  -3.3285
    -1.7151   0.5369   0.5369   1.4165   2.2413

     the Fermi energy is    -1.7151 ev

!    total energy              =     -96.94980913 Ry
     estimated scf accuracy    <          1.7E-11 Ry
     smearing contrib. (-TS)   =      -0.00564190 Ry
     internal energy E=F+TS    =     -96.94416723 Ry

     The total energy is F=E-TS. E is the sum of the following terms:
     one-electron contribution =    -648.68201456 Ry
     hartree contribution      =     331.47743786 Ry
     xc contribution           =     -35.20732716 Ry
     ewald contribution        =     255.52332721 Ry
     DFT-D3 Dispersion         =      -0.05559059 Ry

     total magnetization       =     0.00 Bohr mag/cell
     absolute magnetization    =     0.00 Bohr mag/cell

     convergence has been achieved in  15 iterations

     Forces acting on atoms (cartesian axes, Ry/au):

     atom    1 type  1   force =    -0.00000204    0.00000118   -0.00000938
     atom    2 type  1   force =    -0.00000000   -0.00000236   -0.00000938
     atom    3 type  1   force =     0.00000204    0.00000118   -0.00000938
     atom    4 type  1   force =     0.00000000    0.00000000   -0.00012761
     atom    5 type  1   force =    -0.00003115   -0.00001799    0.00001109
     atom    6 type  1   force =     0.00000000   -0.00000000    0.00001475
     atom    7 type  1   force =     0.00003115   -0.00001799    0.00001109
     atom    8 type  1   force =    -0.00000000    0.00003597    0.00001109
     atom    9 type  2   force =    -0.00000000   -0.00000000    0.00010774

     Total force =     0.000181     Total SCF correction =     0.000003


     Computing stress (Cartesian axis) and pressure

          total   stress  (Ry/bohr**3)                   (kbar)     P=       26.53
   0.00027232   0.00000000   0.00000000           40.06        0.00        0.00
   0.00000000   0.00027232   0.00000000            0.00       40.06        0.00
   0.00000000   0.00000000  -0.00000355            0.00        0.00       -0.52


     Writing all to output data dir ./tmp/chg.save/ :
     XML data file, charge density, pseudopotentials, collected wavefunctions

     init_run     :      0.79s CPU      0.74s WALL (       1 calls)
     electrons    :     18.94s CPU     20.79s WALL (       1 calls)
     forces       :      0.50s CPU      0.46s WALL (       1 calls)
     force_dftd3  :      0.08s CPU      0.07s WALL (       1 calls)
     stress       :      1.20s CPU      1.10s WALL (       1 calls)
     stres_dftd3  :      0.08s CPU      0.07s WALL (       1 calls)

     Called by init_run:
     wfcinit      :      0.53s CPU      0.49s WALL (       1 calls)
     potinit      :      0.17s CPU      0.17s WALL (       1 calls)
     hinit0       :      0.05s CPU      0.05s WALL (       1 calls)

     Called by electrons:
     c_bands      :     13.92s CPU     16.17s WALL (      15 calls)
     sum_band     :      1.71s CPU      1.58s WALL (      15 calls)
     v_of_rho     :      2.35s CPU      2.17s WALL (      16 calls)
     mix_rho      :      0.93s CPU      0.86s WALL (      15 calls)
     energy_dftd3 :      0.06s CPU      0.06s WALL (       1 calls)

     Called by c_bands:
     init_us_2    :      0.36s CPU      0.33s WALL (      66 calls)
     cegterg      :     13.54s CPU     15.82s WALL (      30 calls)

     Called by *egterg:
     cdiaghg      :      0.06s CPU      0.05s WALL (     155 calls)
     h_psi        :     10.97s CPU     13.50s WALL (     157 calls)
     g_psi        :      0.03s CPU      0.02s WALL (     125 calls)

     Called by h_psi:
     h_psi:calbec :      2.18s CPU      1.98s WALL (     157 calls)
     vloc_psi     :      6.60s CPU      9.56s WALL (     157 calls)
     add_vuspsi   :      2.10s CPU      1.89s WALL (     157 calls)

     General routines
     calbec       :      3.04s CPU      2.75s WALL (     191 calls)
     fft          :      1.55s CPU      1.44s WALL (     344 calls)
     ffts         :      0.09s CPU      0.09s WALL (      30 calls)
     fftw         :      6.00s CPU      9.00s WALL (    4284 calls)

     Parallel routines

     PWSCF        :     21.47s CPU     23.15s WALL


   This run was terminated on:  16:28:53  19Feb2026            

=------------------------------------------------------------------------------=
   JOB DONE.
=------------------------------------------------------------------------------=
