

 Parallel Execution: Process Information
 ==============================================================================
 Rank   Node Name                              NodeID   MyNodeRank  NodeMaster
    0   ubuntu-kch                                0          0          0
    1   ubuntu-kch                                0          1         -1
    2   ubuntu-kch                                0          2         -1
    3   ubuntu-kch                                0          3         -1
 ==============================================================================


May use up to 7570MB of RAM as shared memory on node 0

 *******************************************************************************
 *                                                                             *
 *  --------------------------------                                           *
 *   Amsterdam Modeling Suite (AMS)              2020.202                      *
 *  --------------------------------                                           *
 *                                               r90167 2020-12-05             *
 *                                                                             *
 *                                                                             *
 *                              =================                              *
 *                              |               |                              *
 *                              |     A M S     |                              *
 *                              |               |                              *
 *                              =================                              *
 *                                                                             *
 *                                                                             *
 *   Online information and documentation:  https://www.scm.com/support/       *
 *   E-mail:  support@scm.com   info@scm.com                                   *
 *                                                                             *
 *   Scientific publications using AMS results must be properly referenced     *
 *   See the User Manuals (or the web site) for recommended citations          *
 *   The terms and conditions of the End User License Agreement apply to       *
 *   the use of AMS, https://www.scm.com/license-terms/                        *
 *                                                                             *
 **********************  x86_64_linux_intel / intelmpi  ************************
 
 Licensed to: Dr. Miroslav Ilias / Matej Bel University, Department Chemistry, Fac. Natural Sciences / Banska Bystrica / SLOVAKIA
 SCM User ID: u17848
  
 AMS 2020.202  RunTime: Jan30-2021 12:33:04  Nodes: 1  Procs: 4

 AMS jobname: ams
 AMS jobid  : 843361479

 Start   directory: /home/milias/work/projects/open-collection/theoretical_chemistry/projects/nmr_diplomovky/HD/ams/pbe0_tz2p_good/tmp.milias.420588.0.noindex/
 Results directory: /home/milias/work/projects/open-collection/theoretical_chemistry/projects/nmr_diplomovky/HD/ams/pbe0_tz2p_good/HD.geopt_freq_nmr_shield_pbe0_tz2p_good_cosmo-chcl3.results/
 Scratch directory: /tmp/amstmp_ams_kid0.843361479/


 Communication costs MPI_COMM_WORLD:      0.241 usec per message,   0.0033 usec per 8-byte item
 Communication costs for intra-node:      0.271 usec per message,   0.0034 usec per 8-byte item

 RNG seed: -1643519037 -48168030 900403133 1618981298 1615383474 1654817514 -1751628808 -612495820



                        ********************************************************************
                        *  ADF 2020.202  RunTime: Jan30-2021 12:33:05  Nodes: 1  Procs: 4  *
                        ********************************************************************
  
       ***************************
       *  GEOMETRY OPTIMIZATION  *
       ***************************

Optimization Method                    Quasi Newton
Optimization Coordinates               Delocalized Coordinates
Optimize lattice                       F
 
 ------------------------------------------------------
 Convergence criteria (Hartree,Angstrom)
 ------------------------------------------------------
 Maximum gradient               0.001000000000
 Maximum rms gradient           0.000666666667
 Maximum step allowed           0.001000000000
 Maximum rms step allowed       0.000666666667
 Maximum energy change allowe   0.000150000000
 Maximum stress energy allowe   0.000500000000
 
Initial model Hessian                  Automatic Hessian
 
------------------------------------
Quasi-Newton Optimizer Parameters
------------------------------------
Hessian Update Method                  BFGS
Maximum number of steps                  250
First GDIIS cycle                          0
Maximum GDIIS vectors                      0
Trust radius (bohr)                        0.200000
Trust radius varies                        T
Constraints converged at all steps         T
Use projector                              T
 
 Rigid motions settings for: old optimizer
 Atomic rotations (x,y,z):     T T T
 Atomic translations (x,y,z):  T T T
 Tolerance:                   1.000000000000000E-006
 
--------
Geometry
--------
Atoms
  Index Symbol   x (angstrom)   y (angstrom)   z (angstrom)
      1      S     0.00000000     0.00000000    -1.00091287       adf.R=1.792
      2      C     1.40907078     0.00000000     0.21368876       adf.R=1.700
      3      H     1.33129502     0.89420134     0.84075198       adf.R=1.350
      4      H     1.33129502    -0.89420134     0.84075198       adf.R=1.350
      5      C     2.71912072     0.00000000    -0.56492228       adf.R=1.700
      6      H     2.83977839     0.89517791    -1.17756572       adf.R=1.350
      7      H     2.83977839    -0.89517791    -1.17756572       adf.R=1.350
      8      C    -1.40907078     0.00000000     0.21368876       adf.R=1.700
      9      H    -1.33129502    -0.89420134     0.84075198       adf.R=1.350
     10      H    -1.33129502     0.89420134     0.84075198       adf.R=1.350
     11      C    -2.71912072     0.00000000    -0.56492228       adf.R=1.700
     12      H    -2.83977839     0.89517791    -1.17756572       adf.R=1.350
     13      H    -2.83977839    -0.89517791    -1.17756572       adf.R=1.350
     14     Cl     4.14889139     0.00000000     0.60336700       adf.R=1.725
     15     Cl    -4.14889139     0.00000000     0.60336700       adf.R=1.725
 
Total System Charge             0.00000
Bonding info available!
 
 
----------------
ADF Engine Input
----------------
 
 Basis
 Type TZ2P
 Core None
 End
 Save TAPE10
 XC
 Hybrid PBE0
 End
 Relativity
 Level None
 End
 Solvation
 Surf Delley
 Solv name=Chloroform cav0=0.0 cav1=0.0067639
 Charged method=CONJ
 C-Mat POT
 SCF VAR ALL
 CSMRSP
 End
 NumericalQuality Good
 

 Title: *** (NO TITLE) ***

Number of symmetry operators: 4
Schoenflies symbol:           C(2V)
 Using automatic Hessian for delocalized coordinates.
 *** GOStep1 ***

 SOLVATION
-------------------------------------------

  The Delley construction of COSMO surface surface is calculated

       Division Level for Surface Triangles (NDIV)                  3
       Final Division Level for Triangles (NFDIV)                   1
       Radius of the Solvent (RSOL)                           3.17000 angstr
  Dielectric Constant (EPSL)                                  4.80000

       COSMO equation is solved iteratively-               conjugate-gradient

       Maximun of Iterations for Charges (NCIX)                  1000
       Criterion for Charge convergence (CCNV)                1.0E-08

  COSMO charges included variationally in SCF

       COSMO included at every SCF cycle

  Geometry-dependent empirical factor                         0.00000

  C-Matrix calculated in cspmtx

  In cspmtx, C-Matrix calculated using fitted potential

-------------------------------------------



 -------------------------------------------
  COSMO surface
  Area             =          607.295
  Volume           =         1052.271
  Number of Points =         1383
 -------------------------------------------



 ======================
 RI Hartree-Fock Scheme
 ======================
  
 Fit Set Quality     : GOOD
 Integration Quality : GOOD
 Threshold Quality   : GOOD
 Response Quality    : DEFAULT
 Is Range Separated  :  F
 
 RIHartreeFock Dependency: number of modified vectors:          12
 cosmo_calcen: 0.5 (esolb+esolc) (Hartrees) =   -0.007528

 Solvation energy (screening term,uncorrected) =     -4.724106 kcal/mol

 Solvation energy (dispersion and cavitation terms) =      0.910629 kcal/mol
 Solvation Energy Contributions (Hartrees)
          esola   esolb+esolc
     0.00752834   -0.01505668
 esol last cycle   -0.00752834
  
 Hartree-Fock exchange energy:   -103.592282409000     
 cosmo_calcen: 0.5 (esolb+esolc) (Hartrees) =   -0.007528

 Solvation energy (screening term,uncorrected) =     -4.724105 kcal/mol

 Solvation energy (dispersion and cavitation terms) =      0.910629 kcal/mol
 Solvation Energy Contributions (Hartrees)
          esola   esolb+esolc
     0.00752834   -0.01505668
 esol last cycle   -0.00752834
  pauli hf:                              1.337785875231635         36.4030           839.47          3512.36
  elstat hf:                            -1.253916952121884        -34.1208          -786.84         -3292.16

 Energy gradients wrt nuclear displacements
 ==========================================

     Atom      Cartesian (a.u./angstrom)
                 X         Y         Z
 ----------------------------------------
     1 S     0.000000  0.000000 -0.033328
     2 C     0.004536  0.000000  0.014097
     3 H    -0.000221  0.005339  0.004709
     4 H    -0.000221 -0.005339  0.004709
     5 C    -0.007055 -0.000000 -0.018241
     6 H     0.000576  0.005108 -0.004486
     7 H     0.000576 -0.005108 -0.004486
     8 C    -0.004536 -0.000000  0.014097
     9 H     0.000221 -0.005339  0.004709
    10 H     0.000221  0.005339  0.004709
    11 C     0.007055  0.000000 -0.018241
    12 H    -0.000576  0.005108 -0.004486
    13 H    -0.000576 -0.005108 -0.004486
    14 Cl    0.027617 -0.000000  0.020361
    15 Cl   -0.027617  0.000000  0.020361
 ----------------------------------------
 Mulliken charges used for AMS results%charges...
 
----------------------------------------------------------------------
Geometry Convergence after Step   1       (Hartree/Angstrom,Angstrom)
----------------------------------------------------------------------
current energy                               -3.34475111 Hartree
energy change                      -3.34475111     0.00015000    F
constrained gradient max            0.03332803     0.00100000    F
constrained gradient rms            0.01060179     0.00066667    F
gradient max                        0.03332803
gradient rms                        0.01060179
cart. step max                      0.06682057     0.00100000    F
cart. step rms                      0.02325216     0.00066667    F
 
 
--------
Geometry
--------
Atoms
  Index Symbol   x (angstrom)   y (angstrom)   z (angstrom)
      1      S     0.00000000     0.00000000    -1.00157804       adf.R=1.792
      2      C     1.38280966    -0.00000000     0.21618327       adf.R=1.700
      3      H     1.30336282     0.89286523     0.83798363       adf.R=1.350
      4      H     1.30336282    -0.89286523     0.83798363       adf.R=1.350
      5      C     2.67643174    -0.00000000    -0.56593623       adf.R=1.700
      6      H     2.79761559     0.89383545    -1.17366296       adf.R=1.350
      7      H     2.79761559    -0.89383545    -1.17366296       adf.R=1.350
      8      C    -1.38280966     0.00000000     0.21618327       adf.R=1.700
      9      H    -1.30336282    -0.89286523     0.83798363       adf.R=1.350
     10      H    -1.30336282     0.89286523     0.83798363       adf.R=1.350
     11      C    -2.67643174     0.00000000    -0.56593623       adf.R=1.700
     12      H    -2.79761559     0.89383545    -1.17366296       adf.R=1.350
     13      H    -2.79761559    -0.89383545    -1.17366296       adf.R=1.350
     14     Cl     4.08207082    -0.00000000     0.59995020       adf.R=1.725
     15     Cl    -4.08207082     0.00000000     0.59995020       adf.R=1.725
 
Total System Charge             0.00000
Bonding info available!
 
 *** GOStep2 ***

 SOLVATION
-------------------------------------------

  The Delley construction of COSMO surface surface is calculated

       Division Level for Surface Triangles (NDIV)                  3
       Final Division Level for Triangles (NFDIV)                   1
       Radius of the Solvent (RSOL)                           3.17000 angstr
  Dielectric Constant (EPSL)                                  4.80000

       COSMO equation is solved iteratively-               conjugate-gradient

       Maximun of Iterations for Charges (NCIX)                  1000
       Criterion for Charge convergence (CCNV)                1.0E-08

  COSMO charges included variationally in SCF

       COSMO included at every SCF cycle

  Geometry-dependent empirical factor                         0.00000

  C-Matrix calculated in cspmtx

  In cspmtx, C-Matrix calculated using fitted potential

-------------------------------------------



 -------------------------------------------
  COSMO surface
  Area             =          601.352
  Volume           =         1041.530
  Number of Points =         1363
 -------------------------------------------



 ======================
 RI Hartree-Fock Scheme
 ======================
  
 Fit Set Quality     : GOOD
 Integration Quality : GOOD
 Threshold Quality   : GOOD
 Response Quality    : DEFAULT
 Is Range Separated  :  F
 
 RIHartreeFock Dependency: number of modified vectors:          12
 cosmo_calcen: 0.5 (esolb+esolc) (Hartrees) =   -0.007422

 Solvation energy (screening term,uncorrected) =     -4.657265 kcal/mol

 Solvation energy (dispersion and cavitation terms) =      0.901717 kcal/mol
 Solvation Energy Contributions (Hartrees)
          esola   esolb+esolc
     0.00742182   -0.01484365
 esol last cycle   -0.00742182
  
 Hartree-Fock exchange energy:   -103.644493851992     
 cosmo_calcen: 0.5 (esolb+esolc) (Hartrees) =   -0.007422

 Solvation energy (screening term,uncorrected) =     -4.657264 kcal/mol

 Solvation energy (dispersion and cavitation terms) =      0.901717 kcal/mol
 Solvation Energy Contributions (Hartrees)
          esola   esolb+esolc
     0.00742182   -0.01484364
 esol last cycle   -0.00742182
  pauli hf:                              1.336127365717573         36.3579           838.43          3508.00
  elstat hf:                            -1.287298047907882        -35.0292          -807.79         -3379.80

 Energy gradients wrt nuclear displacements
 ==========================================

     Atom      Cartesian (a.u./angstrom)
                 X         Y         Z
 ----------------------------------------
     1 S     0.000000  0.000000 -0.027945
     2 C     0.007134  0.000000  0.019013
     3 H    -0.000341  0.001766  0.001103
     4 H    -0.000341 -0.001766  0.001103
     5 C    -0.012698 -0.000000 -0.019594
     6 H     0.001175  0.001788 -0.000375
     7 H     0.001175 -0.001788 -0.000375
     8 C    -0.007134  0.000000  0.019013
     9 H     0.000341 -0.001766  0.001103
    10 H     0.000341  0.001766  0.001103
    11 C     0.012698  0.000000 -0.019594
    12 H    -0.001175  0.001788 -0.000375
    13 H    -0.001175 -0.001788 -0.000375
    14 Cl    0.013892  0.000000  0.013098
    15 Cl   -0.013892 -0.000000  0.013098
 ----------------------------------------
 Mulliken charges used for AMS results%charges...

 dE(predicted):    -0.17890E-02, dE(actual):    -0.25496E-02, Trust radius:    0.200000, all in a.u.
 
----------------------------------------------------------------------
Geometry Convergence after Step   2       (Hartree/Angstrom,Angstrom)
----------------------------------------------------------------------
current energy                               -3.34730066 Hartree
energy change                      -0.00254955     0.00015000    F
constrained gradient max            0.02794540     0.00100000    F
constrained gradient rms            0.00877106     0.00066667    F
gradient max                        0.02794540
gradient rms                        0.00877106
cart. step max                      0.03635510     0.00100000    F
cart. step rms                      0.01235107     0.00066667    F
 
 
--------
Geometry
--------
Atoms
  Index Symbol   x (angstrom)   y (angstrom)   z (angstrom)
      1      S    -0.00000000    -0.00000000    -0.96522294       adf.R=1.792
      2      C     1.38210883    -0.00000000     0.21844218       adf.R=1.700
      3      H     1.30837062     0.88959332     0.83939484       adf.R=1.350
      4      H     1.30837062    -0.88959332     0.83939484       adf.R=1.350
      5      C     2.66441014    -0.00000000    -0.56079065       adf.R=1.700
      6      H     2.77386624     0.88977359    -1.17093457       adf.R=1.350
      7      H     2.77386624    -0.88977359    -1.17093457       adf.R=1.350
      8      C    -1.38210883     0.00000000     0.21844218       adf.R=1.700
      9      H    -1.30837062    -0.88959332     0.83939484       adf.R=1.350
     10      H    -1.30837062     0.88959332     0.83939484       adf.R=1.350
     11      C    -2.66441014     0.00000000    -0.56079065       adf.R=1.700
     12      H    -2.77386624     0.88977359    -1.17093457       adf.R=1.350
     13      H    -2.77386624    -0.88977359    -1.17093457       adf.R=1.350
     14     Cl     4.06804123    -0.00000000     0.56608896       adf.R=1.725
     15     Cl    -4.06804123     0.00000000     0.56608896       adf.R=1.725
 
Total System Charge             0.00000
Bonding info available!
 
 *** GOStep3 ***

 SOLVATION
-------------------------------------------

  The Delley construction of COSMO surface surface is calculated

       Division Level for Surface Triangles (NDIV)                  3
       Final Division Level for Triangles (NFDIV)                   1
       Radius of the Solvent (RSOL)                           3.17000 angstr
  Dielectric Constant (EPSL)                                  4.80000

       COSMO equation is solved iteratively-               conjugate-gradient

       Maximun of Iterations for Charges (NCIX)                  1000
       Criterion for Charge convergence (CCNV)                1.0E-08

  COSMO charges included variationally in SCF

       COSMO included at every SCF cycle

  Geometry-dependent empirical factor                         0.00000

  C-Matrix calculated in cspmtx

  In cspmtx, C-Matrix calculated using fitted potential

-------------------------------------------



 -------------------------------------------
  COSMO surface
  Area             =          597.858
  Volume           =         1034.048
  Number of Points =         1357
 -------------------------------------------



 ======================
 RI Hartree-Fock Scheme
 ======================
  
 Fit Set Quality     : GOOD
 Integration Quality : GOOD
 Threshold Quality   : GOOD
 Response Quality    : DEFAULT
 Is Range Separated  :  F
 
 RIHartreeFock Dependency: number of modified vectors:          12
 cosmo_calcen: 0.5 (esolb+esolc) (Hartrees) =   -0.007138

 Solvation energy (screening term,uncorrected) =     -4.479246 kcal/mol

 Solvation energy (dispersion and cavitation terms) =      0.896478 kcal/mol
 Solvation Energy Contributions (Hartrees)
          esola   esolb+esolc
     0.00713813   -0.01427627
 esol last cycle   -0.00713813
  
 Hartree-Fock exchange energy:   -103.699070239681     
 cosmo_calcen: 0.5 (esolb+esolc) (Hartrees) =   -0.007138

 Solvation energy (screening term,uncorrected) =     -4.479245 kcal/mol

 Solvation energy (dispersion and cavitation terms) =      0.896478 kcal/mol
 Solvation Energy Contributions (Hartrees)
          esola   esolb+esolc
     0.00713813   -0.01427626
 esol last cycle   -0.00713813
  pauli hf:                              1.338722615895350         36.4285           840.06          3514.82
  elstat hf:                            -1.321865261620299        -35.9698          -829.48         -3470.56

 Energy gradients wrt nuclear displacements
 ==========================================

     Atom      Cartesian (a.u./angstrom)
                 X         Y         Z
 ----------------------------------------
     1 S     0.000000  0.000000 -0.002539
     2 C     0.011301 -0.000000  0.005268
     3 H    -0.000679 -0.001843 -0.003172
     4 H    -0.000679  0.001843 -0.003172
     5 C    -0.011655  0.000000 -0.006132
     6 H     0.000915 -0.001651  0.003360
     7 H     0.000915  0.001651  0.003360
     8 C    -0.011301  0.000000  0.005268
     9 H     0.000679  0.001843 -0.003172
    10 H     0.000679 -0.001843 -0.003172
    11 C     0.011655 -0.000000 -0.006132
    12 H    -0.000915 -0.001651  0.003360
    13 H    -0.000915  0.001651  0.003360
    14 Cl    0.002371  0.000000  0.001756
    15 Cl   -0.002371 -0.000000  0.001756
 ----------------------------------------
 Mulliken charges used for AMS results%charges...

 dE(predicted):    -0.11349E-02, dE(actual):    -0.12392E-02, Trust radius:    0.200000, all in a.u.
 
----------------------------------------------------------------------
Geometry Convergence after Step   3       (Hartree/Angstrom,Angstrom)
----------------------------------------------------------------------
current energy                               -3.34853987 Hartree
energy change                      -0.00123921     0.00015000    F
constrained gradient max            0.01165462     0.00100000    F
constrained gradient rms            0.00420773     0.00066667    F
gradient max                        0.01165462
gradient rms                        0.00420773
cart. step max                      0.00647731     0.00100000    F
cart. step rms                      0.00286433     0.00066667    F
 
 
--------
Geometry
--------
Atoms
  Index Symbol   x (angstrom)   y (angstrom)   z (angstrom)
      1      S    -0.00000000    -0.00000000    -0.96844927       adf.R=1.792
      2      C     1.37563152    -0.00000000     0.21605933       adf.R=1.700
      3      H     1.30303068     0.88873208     0.84083595       adf.R=1.350
      4      H     1.30303068    -0.88873208     0.84083595       adf.R=1.350
      5      C     2.66463790    -0.00000000    -0.55748771       adf.R=1.700
      6      H     2.77030918     0.88838834    -1.17272813       adf.R=1.350
      7      H     2.77030918    -0.88838834    -1.17272813       adf.R=1.350
      8      C    -1.37563152     0.00000000     0.21605933       adf.R=1.700
      9      H    -1.30303068    -0.88873208     0.84083595       adf.R=1.350
     10      H    -1.30303068     0.88873208     0.84083595       adf.R=1.350
     11      C    -2.66463790     0.00000000    -0.55748771       adf.R=1.700
     12      H    -2.77030918     0.88838834    -1.17272813       adf.R=1.350
     13      H    -2.77030918    -0.88838834    -1.17272813       adf.R=1.350
     14     Cl     4.06350241    -0.00000000     0.56748694       adf.R=1.725
     15     Cl    -4.06350241     0.00000000     0.56748694       adf.R=1.725
 
Total System Charge             0.00000
Bonding info available!
 
 *** GOStep4 ***

 SOLVATION
-------------------------------------------

  The Delley construction of COSMO surface surface is calculated

       Division Level for Surface Triangles (NDIV)                  3
       Final Division Level for Triangles (NFDIV)                   1
       Radius of the Solvent (RSOL)                           3.17000 angstr
  Dielectric Constant (EPSL)                                  4.80000

       COSMO equation is solved iteratively-               conjugate-gradient

       Maximun of Iterations for Charges (NCIX)                  1000
       Criterion for Charge convergence (CCNV)                1.0E-08

  COSMO charges included variationally in SCF

       COSMO included at every SCF cycle

  Geometry-dependent empirical factor                         0.00000

  C-Matrix calculated in cspmtx

  In cspmtx, C-Matrix calculated using fitted potential

-------------------------------------------



 -------------------------------------------
  COSMO surface
  Area             =          597.526
  Volume           =         1033.597
  Number of Points =         1353
 -------------------------------------------



 ======================
 RI Hartree-Fock Scheme
 ======================
  
 Fit Set Quality     : GOOD
 Integration Quality : GOOD
 Threshold Quality   : GOOD
 Response Quality    : DEFAULT
 Is Range Separated  :  F
 
 RIHartreeFock Dependency: number of modified vectors:          12
 cosmo_calcen: 0.5 (esolb+esolc) (Hartrees) =   -0.007019

 Solvation energy (screening term,uncorrected) =     -4.404637 kcal/mol

 Solvation energy (dispersion and cavitation terms) =      0.895980 kcal/mol
 Solvation Energy Contributions (Hartrees)
          esola   esolb+esolc
     0.00701924   -0.01403847
 esol last cycle   -0.00701924
  
 Hartree-Fock exchange energy:   -103.698535362488     
 cosmo_calcen: 0.5 (esolb+esolc) (Hartrees) =   -0.007019

 Solvation energy (screening term,uncorrected) =     -4.404637 kcal/mol

 Solvation energy (dispersion and cavitation terms) =      0.895980 kcal/mol
 Solvation Energy Contributions (Hartrees)
          esola   esolb+esolc
     0.00701924   -0.01403847
 esol last cycle   -0.00701924
  pauli hf:                              1.366179152773906         37.1756           857.29          3586.90
  elstat hf:                            -1.323053703020122        -36.0021          -830.23         -3473.68

 Energy gradients wrt nuclear displacements
 ==========================================

     Atom      Cartesian (a.u./angstrom)
                 X         Y         Z
 ----------------------------------------
     1 S     0.000000  0.000000 -0.001213
     2 C     0.006066  0.000000  0.002103
     3 H    -0.000392 -0.001093 -0.001736
     4 H    -0.000392  0.001093 -0.001736
     5 C    -0.006961  0.000000 -0.002100
     6 H     0.000434 -0.001014  0.001717
     7 H     0.000434  0.001014  0.001717
     8 C    -0.006066  0.000000  0.002103
     9 H     0.000392  0.001093 -0.001736
    10 H     0.000392 -0.001093 -0.001736
    11 C     0.006961  0.000000 -0.002100
    12 H    -0.000434 -0.001014  0.001717
    13 H    -0.000434  0.001014  0.001717
    14 Cl    0.001132  0.000000  0.000642
    15 Cl   -0.001132 -0.000000  0.000642
 ----------------------------------------
 Mulliken charges used for AMS results%charges...

 dE(predicted):    -0.12578E-03, dE(actual):    -0.19019E-03, Trust radius:    0.200000, all in a.u.
 
----------------------------------------------------------------------
Geometry Convergence after Step   4       (Hartree/Angstrom,Angstrom)
----------------------------------------------------------------------
current energy                               -3.34873007 Hartree
energy change                      -0.00019019     0.00015000    F
constrained gradient max            0.00696129     0.00100000    F
constrained gradient rms            0.00224663     0.00066667    F
gradient max                        0.00696129
gradient rms                        0.00224663
cart. step max                      0.00501821     0.00100000    F
cart. step rms                      0.00257292     0.00066667    F
 
 
--------
Geometry
--------
Atoms
  Index Symbol   x (angstrom)   y (angstrom)   z (angstrom)
      1      S     0.00000000    -0.00000000    -0.96476945       adf.R=1.792
      2      C     1.37483538    -0.00000000     0.21601224       adf.R=1.700
      3      H     1.30631803     0.88803146     0.84541810       adf.R=1.350
      4      H     1.30631803    -0.88803146     0.84541810       adf.R=1.350
      5      C     2.66965611    -0.00000000    -0.55724248       adf.R=1.700
      6      H     2.77050285     0.88755208    -1.17752771       adf.R=1.350
      7      H     2.77050285    -0.88755208    -1.17752771       adf.R=1.350
      8      C    -1.37483538     0.00000000     0.21601224       adf.R=1.700
      9      H    -1.30631803    -0.88803146     0.84541810       adf.R=1.350
     10      H    -1.30631803     0.88803146     0.84541810       adf.R=1.350
     11      C    -2.66965611     0.00000000    -0.55724248       adf.R=1.700
     12      H    -2.77050285     0.88755208    -1.17752771       adf.R=1.350
     13      H    -2.77050285    -0.88755208    -1.17752771       adf.R=1.350
     14     Cl     4.06476556    -0.00000000     0.56588376       adf.R=1.725
     15     Cl    -4.06476556     0.00000000     0.56588376       adf.R=1.725
 
Total System Charge             0.00000
Bonding info available!
 
 *** GOStep5 ***

 SOLVATION
-------------------------------------------

  The Delley construction of COSMO surface surface is calculated

       Division Level for Surface Triangles (NDIV)                  3
       Final Division Level for Triangles (NFDIV)                   1
       Radius of the Solvent (RSOL)                           3.17000 angstr
  Dielectric Constant (EPSL)                                  4.80000

       COSMO equation is solved iteratively-               conjugate-gradient

       Maximun of Iterations for Charges (NCIX)                  1000
       Criterion for Charge convergence (CCNV)                1.0E-08

  COSMO charges included variationally in SCF

       COSMO included at every SCF cycle

  Geometry-dependent empirical factor                         0.00000

  C-Matrix calculated in cspmtx

  In cspmtx, C-Matrix calculated using fitted potential

-------------------------------------------



 -------------------------------------------
  COSMO surface
  Area             =          598.003
  Volume           =         1034.335
  Number of Points =         1353
 -------------------------------------------



 ======================
 RI Hartree-Fock Scheme
 ======================
  
 Fit Set Quality     : GOOD
 Integration Quality : GOOD
 Threshold Quality   : GOOD
 Response Quality    : DEFAULT
 Is Range Separated  :  F
 
 RIHartreeFock Dependency: number of modified vectors:          12
 cosmo_calcen: 0.5 (esolb+esolc) (Hartrees) =   -0.006913

 Solvation energy (screening term,uncorrected) =     -4.337870 kcal/mol

 Solvation energy (dispersion and cavitation terms) =      0.896696 kcal/mol
 Solvation Energy Contributions (Hartrees)
          esola   esolb+esolc
     0.00691283   -0.01382567
 esol last cycle   -0.00691283
  
 Hartree-Fock exchange energy:   -103.693273207839     
 cosmo_calcen: 0.5 (esolb+esolc) (Hartrees) =   -0.006913

 Solvation energy (screening term,uncorrected) =     -4.337870 kcal/mol

 Solvation energy (dispersion and cavitation terms) =      0.896696 kcal/mol
 Solvation Energy Contributions (Hartrees)
          esola   esolb+esolc
     0.00691284   -0.01382567
 esol last cycle   -0.00691284
  pauli hf:                              1.356049985354410         36.9000           850.93          3560.31
  elstat hf:                            -1.321003283715655        -35.9463          -828.94         -3468.29

 Energy gradients wrt nuclear displacements
 ==========================================

     Atom      Cartesian (a.u./angstrom)
                 X         Y         Z
 ----------------------------------------
     1 S     0.000000  0.000000  0.000392
     2 C     0.000875 -0.000000 -0.000940
     3 H    -0.000149  0.000025  0.000126
     4 H    -0.000149 -0.000025  0.000126
     5 C    -0.000793 -0.000000  0.000870
     6 H     0.000024  0.000018 -0.000242
     7 H     0.000024 -0.000018 -0.000242
     8 C    -0.000875  0.000000 -0.000940
     9 H     0.000149 -0.000025  0.000126
    10 H     0.000149  0.000025  0.000126
    11 C     0.000793  0.000000  0.000870
    12 H    -0.000024  0.000018 -0.000242
    13 H    -0.000024 -0.000018 -0.000242
    14 Cl    0.000162  0.000000  0.000106
    15 Cl   -0.000162 -0.000000  0.000106
 ----------------------------------------
 Mulliken charges used for AMS results%charges...

 dE(predicted):    -0.73867E-04, dE(actual):    -0.72504E-04, Trust radius:    0.200000, all in a.u.
 
----------------------------------------------------------------------
Geometry Convergence after Step   5       (Hartree/Angstrom,Angstrom)
----------------------------------------------------------------------
current energy                               -3.34880257 Hartree
energy change                      -0.00007250     0.00015000    T
constrained gradient max            0.00094045     0.00100000    T
constrained gradient rms            0.00038565     0.00066667    T
gradient max                        0.00094045
gradient rms                        0.00038565
cart. step max                      0.00183974     0.00100000    F
cart. step rms                      0.00074012     0.00066667    F
 
 
--------
Geometry
--------
Atoms
  Index Symbol   x (angstrom)   y (angstrom)   z (angstrom)
      1      S     0.00000000    -0.00000000    -0.96363132       adf.R=1.792
      2      C     1.37509873    -0.00000000     0.21698421       adf.R=1.700
      3      H     1.30759841     0.88816137     0.84629088       adf.R=1.350
      4      H     1.30759841    -0.88816137     0.84629088       adf.R=1.350
      5      C     2.66958521    -0.00000000    -0.55788241       adf.R=1.700
      6      H     2.76977447     0.88773507    -1.17793117       adf.R=1.350
      7      H     2.76977447    -0.88773507    -1.17793117       adf.R=1.350
      8      C    -1.37509873     0.00000000     0.21698421       adf.R=1.700
      9      H    -1.30759841    -0.88816137     0.84629088       adf.R=1.350
     10      H    -1.30759841     0.88816137     0.84629088       adf.R=1.350
     11      C    -2.66958521     0.00000000    -0.55788241       adf.R=1.700
     12      H    -2.76977447     0.88773507    -1.17793117       adf.R=1.350
     13      H    -2.76977447    -0.88773507    -1.17793117       adf.R=1.350
     14     Cl     4.06552359    -0.00000000     0.56404401       adf.R=1.725
     15     Cl    -4.06552359     0.00000000     0.56404401       adf.R=1.725
 
Total System Charge             0.00000
Bonding info available!
 
 *** GOStep6 ***

 SOLVATION
-------------------------------------------

  The Delley construction of COSMO surface surface is calculated

       Division Level for Surface Triangles (NDIV)                  3
       Final Division Level for Triangles (NFDIV)                   1
       Radius of the Solvent (RSOL)                           3.17000 angstr
  Dielectric Constant (EPSL)                                  4.80000

       COSMO equation is solved iteratively-               conjugate-gradient

       Maximun of Iterations for Charges (NCIX)                  1000
       Criterion for Charge convergence (CCNV)                1.0E-08

  COSMO charges included variationally in SCF

       COSMO included at every SCF cycle

  Geometry-dependent empirical factor                         0.00000

  C-Matrix calculated in cspmtx

  In cspmtx, C-Matrix calculated using fitted potential

-------------------------------------------



 -------------------------------------------
  COSMO surface
  Area             =          598.049
  Volume           =         1034.452
  Number of Points =         1353
 -------------------------------------------



 ======================
 RI Hartree-Fock Scheme
 ======================
  
 Fit Set Quality     : GOOD
 Integration Quality : GOOD
 Threshold Quality   : GOOD
 Response Quality    : DEFAULT
 Is Range Separated  :  F
 
 RIHartreeFock Dependency: number of modified vectors:          12
 cosmo_calcen: 0.5 (esolb+esolc) (Hartrees) =   -0.006911

 Solvation energy (screening term,uncorrected) =     -4.336890 kcal/mol

 Solvation energy (dispersion and cavitation terms) =      0.896765 kcal/mol
 Solvation Energy Contributions (Hartrees)
          esola   esolb+esolc
     0.00691127   -0.01382255
 esol last cycle   -0.00691127
  
 Hartree-Fock exchange energy:   -103.692965652316     
 cosmo_calcen: 0.5 (esolb+esolc) (Hartrees) =   -0.006911

 Solvation energy (screening term,uncorrected) =     -4.336891 kcal/mol

 Solvation energy (dispersion and cavitation terms) =      0.896765 kcal/mol
 Solvation Energy Contributions (Hartrees)
          esola   esolb+esolc
     0.00691127   -0.01382255
 esol last cycle   -0.00691127
  pauli hf:                              1.356182136657591         36.9036           851.02          3560.66
  elstat hf:                            -1.320727489491784        -35.9388          -828.77         -3467.57

 Energy gradients wrt nuclear displacements
 ==========================================

     Atom      Cartesian (a.u./angstrom)
                 X         Y         Z
 ----------------------------------------
     1 S     0.000000  0.000000  0.000043
     2 C     0.000358  0.000000 -0.000434
     3 H    -0.000057  0.000045  0.000121
     4 H    -0.000057 -0.000045  0.000121
     5 C    -0.000393  0.000000  0.000423
     6 H     0.000031  0.000038 -0.000150
     7 H     0.000031 -0.000038 -0.000150
     8 C    -0.000358 -0.000000 -0.000434
     9 H     0.000057 -0.000045  0.000121
    10 H     0.000057  0.000045  0.000121
    11 C     0.000393  0.000000  0.000423
    12 H    -0.000031  0.000038 -0.000150
    13 H    -0.000031 -0.000038 -0.000150
    14 Cl    0.000074 -0.000000  0.000048
    15 Cl   -0.000074  0.000000  0.000048
 ----------------------------------------
 Mulliken charges used for AMS results%charges...
 
----------------------------------------------------------------------
Geometry Convergence after Step   6       (Hartree/Angstrom,Angstrom)
----------------------------------------------------------------------
current energy                               -3.34880340 Hartree
energy change                      -0.00000083     0.00015000    T
constrained gradient max            0.00043382     0.00100000    T
constrained gradient rms            0.00018239     0.00066667    T
gradient max                        0.00043382
gradient rms                        0.00018239
cart. step max                      0.00115928     0.00100000    F
cart. step rms                      0.00049054     0.00066667    T
 
 
--------
Geometry
--------
Atoms
  Index Symbol   x (angstrom)   y (angstrom)   z (angstrom)
      1      S     0.00000000    -0.00000000    -0.96270310       adf.R=1.792
      2      C     1.37539800    -0.00000000     0.21759479       adf.R=1.700
      3      H     1.30859250     0.88826987     0.84667183       adf.R=1.350
      4      H     1.30859250    -0.88826987     0.84667183       adf.R=1.350
      5      C     2.66969601    -0.00000000    -0.55831387       adf.R=1.700
      6      H     2.76938648     0.88788554    -1.17805410       adf.R=1.350
      7      H     2.76938648    -0.88788554    -1.17805410       adf.R=1.350
      8      C    -1.37539800     0.00000000     0.21759479       adf.R=1.700
      9      H    -1.30859250    -0.88826987     0.84667183       adf.R=1.350
     10      H    -1.30859250     0.88826987     0.84667183       adf.R=1.350
     11      C    -2.66969601     0.00000000    -0.55831387       adf.R=1.700
     12      H    -2.76938648     0.88788554    -1.17805410       adf.R=1.350
     13      H    -2.76938648    -0.88788554    -1.17805410       adf.R=1.350
     14     Cl     4.06608205    -0.00000000     0.56288473       adf.R=1.725
     15     Cl    -4.06608205     0.00000000     0.56288473       adf.R=1.725
 
Total System Charge             0.00000
Bonding info available!
 
 *** GOStep7 ***

 SOLVATION
-------------------------------------------

  The Delley construction of COSMO surface surface is calculated

       Division Level for Surface Triangles (NDIV)                  3
       Final Division Level for Triangles (NFDIV)                   1
       Radius of the Solvent (RSOL)                           3.17000 angstr
  Dielectric Constant (EPSL)                                  4.80000

       COSMO equation is solved iteratively-               conjugate-gradient

       Maximun of Iterations for Charges (NCIX)                  1000
       Criterion for Charge convergence (CCNV)                1.0E-08

  COSMO charges included variationally in SCF

       COSMO included at every SCF cycle

  Geometry-dependent empirical factor                         0.00000

  C-Matrix calculated in cspmtx

  In cspmtx, C-Matrix calculated using fitted potential

-------------------------------------------



 -------------------------------------------
  COSMO surface
  Area             =          598.074
  Volume           =         1034.505
  Number of Points =         1353
 -------------------------------------------



 ======================
 RI Hartree-Fock Scheme
 ======================
  
 Fit Set Quality     : GOOD
 Integration Quality : GOOD
 Threshold Quality   : GOOD
 Response Quality    : DEFAULT
 Is Range Separated  :  F
 
 RIHartreeFock Dependency: number of modified vectors:          12
 cosmo_calcen: 0.5 (esolb+esolc) (Hartrees) =   -0.006911

 Solvation energy (screening term,uncorrected) =     -4.336553 kcal/mol

 Solvation energy (dispersion and cavitation terms) =      0.896802 kcal/mol
 Solvation Energy Contributions (Hartrees)
          esola   esolb+esolc
     0.00691074   -0.01382147
 esol last cycle   -0.00691074
  
 Hartree-Fock exchange energy:   -103.693027181581     
 cosmo_calcen: 0.5 (esolb+esolc) (Hartrees) =   -0.006911

 Solvation energy (screening term,uncorrected) =     -4.336554 kcal/mol

 Solvation energy (dispersion and cavitation terms) =      0.896802 kcal/mol
 Solvation Energy Contributions (Hartrees)
          esola   esolb+esolc
     0.00691074   -0.01382148
 esol last cycle   -0.00691074
  pauli hf:                              1.356141387888481         36.9025           850.99          3560.55
  elstat hf:                            -1.320656244942846        -35.9369          -828.72         -3467.38

 Energy gradients wrt nuclear displacements
 ==========================================

     Atom      Cartesian (a.u./angstrom)
                 X         Y         Z
 ----------------------------------------
     1 S     0.000000  0.000000 -0.000030
     2 C     0.000028 -0.000000 -0.000043
     3 H     0.000004  0.000012  0.000028
     4 H     0.000004 -0.000012  0.000028
     5 C    -0.000045  0.000000  0.000037
     6 H     0.000012  0.000010 -0.000015
     7 H     0.000012 -0.000010 -0.000015
     8 C    -0.000028  0.000000 -0.000043
     9 H    -0.000004 -0.000012  0.000028
    10 H    -0.000004  0.000012  0.000028
    11 C     0.000045 -0.000000  0.000037
    12 H    -0.000012  0.000010 -0.000015
    13 H    -0.000012 -0.000010 -0.000015
    14 Cl   -0.000004  0.000000 -0.000006
    15 Cl    0.000004 -0.000000 -0.000006
 ----------------------------------------
 Mulliken charges used for AMS results%charges...
 
---------------------------------------------------------
Geometry Convergence after Step   7       ** CONVERGED **
---------------------------------------------------------
current energy                               -3.34880346 Hartree
energy change                      -0.00000007     0.00015000    T
constrained gradient max            0.00004511     0.00100000    T
constrained gradient rms            0.00002039     0.00066667    T
gradient max                        0.00004511
gradient rms                        0.00002039
cart. step max                      0.00010768     0.00100000    T
cart. step rms                      0.00004894     0.00066667    T
 
Geometry optimization converged

Optimized geometry:
 
--------
Geometry
--------
Atoms
  Index Symbol   x (angstrom)   y (angstrom)   z (angstrom)
      1      S     0.00000000    -0.00000000    -0.96270310       adf.R=1.792
      2      C     1.37539800    -0.00000000     0.21759479       adf.R=1.700
      3      H     1.30859250     0.88826987     0.84667183       adf.R=1.350
      4      H     1.30859250    -0.88826987     0.84667183       adf.R=1.350
      5      C     2.66969601    -0.00000000    -0.55831387       adf.R=1.700
      6      H     2.76938648     0.88788554    -1.17805410       adf.R=1.350
      7      H     2.76938648    -0.88788554    -1.17805410       adf.R=1.350
      8      C    -1.37539800     0.00000000     0.21759479       adf.R=1.700
      9      H    -1.30859250    -0.88826987     0.84667183       adf.R=1.350
     10      H    -1.30859250     0.88826987     0.84667183       adf.R=1.350
     11      C    -2.66969601     0.00000000    -0.55831387       adf.R=1.700
     12      H    -2.76938648     0.88788554    -1.17805410       adf.R=1.350
     13      H    -2.76938648    -0.88788554    -1.17805410       adf.R=1.350
     14     Cl     4.06608205    -0.00000000     0.56288473       adf.R=1.725
     15     Cl    -4.06608205     0.00000000     0.56288473       adf.R=1.725
 
Total System Charge             0.00000
Bonding info available!
 
Performing a single point calculation on the final geometry ...

 *** adf ***



 ===========================
 A T T A C H E D   F I L E S
 ===========================
  
 Restart/tmp/amstmp_ams_kid0.843361479/GOStep7.rkf*** GOStep7 ***



 ===============================
 M O D E L   P A R A M E T E R S
 ===============================
  
 DENSITY FUNCTIONAL POTENTIAL (scf)
    Hybrid:                            PBE0                                    == Not Default ==

 SPIN  (restricted / unrestr.)
    Molecule:                          Restricted                               
    Fragments:                         Restricted                               

 OTHER ASPECTS
    Relativistic Corrections:          ---                                     == Not Default ==

    Nuclear Charge Density Model:      Point Charge Nuclei                      
    Core Treatment:                    Frozen Orbital(s)                        

    Hyperfine or Zeeman Interaction:   ---                                      

 SOLVATION
-------------------------------------------

  The Delley construction of COSMO surface surface is calculated

       Division Level for Surface Triangles (NDIV)                  3
       Final Division Level for Triangles (NFDIV)                   1
       Radius of the Solvent (RSOL)                           3.17000 angstr
  Dielectric Constant (EPSL)                                  4.80000

       COSMO equation is solved iteratively-               conjugate-gradient

       Maximun of Iterations for Charges (NCIX)                  1000
       Criterion for Charge convergence (CCNV)                1.0E-08

  COSMO charges included variationally in SCF

       COSMO included at every SCF cycle

  Geometry-dependent empirical factor                         0.00000

  C-Matrix calculated in cspmtx

  In cspmtx, C-Matrix calculated using fitted potential

-------------------------------------------




 ===============
 G E O M E T R Y  ***  3D  Molecule  ***
 ===============
  

 ATOMS
 =====                            X Y Z                    CHARGE                     RADIUS
                                (Angstrom)             Nucl     +Core       At.Mass (Angstrom)
                       --------------------------    ----------------       ------- ----------
    1  S               0.0000   -0.0000   -0.9627     16.00     16.00       31.9721    1.7920
    2  C               1.3754   -0.0000    0.2176      6.00      6.00       12.0000    1.7000
    3  H               1.3086    0.8883    0.8467      1.00      1.00        1.0078    1.3500
    4  H               1.3086   -0.8883    0.8467      1.00      1.00        1.0078    1.3500
    5  C               2.6697   -0.0000   -0.5583      6.00      6.00       12.0000    1.7000
    6  H               2.7694    0.8879   -1.1781      1.00      1.00        1.0078    1.3500
    7  H               2.7694   -0.8879   -1.1781      1.00      1.00        1.0078    1.3500
    8  C              -1.3754    0.0000    0.2176      6.00      6.00       12.0000    1.7000
    9  H              -1.3086   -0.8883    0.8467      1.00      1.00        1.0078    1.3500
   10  H              -1.3086    0.8883    0.8467      1.00      1.00        1.0078    1.3500
   11  C              -2.6697    0.0000   -0.5583      6.00      6.00       12.0000    1.7000
   12  H              -2.7694    0.8879   -1.1781      1.00      1.00        1.0078    1.3500
   13  H              -2.7694   -0.8879   -1.1781      1.00      1.00        1.0078    1.3500
   14  Cl              4.0661   -0.0000    0.5629     17.00     17.00       34.9689    1.7250
   15  Cl             -4.0661    0.0000    0.5629     17.00     17.00       34.9689    1.7250


 FRAGMENTS
 =========                                     Atoms in this Fragment     Cart. coord.s (Angstrom)
                                               -------------------------------------------------------
    1  S                                                 1  S            0.0000   -0.0000   -0.9627
    2  C                                                 2  C            1.3754   -0.0000    0.2176
    3  C                                                 5  C            2.6697   -0.0000   -0.5583
    4  C                                                 8  C           -1.3754    0.0000    0.2176
    5  C                                                11  C           -2.6697    0.0000   -0.5583
    6  H                                                 3  H            1.3086    0.8883    0.8467
    7  H                                                 4  H            1.3086   -0.8883    0.8467
    8  H                                                 6  H            2.7694    0.8879   -1.1781
    9  H                                                 7  H            2.7694   -0.8879   -1.1781
   10  H                                                 9  H           -1.3086   -0.8883    0.8467
   11  H                                                10  H           -1.3086    0.8883    0.8467
   12  H                                                12  H           -2.7694    0.8879   -1.1781
   13  H                                                13  H           -2.7694   -0.8879   -1.1781
   14  Cl                                               14  Cl           4.0661   -0.0000    0.5629
   15  Cl                                               15  Cl          -4.0661    0.0000    0.5629


 Interatomic Distance Matrix (Angstrom)
 --------------------------------------

   1)     0.000
   2)     1.812   0.000
   3)     2.403   1.091   0.000
   4)     2.403   1.091   1.777   0.000
   5)     2.700   1.509   2.148   2.148   0.000
   6)     2.916   2.163   2.497   3.064   1.087   0.000
   7)     2.916   2.163   3.064   2.497   1.087   1.776   0.000
   8)     1.812   2.751   2.896   2.896   4.119   4.463   4.463   0.000
   9)     2.403   2.896   3.163   2.617   4.312   4.887   4.553   1.091   0.000
  10)     2.403   2.896   2.617   3.163   4.312   4.553   4.887   1.091   1.777   0.000
  11)     2.700   4.119   4.312   4.312   5.339   5.546   5.546   1.509   2.148   2.148
          0.000
  12)     2.916   4.463   4.553   4.887   5.546   5.539   5.816   2.163   3.064   2.497
          1.087   0.000
  13)     2.916   4.463   4.887   4.553   5.546   5.816   5.539   2.163   2.497   3.064
          1.087   1.776   0.000
  14)     4.343   2.713   2.911   2.911   1.791   2.345   2.345   5.452   5.455   5.455
          6.828   7.109   7.109   0.000
  15)     4.343   5.452   5.455   5.455   6.828   7.109   7.109   2.713   2.911   2.911
          1.791   2.345   2.345   8.132   0.000

 Min. Distance =    1.0874
 Max. Distance =    8.1322



 =====================================
 S Y M M E T R Y ,   E L E C T R O N S
 =====================================
  
 Symmetry: C(2V)

 Irreducible Representations, including subspecies
 -------------------------------------------------
 A1
 A2
 B1
 B2

 Symmetry is NOT used when fitting density


 Configuration of Valence Electrons
 ==================================
 ( determined in the SCF procedure )

 Total:   82

 Net Charge: 0 (Nuclei minus Electrons)

 Aufbau principle for MO occupations will be applied through SCF cycle no.     150
 Thereafter, the program will assign electrons to MOs that are spatially
 similar to the occupied MOs in a "reference" cycle ("KeepOrbitals").
 The reference cycle is always the PREVIOUS cycle: it will evolve with
 the SCF procedure.
1
 ***************************************************************************************************



                                      ****************************************
                                      *  B U I L D : (Fragments, Functions)  *
                                      ****************************************
  



 =======
 S F O s  ***  (Symmetrized Fragment Orbitals)  ***
 =======
  
 SFOs are linear combinations of (valence) Fragment Orbitals (FOs), such that the SFOs transform as the
 irreducible representations of the (molecular) symmetry group. Each SFO is therefore characterized by
 an irrep of the molecule and by a few (or only one) generating FOs.
 The SFOs constitute a symmetry-adapted basis for the Fock matrix. The MO eigenvector coefficients in
 this basis provide a direct interpretation of the MOs in terms of Frontier Orbital Theory.

 The SFOs are combined with auxiliary Core Functions (CFs) to ensure orthogonalization on the (frozen)
 Core Orbitals (COs). The Core-orthogonalized SFOs (CSFOs) constitute the true Fock basis.

 The FOs, and hence also the (C)SFOs are combinations of the elementary basis functions (BAS). The basis
 functions that participate in the description of the SFOs depend on the irrep. The indices of the
 involved functions are printed below for each irrep.
 (The complete list of primitive basis functions is printed in another section)

 Total nr. of (C)SFOs (summation over all irreps) :   294

 NOTE: a (C)SFO that is defined as a combination of more than one FO is usually NOT normalized.



                                       === A1 ===
 Nr. of SFOs :   98
 Cartesian basis functions that participate in this irrep (total number =   252) :
      1     2     3     4    11    12    13     7    10    16
     19    22    28    23    26    38    31    36    39    99
     40   100    41   101    42   102    43   103    46   106
     49   109    52   112    44   104    47   107    50   110
     58   118    55   115    53    56   113   116    68   128
     64   124    61    66   121   126    59    62   119   122
     69   129    70   130    71   131    72   132    73   133
     76   136    79   139    82   142    74   134    77   137
     80   140    88   148    85   145    83    86   143   146
     98   158    94   154    91    96   151   156    89    92
    149   152   159   171   207   219   160   172   208   220
    161   173   209   221   164   176   212   224   162   163
    174   175   210   211   222   223   170   182   218   230
    167   169   179   181   215   217   227   229   165   166
    168   177   178   180   213   214   216   225   226   228
    183   195   231   243   184   196   232   244   185   197
    233   245   188   200   236   248   186   187   198   199
    234   235   246   247   194   206   242   254   191   193
    203   205   239   241   251   253   189   190   192   201
    202   204   237   238   240   249   250   252   255   293
    256   294   257   295   258   296   265   303   266   304
    267   305   261   299   264   302   270   308   273   311
    276   314   259   297   262   300   268   306   271   309
    274   312   282   320   279   317   277   280   315   318
    292   330   288   326   285   290   323   328   283   286
    321   324

    SFO  (index         Fragment          Generating    Expansion in Fragment Orbitals
  indx  incl.CFs)   Occup   Orb.Energy   FragmentType  Coeff.   Orbital     on Fragment
 --------------------------------------------------------------------------------------
     1       1      2.000     -89.098 au  S             1.00      1 S               1
                        (   -2424.489 eV)
     2       2      2.000      -8.072 au  S             1.00      2 S               1
                        (    -219.643 eV)
     3       3      2.000      -0.710 au  S             1.00      3 S               1
                        (     -19.307 eV)
     4       4       --         0.231 au  S             1.00      4 S               1
                        (       6.280 eV)
     5       5       --         2.125 au  S             1.00      5 S               1
                        (      57.822 eV)
     6       6       --        12.877 au  S             1.00      6 S               1
                        (     350.390 eV)
     7       7       --       200.702 au  S             1.00      7 S               1
                        (    5461.371 eV)
     8       8      2.000      -6.002 au  S             1.00      1 P:z             1
                        (    -163.314 eV)
     9       9      1.333      -0.279 au  S             1.00      2 P:z             1
                        (      -7.592 eV)
    10      10       --         0.156 au  S             1.00      3 P:z             1
                        (       4.258 eV)
    11      11       --         1.281 au  S             1.00      4 P:z             1
                        (      34.851 eV)
    12      12       --        13.316 au  S             1.00      5 P:z             1
                        (     362.345 eV)
    13      13       --         0.491 au  S             1.00      1 D:z2            1
                        (      13.368 eV)
    14      14       --         0.491 au  S             1.00      1 D:x2-y2         1
                        (      13.368 eV)
    15      15       --         1.336 au  S             1.00      1 F:z3            1
                        (      36.349 eV)
    16      16       --         1.336 au  S             1.00      1 F:z             1
                        (      36.349 eV)
    17      17      2.000     -10.406 au  C             0.71      1 S               2
                        (    -283.169 eV)               0.71      1 S               4
    18      18      2.000      -0.583 au  C             0.71      2 S               2
                        (     -15.858 eV)               0.71      2 S               4
    19      19       --         0.415 au  C             0.71      3 S               2
                        (      11.281 eV)               0.71      3 S               4
    20      20       --         5.555 au  C             0.71      4 S               2
                        (     151.157 eV)               0.71      4 S               4
    21      21       --        50.670 au  C             0.71      5 S               2
                        (    1378.798 eV)               0.71      5 S               4
    22      22      0.667      -0.186 au  C             0.71      1 P:x             2
                        (      -5.051 eV)              -0.71      1 P:x             4
    23      23       --         0.203 au  C             0.71      2 P:x             2
                        (       5.518 eV)              -0.71      2 P:x             4
    24      24       --         2.125 au  C             0.71      3 P:x             2
                        (      57.838 eV)              -0.71      3 P:x             4
    25      25      0.667      -0.186 au  C             0.71      1 P:z             2
                        (      -5.051 eV)               0.71      1 P:z             4
    26      26       --         0.203 au  C             0.71      2 P:z             2
                        (       5.518 eV)               0.71      2 P:z             4
    27      27       --         2.125 au  C             0.71      3 P:z             2
                        (      57.838 eV)               0.71      3 P:z             4
    28      28       --         1.300 au  C             0.71      1 D:z2            2
                        (      35.363 eV)               0.71      1 D:z2            4
    29      29       --         1.300 au  C             0.71      1 D:x2-y2         2
                        (      35.363 eV)               0.71      1 D:x2-y2         4
    30      30       --         1.300 au  C             0.71      1 D:xz            2
                        (      35.363 eV)              -0.71      1 D:xz            4
    31      31       --         4.097 au  C             0.71      1 F:z3            2
                        (     111.488 eV)               0.71      1 F:z3            4
    32      32       --         4.097 au  C             0.71      1 F:z             2
                        (     111.488 eV)               0.71      1 F:z             4
    33      33       --         4.097 au  C             0.71      1 F:z2x           2
                        (     111.488 eV)              -0.71      1 F:z2x           4
    34      34       --         4.097 au  C             0.71      1 F:x             2
                        (     111.488 eV)              -0.71      1 F:x             4
    35      35      2.000     -10.406 au  C             0.71      1 S               3
                        (    -283.169 eV)               0.71      1 S               5
    36      36      2.000      -0.583 au  C             0.71      2 S               3
                        (     -15.858 eV)               0.71      2 S               5
    37      37       --         0.415 au  C             0.71      3 S               3
                        (      11.281 eV)               0.71      3 S               5
    38      38       --         5.555 au  C             0.71      4 S               3
                        (     151.157 eV)               0.71      4 S               5
    39      39       --        50.670 au  C             0.71      5 S               3
                        (    1378.798 eV)               0.71      5 S               5
    40      40      0.667      -0.186 au  C             0.71      1 P:x             3
                        (      -5.051 eV)              -0.71      1 P:x             5
    41      41       --         0.203 au  C             0.71      2 P:x             3
                        (       5.518 eV)              -0.71      2 P:x             5
    42      42       --         2.125 au  C             0.71      3 P:x             3
                        (      57.838 eV)              -0.71      3 P:x             5
    43      43      0.667      -0.186 au  C             0.71      1 P:z             3
                        (      -5.051 eV)               0.71      1 P:z             5
    44      44       --         0.203 au  C             0.71      2 P:z             3
                        (       5.518 eV)               0.71      2 P:z             5
    45      45       --         2.125 au  C             0.71      3 P:z             3
                        (      57.838 eV)               0.71      3 P:z             5
    46      46       --         1.300 au  C             0.71      1 D:z2            3
                        (      35.363 eV)               0.71      1 D:z2            5
    47      47       --         1.300 au  C             0.71      1 D:x2-y2         3
                        (      35.363 eV)               0.71      1 D:x2-y2         5
    48      48       --         1.300 au  C             0.71      1 D:xz            3
                        (      35.363 eV)              -0.71      1 D:xz            5
    49      49       --         4.097 au  C             0.71      1 F:z3            3
                        (     111.488 eV)               0.71      1 F:z3            5
    50      50       --         4.097 au  C             0.71      1 F:z             3
                        (     111.488 eV)               0.71      1 F:z             5
    51      51       --         4.097 au  C             0.71      1 F:z2x           3
                        (     111.488 eV)              -0.71      1 F:z2x           5
    52      52       --         4.097 au  C             0.71      1 F:x             3
                        (     111.488 eV)              -0.71      1 F:x             5
    53      53      1.000      -0.242 au  H             0.50      1 S               6
                        (      -6.582 eV)               0.50      1 S               7
                                                        0.50      1 S              10
                                                        0.50      1 S              11
    54      54       --         0.113 au  H             0.50      2 S               6
                        (       3.073 eV)               0.50      2 S               7
                                                        0.50      2 S              10
                                                        0.50      2 S              11
    55      55       --         1.599 au  H             0.50      3 S               6
                        (      43.507 eV)               0.50      3 S               7
                                                        0.50      3 S              10
                                                        0.50      3 S              11
    56      56       --         0.445 au  H             0.50      1 P:x             6
                        (      12.103 eV)               0.50      1 P:x             7
                                                       -0.50      1 P:x            10
                                                       -0.50      1 P:x            11
    57      57       --         0.445 au  H             0.50      1 P:y             6
                        (      12.103 eV)              -0.50      1 P:y             7
                                                       -0.50      1 P:y            10
                                                        0.50      1 P:y            11
    58      58       --         0.445 au  H             0.50      1 P:z             6
                        (      12.103 eV)               0.50      1 P:z             7
                                                        0.50      1 P:z            10
                                                        0.50      1 P:z            11
    59      59       --         2.628 au  H             0.50      1 D:z2            6
                        (      71.513 eV)               0.50      1 D:z2            7
                                                        0.50      1 D:z2           10
                                                        0.50      1 D:z2           11
    60      60       --         2.628 au  H             0.50      1 D:x2-y2         6
                        (      71.513 eV)               0.50      1 D:x2-y2         7
                                                        0.50      1 D:x2-y2        10
                                                        0.50      1 D:x2-y2        11
    61      61       --         2.628 au  H             0.50      1 D:xy            6
                        (      71.513 eV)              -0.50      1 D:xy            7
                                                        0.50      1 D:xy           10
                                                       -0.50      1 D:xy           11
    62      62       --         2.628 au  H             0.50      1 D:xz            6
                        (      71.513 eV)               0.50      1 D:xz            7
                                                       -0.50      1 D:xz           10
                                                       -0.50      1 D:xz           11
    63      63       --         2.628 au  H             0.50      1 D:yz            6
                        (      71.513 eV)              -0.50      1 D:yz            7
                                                       -0.50      1 D:yz           10
                                                        0.50      1 D:yz           11
    64      64      1.000      -0.242 au  H             0.50      1 S               8
                        (      -6.582 eV)               0.50      1 S               9
                                                        0.50      1 S              12
                                                        0.50      1 S              13
    65      65       --         0.113 au  H             0.50      2 S               8
                        (       3.073 eV)               0.50      2 S               9
                                                        0.50      2 S              12
                                                        0.50      2 S              13
    66      66       --         1.599 au  H             0.50      3 S               8
                        (      43.507 eV)               0.50      3 S               9
                                                        0.50      3 S              12
                                                        0.50      3 S              13
    67      67       --         0.445 au  H             0.50      1 P:x             8
                        (      12.103 eV)               0.50      1 P:x             9
                                                       -0.50      1 P:x            12
                                                       -0.50      1 P:x            13
    68      68       --         0.445 au  H             0.50      1 P:y             8
                        (      12.103 eV)              -0.50      1 P:y             9
                                                        0.50      1 P:y            12
                                                       -0.50      1 P:y            13
    69      69       --         0.445 au  H             0.50      1 P:z             8
                        (      12.103 eV)               0.50      1 P:z             9
                                                        0.50      1 P:z            12
                                                        0.50      1 P:z            13
    70      70       --         2.628 au  H             0.50      1 D:z2            8
                        (      71.513 eV)               0.50      1 D:z2            9
                                                        0.50      1 D:z2           12
                                                        0.50      1 D:z2           13
    71      71       --         2.628 au  H             0.50      1 D:x2-y2         8
                        (      71.513 eV)               0.50      1 D:x2-y2         9
                                                        0.50      1 D:x2-y2        12
                                                        0.50      1 D:x2-y2        13
    72      72       --         2.628 au  H             0.50      1 D:xy            8
                        (      71.513 eV)              -0.50      1 D:xy            9
                                                       -0.50      1 D:xy           12
                                                        0.50      1 D:xy           13
    73      73       --         2.628 au  H             0.50      1 D:xz            8
                        (      71.513 eV)               0.50      1 D:xz            9
                                                       -0.50      1 D:xz           12
                                                       -0.50      1 D:xz           13
    74      74       --         2.628 au  H             0.50      1 D:yz            8
                        (      71.513 eV)              -0.50      1 D:yz            9
                                                        0.50      1 D:yz           12
                                                       -0.50      1 D:yz           13
    75      75      2.000    -101.760 au  Cl            0.71      1 S              14
                        (   -2769.023 eV)               0.71      1 S              15
    76      76      2.000      -9.584 au  Cl            0.71      2 S              14
                        (    -260.807 eV)               0.71      2 S              15
    77      77      2.000      -0.848 au  Cl            0.71      3 S              14
                        (     -23.065 eV)               0.71      3 S              15
    78      78       --         0.237 au  Cl            0.71      4 S              14
                        (       6.461 eV)               0.71      4 S              15
    79      79       --         2.095 au  Cl            0.71      5 S              14
                        (      57.011 eV)               0.71      5 S              15
    80      80       --        12.974 au  Cl            0.71      6 S              14
                        (     353.034 eV)               0.71      6 S              15
    81      81       --       215.823 au  Cl            0.71      7 S              14
                        (    5872.843 eV)               0.71      7 S              15
    82      82      2.000      -7.312 au  Cl            0.71      1 P:x            14
                        (    -198.964 eV)              -0.71      1 P:x            15
    83      83      1.667      -0.356 au  Cl            0.71      2 P:x            14
                        (      -9.692 eV)              -0.71      2 P:x            15
    84      84       --         0.265 au  Cl            0.71      3 P:x            14
                        (       7.201 eV)              -0.71      3 P:x            15
    85      85       --         2.209 au  Cl            0.71      4 P:x            14
                        (      60.097 eV)              -0.71      4 P:x            15
    86      86       --        19.178 au  Cl            0.71      5 P:x            14
                        (     521.872 eV)              -0.71      5 P:x            15
    87      87      2.000      -7.312 au  Cl            0.71      1 P:z            14
                        (    -198.964 eV)               0.71      1 P:z            15
    88      88      1.667      -0.356 au  Cl            0.71      2 P:z            14
                        (      -9.692 eV)               0.71      2 P:z            15
    89      89       --         0.265 au  Cl            0.71      3 P:z            14
                        (       7.201 eV)               0.71      3 P:z            15
    90      90       --         2.209 au  Cl            0.71      4 P:z            14
                        (      60.097 eV)               0.71      4 P:z            15
    91      91       --        19.178 au  Cl            0.71      5 P:z            14
                        (     521.872 eV)               0.71      5 P:z            15
    92      92       --         0.442 au  Cl            0.71      1 D:z2           14
                        (      12.026 eV)               0.71      1 D:z2           15
    93      93       --         0.442 au  Cl            0.71      1 D:x2-y2        14
                        (      12.026 eV)               0.71      1 D:x2-y2        15
    94      94       --         0.442 au  Cl            0.71      1 D:xz           14
                        (      12.026 eV)              -0.71      1 D:xz           15
    95      95       --         1.250 au  Cl            0.71      1 F:z3           14
                        (      34.015 eV)               0.71      1 F:z3           15
    96      96       --         1.250 au  Cl            0.71      1 F:z            14
                        (      34.015 eV)               0.71      1 F:z            15
    97      97       --         1.250 au  Cl            0.71      1 F:z2x          14
                        (      34.015 eV)              -0.71      1 F:z2x          15
    98      98       --         1.250 au  Cl            0.71      1 F:x            14
                        (      34.015 eV)              -0.71      1 F:x            15



                                       === A2 ===
 Nr. of SFOs :   50
 Cartesian basis functions that participate in this irrep (total number =   156) :
     24    33    45   105    48   108    51   111    57   117
     54   114    67   127    63   123    60    65   120   125
     75   135    78   138    81   141    87   147    84   144
     97   157    93   153    90    95   150   155   159   171
    207   219   160   172   208   220   161   173   209   221
    164   176   212   224   162   163   174   175   210   211
    222   223   170   182   218   230   167   169   179   181
    215   217   227   229   165   166   168   177   178   180
    213   214   216   225   226   228   183   195   231   243
    184   196   232   244   185   197   233   245   188   200
    236   248   186   187   198   199   234   235   246   247
    194   206   242   254   191   193   203   205   239   241
    251   253   189   190   192   201   202   204   237   238
    240   249   250   252   260   298   263   301   269   307
    272   310   275   313   281   319   278   316   291   329
    287   325   284   289   322   327

    SFO  (index         Fragment          Generating    Expansion in Fragment Orbitals
  indx  incl.CFs)   Occup   Orb.Energy   FragmentType  Coeff.   Orbital     on Fragment
 --------------------------------------------------------------------------------------
     1       1       --         0.491 au  S             1.00      1 D:xy            1
                        (      13.368 eV)
     2       2       --         1.336 au  S             1.00      1 F:xyz           1
                        (      36.349 eV)
     3       3      0.667      -0.186 au  C             0.71      1 P:y             2
                        (      -5.051 eV)              -0.71      1 P:y             4
     4       4       --         0.203 au  C             0.71      2 P:y             2
                        (       5.518 eV)              -0.71      2 P:y             4
     5       5       --         2.125 au  C             0.71      3 P:y             2
                        (      57.838 eV)              -0.71      3 P:y             4
     6       6       --         1.300 au  C             0.71      1 D:xy            2
                        (      35.363 eV)               0.71      1 D:xy            4
     7       7       --         1.300 au  C             0.71      1 D:yz            2
                        (      35.363 eV)              -0.71      1 D:yz            4
     8       8       --         4.097 au  C             0.71      1 F:xyz           2
                        (     111.488 eV)               0.71      1 F:xyz           4
     9       9       --         4.097 au  C             0.71      1 F:z2y           2
                        (     111.488 eV)              -0.71      1 F:z2y           4
    10      10       --         4.097 au  C             0.71      1 F:y             2
                        (     111.488 eV)              -0.71      1 F:y             4
    11      11      0.667      -0.186 au  C             0.71      1 P:y             3
                        (      -5.051 eV)              -0.71      1 P:y             5
    12      12       --         0.203 au  C             0.71      2 P:y             3
                        (       5.518 eV)              -0.71      2 P:y             5
    13      13       --         2.125 au  C             0.71      3 P:y             3
                        (      57.838 eV)              -0.71      3 P:y             5
    14      14       --         1.300 au  C             0.71      1 D:xy            3
                        (      35.363 eV)               0.71      1 D:xy            5
    15      15       --         1.300 au  C             0.71      1 D:yz            3
[...]
                               0.672    -0.162    -0.723
                               0.716    -0.108     0.690
                        -----------------------------------
 
================================================================================
 
 
===  TOTAL NMR SHIELDING TENSOR (ppm)
 
                        ***********************************
                        CARTESIAN AXIS REPRESENTATION

                        ==== total shielding tensor
                        -----------------------------------
                              29.616    -0.990    -1.673
                              -0.990    26.052    -5.443
                              -1.673    -5.443    28.435
                        -----------------------------------
                                  isotropic =     28.034

                        ***********************************
                        -----------------------------------
                        PRINCIPAL AXIS REPRESENTATION

                        ==== Principal components:

                              21.272    29.863    32.968
 
                        ==== Principal Axis System:

                              -0.214     0.952    -0.218
                              -0.753    -0.303    -0.584
                              -0.622     0.039     0.782
                        -----------------------------------
################################################################################
********************************************************************************
****  N U C L E U S : H(13)
 
 ADF-GUI atom: H(13)
 Internal NMR numbering of atoms: H(13)
 
 
================================================================================
 
 
===  PARAMAGNETIC NMR SHIELDING TENSORS (ppm)
 
    ===     paramagnetic b^(1) tensor       ===     paramagnetic u^(1) tensor
    -----------------------------------     -----------------------------------
           0.000     0.000     0.000               4.478   -14.040   -10.018
           0.000     0.000     0.000             -14.040     3.442   -10.121
           0.000     0.000     0.000             -10.018   -10.121     1.076
    -----------------------------------     -----------------------------------
              isotropic =      0.000                  isotropic =      2.999

    ===     paramagnetic s^(1) tensor       ===     paramagnetic gauge tensor
    -----------------------------------     -----------------------------------
          -3.102    15.072     9.649              -0.340    -0.592    -0.301
          15.072    -4.834     9.691              -0.592    -2.082    -0.230
           9.649     9.691    -1.634              -0.301    -0.230     0.117
    -----------------------------------     -----------------------------------
              isotropic =     -3.190                  isotropic =     -0.768

                        ***********************************
                        CARTESIAN AXIS REPRESENTATION

                        ==== total paramagnetic tensor
                        -----------------------------------
                               1.035     0.439    -0.671
                               0.439    -3.474    -0.661
                              -0.671    -0.661    -0.441
                        -----------------------------------
                                  isotropic =     -0.960

                        ***********************************
                        -----------------------------------
                        PRINCIPAL AXIS REPRESENTATION

                        ==== Principal components:

                              -3.631    -0.632     1.383
 
                        ==== Principal Axis System:

                               0.065     0.402    -0.913
                              -0.980    -0.148    -0.135
                              -0.189     0.903     0.385
                        -----------------------------------
 
================================================================================
 
 
===  DIAMAGNETIC NMR SHIELDING TENSORS (ppm)
 
    ===       diamagnetic core tensor       ===    diamagnetic valence tensor
    -----------------------------------     -----------------------------------
           0.000     0.000     0.000              28.579     0.549    -0.998
           0.000     0.000     0.000               0.549    29.525     6.096
           0.000     0.000     0.000              -0.998     6.096    28.867
    -----------------------------------     -----------------------------------
              isotropic =      0.000                  isotropic =     28.990

                        ***********************************
                        CARTESIAN AXIS REPRESENTATION

                        ==== total diamagnetic tensor
                        -----------------------------------
                              28.579     0.549    -0.998
                               0.549    29.525     6.096
                              -0.998     6.096    28.867
                        -----------------------------------
                                  isotropic =     28.990

                        ***********************************
                        -----------------------------------
                        PRINCIPAL AXIS REPRESENTATION

                        ==== Principal components:

                              22.878    28.780    35.313
 
                        ==== Principal Axis System:

                               0.190     0.981     0.043
                              -0.672     0.162    -0.723
                               0.716    -0.108    -0.690
                        -----------------------------------
 
================================================================================
 
 
===  TOTAL NMR SHIELDING TENSOR (ppm)
 
                        ***********************************
                        CARTESIAN AXIS REPRESENTATION

                        ==== total shielding tensor
                        -----------------------------------
                              29.615     0.988    -1.669
                               0.988    26.051     5.435
                              -1.669     5.435    28.426
                        -----------------------------------
                                  isotropic =     28.030

                        ***********************************
                        -----------------------------------
                        PRINCIPAL AXIS REPRESENTATION

                        ==== Principal components:

                              21.277    29.860    32.954
 
                        ==== Principal Axis System:

                               0.214     0.952    -0.218
                              -0.753     0.303     0.584
                               0.622     0.039     0.782
                        -----------------------------------
################################################################################
********************************************************************************
****  N U C L E U S : Cl(14)
 
 ADF-GUI atom: Cl(14)
 Internal NMR numbering of atoms: Cl(14)
 
 
================================================================================
 
 
===  PARAMAGNETIC NMR SHIELDING TENSORS (ppm)
 
    ===     paramagnetic b^(1) tensor       ===     paramagnetic u^(1) tensor
    -----------------------------------     -----------------------------------
           0.000     0.000     0.000            -199.265    72.255   269.387
           0.000     0.000     0.000              72.255  -534.285  -190.431
           0.000     0.000     0.000             269.387  -190.431  -282.497
    -----------------------------------     -----------------------------------
              isotropic =      0.000                  isotropic =   -338.682

    ===     paramagnetic s^(1) tensor       ===     paramagnetic gauge tensor
    -----------------------------------     -----------------------------------
          55.917   -55.246  -133.784              -0.701     2.153     1.189
         -55.246    65.384    71.756               2.153    -2.570    -4.414
        -133.784    71.756     6.073               1.189    -4.414    -2.996
    -----------------------------------     -----------------------------------
              isotropic =     42.458                  isotropic =     -2.089

                        ***********************************
                        CARTESIAN AXIS REPRESENTATION

                        ==== total paramagnetic tensor
                        -----------------------------------
                            -144.049    19.162   136.792
                              19.162  -471.471  -123.089
                             136.792  -123.089  -279.420
                        -----------------------------------
                                  isotropic =   -298.313

                        ***********************************
                        -----------------------------------
                        PRINCIPAL AXIS REPRESENTATION

                        ==== Principal components:

                            -547.947  -294.168   -52.825
 
                        ==== Principal Axis System:

                               0.207     0.539     0.817
                              -0.845     0.519    -0.128
                              -0.493    -0.664     0.563
                        -----------------------------------
 
================================================================================
 
 
===  DIAMAGNETIC NMR SHIELDING TENSORS (ppm)
 
    ===       diamagnetic core tensor       ===    diamagnetic valence tensor
    -----------------------------------     -----------------------------------
           0.000     0.000     0.000            1150.810    -0.000     4.573
           0.000     0.000     0.000              -0.000  1141.811     0.001
           0.000     0.000     0.000               4.573     0.001  1147.027
    -----------------------------------     -----------------------------------
              isotropic =      0.000                  isotropic =   1146.549

                        ***********************************
                        CARTESIAN AXIS REPRESENTATION

                        ==== total diamagnetic tensor
                        -----------------------------------
                            1150.810    -0.000     4.573
                              -0.000  1141.811     0.001
                               4.573     0.001  1147.027
                        -----------------------------------
                                  isotropic =   1146.549

                        ***********************************
                        -----------------------------------
                        PRINCIPAL AXIS REPRESENTATION

                        ==== Principal components:

                            1141.811  1143.970  1153.868
 
                        ==== Principal Axis System:

                              -0.000    -0.556    -0.831
                              -1.000     0.000    -0.000
                               0.000     0.831    -0.556
                        -----------------------------------
 
================================================================================
 
 
===  TOTAL NMR SHIELDING TENSOR (ppm)
 
                        ***********************************
                        CARTESIAN AXIS REPRESENTATION

                        ==== total shielding tensor
                        -----------------------------------
                            1006.761    19.162   141.365
                              19.162   670.340  -123.089
                             141.365  -123.089   867.607
                        -----------------------------------
                                  isotropic =    848.236

                        ***********************************
                        -----------------------------------
                        PRINCIPAL AXIS REPRESENTATION

                        ==== Principal components:

                             594.578   849.281  1100.849
 
                        ==== Principal Axis System:

                               0.207     0.536     0.818
                              -0.847     0.517    -0.124
                              -0.489    -0.667     0.561
                        -----------------------------------
################################################################################
********************************************************************************
****  N U C L E U S : Cl(15)
 
 ADF-GUI atom: Cl(15)
 Internal NMR numbering of atoms: Cl(15)
 
 
================================================================================
 
 
===  PARAMAGNETIC NMR SHIELDING TENSORS (ppm)
 
    ===     paramagnetic b^(1) tensor       ===     paramagnetic u^(1) tensor
    -----------------------------------     -----------------------------------
           0.000     0.000     0.000            -199.236     0.004  -269.539
           0.000     0.000     0.000               0.004  -534.536     0.005
           0.000     0.000     0.000            -269.539     0.005  -282.748
    -----------------------------------     -----------------------------------
              isotropic =      0.000                  isotropic =   -338.840

    ===     paramagnetic s^(1) tensor       ===     paramagnetic gauge tensor
    -----------------------------------     -----------------------------------
          55.890    -0.000   133.747              -0.701     0.000    -1.189
          -0.000    65.401    -0.000               0.000    -2.570     0.000
         133.747    -0.000     6.074              -1.189     0.000    -2.995
    -----------------------------------     -----------------------------------
              isotropic =     42.455                  isotropic =     -2.089

                        ***********************************
                        CARTESIAN AXIS REPRESENTATION

                        ==== total paramagnetic tensor
                        -----------------------------------
                            -144.047     0.004  -136.980
                               0.004  -471.704     0.005
                            -136.980     0.005  -279.670
                        -----------------------------------
                                  isotropic =   -298.474

                        ***********************************
                        -----------------------------------
                        PRINCIPAL AXIS REPRESENTATION

                        ==== Principal components:

                            -471.704  -364.704   -59.012
 
                        ==== Principal Axis System:

                              -0.000     0.527     0.850
                               1.000     0.000     0.000
                              -0.000     0.850    -0.527
                        -----------------------------------
 
================================================================================
 
 
===  DIAMAGNETIC NMR SHIELDING TENSORS (ppm)
 
    ===       diamagnetic core tensor       ===    diamagnetic valence tensor
    -----------------------------------     -----------------------------------
           0.000     0.000     0.000            1149.953    -0.000    -4.574
           0.000     0.000     0.000              -0.000  1142.521     0.000
           0.000     0.000     0.000              -4.574     0.000  1146.170
    -----------------------------------     -----------------------------------
              isotropic =      0.000                  isotropic =   1146.214

                        ***********************************
                        CARTESIAN AXIS REPRESENTATION

                        ==== total diamagnetic tensor
                        -----------------------------------
                            1149.953    -0.000    -4.574
                              -0.000  1142.521     0.000
                              -4.574     0.000  1146.170
                        -----------------------------------
                                  isotropic =   1146.214

                        ***********************************
                        -----------------------------------
                        PRINCIPAL AXIS REPRESENTATION

                        ==== Principal components:

                            1142.521  1143.112  1153.011
 
                        ==== Principal Axis System:

                              -0.000     0.556     0.831
                               1.000     0.000    -0.000
                              -0.000     0.831    -0.556
                        -----------------------------------
 
================================================================================
 
 
===  TOTAL NMR SHIELDING TENSOR (ppm)
 
                        ***********************************
                        CARTESIAN AXIS REPRESENTATION

                        ==== total shielding tensor
                        -----------------------------------
                            1005.906     0.004  -141.554
                               0.004   670.816     0.005
                            -141.554     0.005   866.500
                        -----------------------------------
                                  isotropic =    847.741

                        ***********************************
                        -----------------------------------
                        PRINCIPAL AXIS REPRESENTATION

                        ==== Principal components:

                             670.816   778.419  1093.988
 
                        ==== Principal Axis System:

                              -0.000     0.528     0.849
                               1.000     0.000     0.000
                              -0.000     0.849    -0.528
                        -----------------------------------
 *******************************************************************************

                             N M R   E X I T
 NORMAL TERMINATION



 =================
 Timing Statistics
 =================
  
 Total Used :                     CPU=      184.39      System=        2.35     Elapsed=      192.92

 Calls  Section                     ( Mean, Percentage )
 ---------------------------------------------------------------------------------------------------
     3  ><      ................      0.01    0.01             0.00    0.02             0.01    0.01
     1  INIT    ................      0.39    0.21             0.00    0.14             0.42    0.22
     1  RDEIGX  ................     45.90   24.89             0.38   16.34            47.70   24.72
     1  AOF1K   ................      3.26    1.77             0.00    0.01             3.40    1.76
    15  AOPKK   ................      4.55   36.98             0.12   73.60             4.85   37.73
    15  XSIGP   ................      0.01    0.06             0.00    0.01             0.01    0.06
    15  AODKKK  ................      4.43   36.07             0.01    9.19             4.56   35.48
    15  XDV     ................      0.00    0.01             0.00    0.01             0.00    0.01
    15  XSIGD   ................      0.00    0.00             0.00    0.00             0.00    0.00
     1  EXIT PROCEDURE .........      0.00    0.00             0.02    0.69             0.02    0.01


 Currently Open Files (EXIT00)
 ====================

 Unit    Access Format  Status   Type       Ident (file)
 -------------------------------------------------------
   3      SEQ    FORM   TRANSP  NORMAL      LOGFILE
                                          ( /home/milias/work/projects/open-collection/theoretical_chemistry/projects/nmr_diplomovky/HD/ams/pbe0_tz2p_good/HD.geopt_freq_nmr_shield_pbe0_tz2p_good_cosmo-chcl3.logfile )
