
     Program PWSCF v.7.5 starts on 30Aug2025 at 21: 5:22 
        Git branch: develop
        Last git commit: ddbec46536cc9c6f8cf3cd9db486573bcc5424a4
        Last git commit date: Wed Aug 27 10:24:06 2025 +0000
        Last git commit subject: Merge branch 'smallfixes' into 'develop'

     This program is part of the open-source Quantum ESPRESSO suite
     for quantum simulation of materials; please cite
         "P. Giannozzi et al., J. Phys.:Condens. Matter 21 395502 (2009);
         "P. Giannozzi et al., J. Phys.:Condens. Matter 29 465901 (2017);
         "P. Giannozzi et al., J. Chem. Phys. 152 154105 (2020);
          URL http://www.quantum-espresso.org", 
     in publications or presentations arising from this work. More details at
     http://www.quantum-espresso.org/quote

     Serial multi-threaded version, running on    8 processor cores
     1988768 MiB available memory on the printing compute node when the environment starts
 
     Waiting for input...
     Reading input from standard input

     Current dimensions of program PWSCF are:
     Max number of different atomic species (ntypx) = 10
     Max number of k-points (npk) =  40000
     Max angular momentum in pseudopotentials (lmaxx) =  4
 
 
     G-vector sticks info
     --------------------
     sticks:   dense  smooth     PW     G-vecs:    dense   smooth      PW
     Sum       13473   13473   3515              1463107  1463107  194917
 
     Using Slab Decomposition
 


     bravais-lattice index     =            0
     lattice parameter (alat)  =      24.6592  a.u.
     unit-cell volume          =   23302.3946 (a.u.)^3
     number of atoms/cell      =           55
     number of atomic types    =            2
     number of electrons       =       886.00
     number of Kohn-Sham states=         1064
     kinetic-energy cutoff     =      60.0000  Ry
     charge density cutoff     =     240.0000  Ry
     scf convergence threshold =      1.0E-09
     mixing beta               =       0.2000
     number of iterations used =            8  plain     mixing
     energy convergence thresh.=      1.0E-08
     force convergence thresh. =      1.0E-04
     Exchange-correlation= PBE
                           (   1   4   3   4   0   0   0)
     nstep                     =            2

     Non magnetic calculation with spin-orbit


     GPU acceleration is ACTIVE.  4 visible GPUs per MPI rank


     celldm(1)=  24.659173  celldm(2)=   0.000000  celldm(3)=   0.000000
     celldm(4)=   0.000000  celldm(5)=   0.000000  celldm(6)=   0.000000

     crystal axes: (cart. coord. in units of alat)
               a(1) = (   1.000000   0.000000   0.000000 )  
               a(2) = (   0.000000   1.159736   0.000000 )  
               a(3) = (   0.000000   0.000000   1.340003 )  

     reciprocal axes: (cart. coord. in units 2 pi/alat)
               b(1) = (  1.000000 -0.000000  0.000000 )  
               b(2) = ( -0.000000  0.862265  0.000000 )  
               b(3) = (  0.000000  0.000000  0.746267 )  


     PseudoPot. # 1 for Se read from file:
     ./Se_r.upf
     MD5 check sum: cb2cefba1335ec1a0ef320de5a6fd81a
     Pseudo is Norm-conserving + core correction, Zval = 16.0
     Generated using ONCVPSP code by D. R. Hamann
     Using radial grid of 1214 points, 10 beta functions with: 
                l(1) =   0
                l(2) =   0
                l(3) =   1
                l(4) =   1
                l(5) =   1
                l(6) =   1
                l(7) =   2
                l(8) =   2
                l(9) =   2
               l(10) =   2

     PseudoPot. # 2 for Fl read from file:
     ./Fl-6spd_r.upf
     MD5 check sum: b85b9b71a88d70a023db0b659bf16840
     Pseudo is Norm-conserving + core correction, Zval = 22.0
     Generated using ONCVPSP code by D. R. Hamann
     Using radial grid of 2000 points, 12 beta functions with: 
                l(1) =   0
                l(2) =   0
                l(3) =   1
                l(4) =   1
                l(5) =   1
                l(6) =   1
                l(7) =   2
                l(8) =   2
                l(9) =   2
               l(10) =   2
               l(11) =   3
               l(12) =   3

     atomic species   valence    mass     pseudopotential
     Se               16.00    78.96000     Se( 1.00)
     Fl               22.00   289.00000     Fl( 1.00)

     No symmetry found



   Cartesian axes

     site n.     atom                  positions (alat units)
         1        Se     tau(   1) = (   0.1265139   0.1290319   0.2899348  )
         2        Se     tau(   2) = (   0.2898730   0.1222560   0.5698847  )
         3        Se     tau(   3) = (   0.2424917   0.2574301   0.2214487  )
         4        Se     tau(   4) = (   0.0739760   0.2586025   0.5065604  )
         5        Se     tau(   5) = (   0.1310203   0.0010567   0.1588305  )
         6        Se     tau(   6) = (   0.2881107  -0.0045116   0.4367615  )
         7        Se     tau(   7) = (   0.4598471   0.1290321   0.2899346  )
         8        Se     tau(   8) = (   0.6346464   0.1264925   0.5702974  )
         9        Se     tau(   9) = (   0.5758247   0.2574302   0.2214482  )
        10        Se     tau(  10) = (   0.4001475   0.2530642   0.5076568  )
        11        Se     tau(  11) = (   0.4643531   0.0010568   0.1588304  )
        12        Se     tau(  12) = (   0.6317777  -0.0006482   0.4393781  )
        13        Se     tau(  13) = (   0.7931807   0.1290319   0.2899341  )
        14        Se     tau(  14) = (   0.9622465   0.1273954   0.5664070  )
        15        Se     tau(  15) = (   0.9091586   0.2574301   0.2214482  )
        16        Se     tau(  16) = (   0.7430044   0.2593948   0.5061921  )
        17        Se     tau(  17) = (   0.7976871   0.0010567   0.1588299  )
        18        Se     tau(  18) = (   0.9639387   0.0080696   0.4269225  )
        19        Se     tau(  19) = (   0.1264983   0.5155936   0.2899296  )
        20        Se     tau(  20) = (   0.2642202   0.4986246   0.5650334  )
        21        Se     tau(  21) = (   0.2424688   0.6440249   0.2214632  )
        22        Se     tau(  22) = (   0.0696216   0.6422763   0.5067810  )
        23        Se     tau(  23) = (   0.1310206   0.3876536   0.1587981  )
        24        Se     tau(  24) = (   0.2826288   0.3741124   0.4309008  )
        25        Se     tau(  25) = (   0.4598315   0.5155937   0.2899294  )
        26        Se     tau(  26) = (   0.6341014   0.5196800   0.5643143  )
        27        Se     tau(  27) = (   0.5758018   0.6440250   0.2214627  )
        28        Se     tau(  28) = (   0.3697647   0.6329002   0.5038083  )
        29        Se     tau(  29) = (   0.4643534   0.3876537   0.1587979  )
        30        Se     tau(  30) = (   0.6258541   0.3871753   0.4381309  )
        31        Se     tau(  31) = (   0.7931651   0.5155936   0.2899289  )
        32        Se     tau(  32) = (   0.9564171   0.5117758   0.5702177  )
        33        Se     tau(  33) = (   0.9091357   0.6440249   0.2214627  )
        34        Se     tau(  34) = (   0.7590143   0.6395492   0.5020283  )
        35        Se     tau(  35) = (   0.7976875   0.3876535   0.1587975  )
        36        Se     tau(  36) = (   0.9581180   0.3862323   0.4364536  )
        37        Se     tau(  37) = (   0.1264959   0.9021877   0.2899756  )
        38        Se     tau(  38) = (   0.2465976   0.8943075   0.5600303  )
        39        Se     tau(  39) = (   0.2424890   1.0305767   0.2214989  )
        40        Se     tau(  40) = (   0.0822127   1.0376567   0.4923804  )
        41        Se     tau(  41) = (   0.1310011   0.7742540   0.1588314  )
        42        Se     tau(  42) = (   0.2614756   0.7654932   0.4262535  )
        43        Se     tau(  43) = (   0.4598291   0.9021878   0.2899754  )
        44        Se     tau(  44) = (   0.6889943   0.9030670   0.5652884  )
        45        Se     tau(  45) = (   0.5758220   1.0305769   0.2214984  )
        46        Se     tau(  46) = (   0.3812438   1.0129064   0.5189388  )
        47        Se     tau(  47) = (   0.4643340   0.7742541   0.1588312  )
        48        Se     tau(  48) = (   0.6537216   0.7769724   0.4336812  )
        49        Se     tau(  49) = (   0.7931627   0.9021876   0.2899749  )
        50        Se     tau(  50) = (   0.9656118   0.9089626   0.5593483  )
        51        Se     tau(  51) = (   0.9091559   1.0305767   0.2214984  )
        52        Se     tau(  52) = (   0.7731218   1.0458403   0.4884361  )
        53        Se     tau(  53) = (   0.7976680   0.7742539   0.1588308  )
        54        Se     tau(  54) = (   0.9585930   0.7747748   0.4343037  )
        55        Fl     tau(  55) = (   0.4803595   0.8097371   0.6223285  )

     number of k points=     4  Gaussian smearing, width (Ry)=  0.0200
                       cart. coord. in units 2pi/alat
        k(    1) = (   0.0000000   0.0000000   0.0000000), wk =   0.2500000
        k(    2) = (   0.0000000  -0.4311326   0.0000000), wk =   0.2500000
        k(    3) = (  -0.5000000   0.0000000   0.0000000), wk =   0.2500000
        k(    4) = (  -0.5000000  -0.4311326   0.0000000), wk =   0.2500000

     Dense  grid:  1463107 G-vectors     FFT dimensions: ( 125, 144, 180)

     Estimated max dynamical RAM per process >      60.13 GB
 ----2D----2D----2D----2D----2D----2D----2D----2D----2D----2D----2D----2D
  The code is running with the 2D cutoff
  Please refer to:
  Sohier, T., Calandra, M., & Mauri, F. (2017), 
  Density functional perturbation theory for gated two-dimensional heterostructures:
  Theoretical developments and application to flexural phonons in graphene.
  Physical Review B, 96(7), 75448. https://doi.org/10.1103/PhysRevB.96.075448
 ----2D----2D----2D----2D----2D----2D----2D----2D----2D----2D----2D----2D

     Initial potential from superposition of free atoms

     starting charge     885.9890, renormalised to     886.0000

     negative rho (up, down):  7.547E-03 0.000E+00
     Starting wfcs are  998 randomized atomic wfcs +   66 random wfcs

     total cpu time spent up to now is       22.6 secs

     Self-consistent Calculation

     iteration #  1     ecut=    60.00 Ry     beta= 0.20
     Davidson diagonalization with overlap
     ethr =  1.00E-02,  avg # of iterations = 12.0

     total cpu time spent up to now is      150.7 secs

     WARNING: integrated charge=   885.85264993, expected=   886.00000000

     total energy              =  -11983.67475594 Ry
     estimated scf accuracy    <    2514.52224662 Ry

     iteration #  2     ecut=    60.00 Ry     beta= 0.20
     Davidson diagonalization with overlap
     ethr =  1.00E-02,  avg # of iterations = 12.0

     total cpu time spent up to now is      326.6 secs

     WARNING: integrated charge=   885.84658551, expected=   886.00000000

     total energy              =  -13227.50880179 Ry
     estimated scf accuracy    <    2597.74838333 Ry

     iteration #  3     ecut=    60.00 Ry     beta= 0.20
     Davidson diagonalization with overlap
     ethr =  1.00E-02,  avg # of iterations = 21.8

     total cpu time spent up to now is      627.3 secs

     WARNING: integrated charge=   885.83227323, expected=   886.00000000

     total energy              =  -13188.93145812 Ry
     estimated scf accuracy    <    2645.88910604 Ry

     iteration #  4     ecut=    60.00 Ry     beta= 0.20
     Davidson diagonalization with overlap
     ethr =  1.00E-02,  avg # of iterations = 26.0

     total cpu time spent up to now is      986.9 secs

     WARNING: integrated charge=   885.74605558, expected=   886.00000000

     total energy              =  -13689.63568233 Ry
     estimated scf accuracy    <    2406.61721311 Ry

     iteration #  5     ecut=    60.00 Ry     beta= 0.20
     Davidson diagonalization with overlap
     ethr =  1.00E-02,  avg # of iterations = 25.0

     total cpu time spent up to now is     1356.1 secs

     WARNING: integrated charge=   885.65730766, expected=   886.00000000

     total energy              =  -14336.53253016 Ry
     estimated scf accuracy    <    1860.55202913 Ry

     iteration #  6     ecut=    60.00 Ry     beta= 0.20
     Davidson diagonalization with overlap
     ethr =  1.00E-02,  avg # of iterations = 28.0

     total cpu time spent up to now is     1736.6 secs

     WARNING: integrated charge=   885.64980013, expected=   886.00000000

     total energy              =  -15852.02743248 Ry
     estimated scf accuracy    <    1391.41551491 Ry

     iteration #  7     ecut=    60.00 Ry     beta= 0.20
     Davidson diagonalization with overlap
     ethr =  1.00E-02,  avg # of iterations = 27.3

     total cpu time spent up to now is     2094.5 secs

     WARNING: integrated charge=   885.63649787, expected=   886.00000000

     total energy              =  -16386.33513419 Ry
     estimated scf accuracy    <    1463.49324422 Ry

     iteration #  8     ecut=    60.00 Ry     beta= 0.20
