
     Program PWSCF v.7.5 starts on  1Aug2025 at 19: 1: 3 
        Git branch: develop
        Last git commit: 1e12bef7f65ab07de607c8c270417d05360face4
        Last git commit date: Mon Jul 28 16:26:30 2025 +0000
        Last git commit subject: Merge branch 'sabyadk/EPW' into 'develop'

     This program is part of the open-source Quantum ESPRESSO suite
     for quantum simulation of materials; please cite
         "P. Giannozzi et al., J. Phys.:Condens. Matter 21 395502 (2009);
         "P. Giannozzi et al., J. Phys.:Condens. Matter 29 465901 (2017);
         "P. Giannozzi et al., J. Chem. Phys. 152 154105 (2020);
          URL http://www.quantum-espresso.org", 
     in publications or presentations arising from this work. More details at
     http://www.quantum-espresso.org/quote

     Parallel version (MPI), running on    38 processors

     MPI processes distributed on     1 nodes
     1927144 MiB available memory on the printing compute node when the environment starts
 
     Waiting for input...
     Reading input from standard input

     Current dimensions of program PWSCF are:
     Max number of different atomic species (ntypx) = 10
     Max number of k-points (npk) =  40000
     Max angular momentum in pseudopotentials (lmaxx) =  4
     Found identity + (  0.3333  0.0000 -0.0000) symmetry
     This is a supercell, fractional translations are disabled
 
     R & G space division:  proc/nbgrp/npool/nimage =      38
     Subspace diagonalization in iterative solution of the eigenvalue problem:
     one sub-group per band group will be used
     ELPA distributed-memory algorithm (size of sub-group:  6*  6 procs)

 
     Parallelization info
     --------------------
     sticks:   dense  smooth     PW     G-vecs:    dense   smooth      PW
     Min         473     473    120                59277    59277    7622
     Max         474     474    121                59281    59281    7625
     Sum       17979   17979   4581              2252595  2252595  289691
 
     Using Slab Decomposition
 


     bravais-lattice index     =            0
     lattice parameter (alat)  =      24.6592  a.u.
     unit-cell volume          =   23302.3946 (a.u.)^3
     number of atoms/cell      =           54
     number of atomic types    =            1
     number of electrons       =       864.00
     number of Kohn-Sham states=         1036
     kinetic-energy cutoff     =      80.0000  Ry
     charge density cutoff     =     320.0000  Ry
     scf convergence threshold =      1.0E-09
     mixing beta               =       0.2000
     number of iterations used =            8  plain     mixing
     energy convergence thresh.=      1.0E-08
     force convergence thresh. =      1.0E-04
     press convergence thresh. =      5.0E-01
     Exchange-correlation= PBE
                           (   1   4   3   4   0   0   0)
     nstep                     =          250

     Non magnetic calculation with spin-orbit


     celldm(1)=  24.659173  celldm(2)=   0.000000  celldm(3)=   0.000000
     celldm(4)=   0.000000  celldm(5)=   0.000000  celldm(6)=   0.000000

     crystal axes: (cart. coord. in units of alat)
               a(1) = (   1.000000   0.000000   0.000000 )  
               a(2) = (   0.000000   1.159736   0.000000 )  
               a(3) = (   0.000000   0.000000   1.340003 )  

     reciprocal axes: (cart. coord. in units 2 pi/alat)
               b(1) = (  1.000000  0.000000  0.000000 )  
               b(2) = (  0.000000  0.862265  0.000000 )  
               b(3) = (  0.000000  0.000000  0.746267 )  


     PseudoPot. # 1 for Se read from file:
     ./Se_r.upf
     MD5 check sum: cb2cefba1335ec1a0ef320de5a6fd81a
     Pseudo is Norm-conserving + core correction, Zval = 16.0
     Generated using ONCVPSP code by D. R. Hamann
     Using radial grid of 1214 points, 10 beta functions with: 
                l(1) =   0
                l(2) =   0
                l(3) =   1
                l(4) =   1
                l(5) =   1
                l(6) =   1
                l(7) =   2
                l(8) =   2
                l(9) =   2
               l(10) =   2

     atomic species   valence    mass     pseudopotential
     Se               16.00    78.97100     Se( 1.00)

     No symmetry found



   Cartesian axes

     site n.     atom                  positions (alat units)
         1        Se     tau(   1) = (   0.1265139   0.1290319   0.2899348  )
         2        Se     tau(   2) = (   0.2976926   0.1278002   0.5681309  )
         3        Se     tau(   3) = (   0.2424917   0.2574301   0.2214487  )
         4        Se     tau(   4) = (   0.0758313   0.2580166   0.5054662  )
         5        Se     tau(   5) = (   0.1310203   0.0010567   0.1588305  )
         6        Se     tau(   6) = (   0.2931733  -0.0001591   0.4370181  )
         7        Se     tau(   7) = (   0.4598471   0.1290321   0.2899346  )
         8        Se     tau(   8) = (   0.6310256   0.1278002   0.5681303  )
         9        Se     tau(   9) = (   0.5758247   0.2574302   0.2214482  )
        10        Se     tau(  10) = (   0.4091651   0.2580168   0.5054662  )
        11        Se     tau(  11) = (   0.4643531   0.0010568   0.1588304  )
        12        Se     tau(  12) = (   0.6265064  -0.0001591   0.4370175  )
        13        Se     tau(  13) = (   0.7931807   0.1290319   0.2899341  )
        14        Se     tau(  14) = (   0.9643586   0.1278001   0.5681305  )
        15        Se     tau(  15) = (   0.9091586   0.2574301   0.2214482  )
        16        Se     tau(  16) = (   0.7424981   0.2580167   0.5054657  )
        17        Se     tau(  17) = (   0.7976871   0.0010567   0.1588299  )
        18        Se     tau(  18) = (   0.9598398  -0.0001591   0.4370177  )
        19        Se     tau(  19) = (   0.1264983   0.5155936   0.2899296  )
        20        Se     tau(  20) = (   0.2976776   0.5143690   0.5680914  )
        21        Se     tau(  21) = (   0.2424688   0.6440249   0.2214632  )
        22        Se     tau(  22) = (   0.0758123   0.6445888   0.5054356  )
        23        Se     tau(  23) = (   0.1310206   0.3876536   0.1587981  )
        24        Se     tau(  24) = (   0.2931779   0.3864019   0.4369791  )
        25        Se     tau(  25) = (   0.4598315   0.5155937   0.2899294  )
        26        Se     tau(  26) = (   0.6310106   0.5143690   0.5680908  )
        27        Se     tau(  27) = (   0.5758018   0.6440250   0.2214627  )
        28        Se     tau(  28) = (   0.4091461   0.6445890   0.5054356  )
        29        Se     tau(  29) = (   0.4643534   0.3876537   0.1587979  )
        30        Se     tau(  30) = (   0.6265111   0.3864019   0.4369785  )
        31        Se     tau(  31) = (   0.7931651   0.5155936   0.2899289  )
        32        Se     tau(  32) = (   0.9643436   0.5143689   0.5680910  )
        33        Se     tau(  33) = (   0.9091357   0.6440249   0.2214627  )
        34        Se     tau(  34) = (   0.7424791   0.6445889   0.5054350  )
        35        Se     tau(  35) = (   0.7976875   0.3876535   0.1587975  )
        36        Se     tau(  36) = (   0.9598444   0.3864018   0.4369787  )
        37        Se     tau(  37) = (   0.1264959   0.9021877   0.2899756  )
        38        Se     tau(  38) = (   0.2976712   0.9009187   0.5681191  )
        39        Se     tau(  39) = (   0.2424890   1.0305767   0.2214989  )
        40        Se     tau(  40) = (   0.0758068   1.0311484   0.5054902  )
        41        Se     tau(  41) = (   0.1310011   0.7742540   0.1588314  )
        42        Se     tau(  42) = (   0.2931588   0.7729953   0.4369691  )
        43        Se     tau(  43) = (   0.4598291   0.9021878   0.2899754  )
        44        Se     tau(  44) = (   0.6310042   0.9009187   0.5681185  )
        45        Se     tau(  45) = (   0.5758220   1.0305769   0.2214984  )
        46        Se     tau(  46) = (   0.4091406   1.0311486   0.5054902  )
        47        Se     tau(  47) = (   0.4643340   0.7742541   0.1588312  )
        48        Se     tau(  48) = (   0.6264919   0.7729953   0.4369685  )
        49        Se     tau(  49) = (   0.7931627   0.9021876   0.2899749  )
        50        Se     tau(  50) = (   0.9643372   0.9009186   0.5681187  )
        51        Se     tau(  51) = (   0.9091559   1.0305767   0.2214984  )
        52        Se     tau(  52) = (   0.7424736   1.0311486   0.5054897  )
        53        Se     tau(  53) = (   0.7976680   0.7742539   0.1588308  )
        54        Se     tau(  54) = (   0.9598253   0.7729952   0.4369687  )

     --------------------------------------------
     DFT-D3 Dispersion Correction (3-body terms):
     --------------------------------------------
       Reference C6 values for interpolation: 

         atom   Coordination number   C6
         Se         0.000           427.35
         Se         0.990           427.57
         Se         1.981           421.05

       Values used:

         atom   Coordination number  R0_AB[au]  C6      C8
         Se         2.501            3.332    421.05  29958.51
         Se         2.132            3.332    421.08  29961.08
         Se         2.345            3.332    421.05  29958.87
         Se         2.345            3.332    421.05  29958.87
         Se         2.132            3.332    421.08  29961.08
         Se         2.501            3.332    421.05  29958.51
         Se         2.501            3.332    421.05  29958.51
         Se         2.132            3.332    421.08  29961.08
         Se         2.345            3.332    421.05  29958.87
         Se         2.345            3.332    421.05  29958.87
         Se         2.132            3.332    421.08  29961.08
         Se         2.501            3.332    421.05  29958.51
         Se         2.501            3.332    421.05  29958.51
         Se         2.132            3.332    421.08  29961.08
         Se         2.345            3.332    421.05  29958.87
         Se         2.345            3.332    421.05  29958.87
         Se         2.132            3.332    421.08  29961.08
         Se         2.501            3.332    421.05  29958.51
         Se         2.502            3.332    421.05  29958.51
         Se         2.132            3.332    421.08  29961.08
         Se         2.345            3.332    421.05  29958.87
         Se         2.345            3.332    421.05  29958.87
         Se         2.132            3.332    421.08  29961.08
         Se         2.502            3.332    421.05  29958.51
         Se         2.502            3.332    421.05  29958.51
         Se         2.132            3.332    421.08  29961.08
         Se         2.345            3.332    421.05  29958.87
         Se         2.345            3.332    421.05  29958.87
         Se         2.132            3.332    421.08  29961.08
         Se         2.502            3.332    421.05  29958.51
         Se         2.502            3.332    421.05  29958.51
         Se         2.132            3.332    421.08  29961.08
         Se         2.345            3.332    421.05  29958.87
         Se         2.345            3.332    421.05  29958.87
         Se         2.132            3.332    421.08  29961.08
         Se         2.502            3.332    421.05  29958.51
         Se         2.502            3.332    421.05  29958.51
         Se         2.132            3.332    421.08  29961.08
         Se         2.345            3.332    421.05  29958.87
         Se         2.345            3.332    421.05  29958.87
         Se         2.132            3.332    421.08  29961.08
         Se         2.502            3.332    421.05  29958.51
         Se         2.502            3.332    421.05  29958.51
         Se         2.132            3.332    421.08  29961.08
         Se         2.345            3.332    421.05  29958.87
         Se         2.345            3.332    421.05  29958.87
         Se         2.132            3.332    421.08  29961.08
         Se         2.502            3.332    421.05  29958.51
         Se         2.502            3.332    421.05  29958.51
         Se         2.132            3.332    421.08  29961.08
         Se         2.345            3.332    421.05  29958.87
         Se         2.345            3.332    421.05  29958.87
         Se         2.132            3.332    421.08  29961.08
         Se         2.502            3.332    421.05  29958.51

         Molecular C6 ( Ry / a.u.^6 ) =   1227816.84


     number of k points=     2  Gaussian smearing, width (Ry)=  0.0200
                       cart. coord. in units 2pi/alat
        k(    1) = (   0.2500000   0.2155663   0.0000000), wk =   0.5000000
        k(    2) = (   0.2500000  -0.2155663   0.0000000), wk =   0.5000000

     Dense  grid:  2252595 G-vectors     FFT dimensions: ( 144, 180, 192)

     Estimated max dynamical RAM per process >       1.98 GB

     Estimated total dynamical RAM >      75.17 GB
 ----2D----2D----2D----2D----2D----2D----2D----2D----2D----2D----2D----2D
  The code is running with the 2D cutoff
  Please refer to:
  Sohier, T., Calandra, M., & Mauri, F. (2017), 
  Density functional perturbation theory for gated two-dimensional heterostructu
 res:
  Theoretical developments and application to flexural phonons in graphene.
  Physical Review B, 96(7), 75448. https://doi.org/10.1103/PhysRevB.96.075448
 ----2D----2D----2D----2D----2D----2D----2D----2D----2D----2D----2D----2D

     Initial potential from superposition of free atoms

     starting charge     863.9961, renormalised to     864.0000

     negative rho (up, down):  6.422E-05 0.000E+00
     Starting wfcs are  972 randomized atomic wfcs +   64 random wfcs

     total cpu time spent up to now is      183.2 secs

     per-process dynamical memory:  1069.1 Mb

     Self-consistent Calculation

     iteration #  1     ecut=    80.00 Ry     beta= 0.20
     Davidson diagonalization with overlap
     ethr =  1.00E-02,  avg # of iterations =  8.0

     Threshold (ethr) on eigenvalues was too large:
     Diagonalizing with lowered threshold

     Davidson diagonalization with overlap
     c_bands:  3 eigenvalues not converged
     c_bands:  3 eigenvalues not converged
     ethr =  7.37E-05,  avg # of iterations = 20.0

     negative rho (up, down):  4.968E-05 0.000E+00

     total cpu time spent up to now is     1801.7 secs

     total energy              =  -13091.59180097 Ry
     estimated scf accuracy    <       0.60657391 Ry

     iteration #  2     ecut=    80.00 Ry     beta= 0.20
     Davidson diagonalization with overlap
     ethr =  7.02E-05,  avg # of iterations =  3.0

     negative rho (up, down):  1.038E-05 0.000E+00

     total cpu time spent up to now is     2307.3 secs

     total energy              =  -13091.49912316 Ry
     estimated scf accuracy    <       0.33726817 Ry

     iteration #  3     ecut=    80.00 Ry     beta= 0.20
     Davidson diagonalization with overlap
     ethr =  3.90E-05,  avg # of iterations =  9.5

     negative rho (up, down):  4.000E-06 0.000E+00

     total cpu time spent up to now is     2893.9 secs

     total energy              =  -13091.52563325 Ry
     estimated scf accuracy    <       0.01876449 Ry

     iteration #  4     ecut=    80.00 Ry     beta= 0.20
     Davidson diagonalization with overlap
     c_bands:  2 eigenvalues not converged
     c_bands:  2 eigenvalues not converged
     ethr =  2.17E-06,  avg # of iterations = 20.0

     negative rho (up, down):  7.776E-07 0.000E+00

     total cpu time spent up to now is     3462.5 secs

     total energy              =  -13091.52710359 Ry
     estimated scf accuracy    <       0.00374148 Ry

     iteration #  5     ecut=    80.00 Ry     beta= 0.20
     Davidson diagonalization with overlap
     ethr =  4.33E-07,  avg # of iterations = 11.0

     negative rho (up, down):  1.115E-07 0.000E+00

     total cpu time spent up to now is     3986.9 secs

     total energy              =  -13091.52759202 Ry
     estimated scf accuracy    <       0.00069866 Ry

     iteration #  6     ecut=    80.00 Ry     beta= 0.20
     Davidson diagonalization with overlap
     c_bands:  1 eigenvalues not converged
     c_bands:  1 eigenvalues not converged
     ethr =  8.09E-08,  avg # of iterations = 20.0

     total cpu time spent up to now is     4484.2 secs

     total energy              =  -13091.52761656 Ry
     estimated scf accuracy    <       0.00020225 Ry

     iteration #  7     ecut=    80.00 Ry     beta= 0.20
     Davidson diagonalization with overlap
     c_bands:  1 eigenvalues not converged
     ethr =  2.34E-08,  avg # of iterations = 16.0

     total cpu time spent up to now is     5073.4 secs

     total energy              =  -13091.52764337 Ry
     estimated scf accuracy    <       0.00002162 Ry

     iteration #  8     ecut=    80.00 Ry     beta= 0.20
     Davidson diagonalization with overlap
     c_bands:  1 eigenvalues not converged
     c_bands:  1 eigenvalues not converged
     ethr =  2.50E-09,  avg # of iterations = 20.0

     total cpu time spent up to now is     5601.1 secs

     total energy              =  -13091.52764388 Ry
     estimated scf accuracy    <       0.00000722 Ry

     iteration #  9     ecut=    80.00 Ry     beta= 0.20
     Davidson diagonalization with overlap
     c_bands:  1 eigenvalues not converged
     c_bands:  1 eigenvalues not converged
     ethr =  8.36E-10,  avg # of iterations = 20.0

     total cpu time spent up to now is     6270.4 secs

     total energy              =  -13091.52764504 Ry
     estimated scf accuracy    <       0.00000278 Ry

     iteration # 10     ecut=    80.00 Ry     beta= 0.20
     Davidson diagonalization with overlap
     c_bands:  3 eigenvalues not converged
     c_bands:  2 eigenvalues not converged
     ethr =  3.21E-10,  avg # of iterations = 20.0

     total cpu time spent up to now is     6780.2 secs

     total energy              =  -13091.52764510 Ry
     estimated scf accuracy    <       0.00000070 Ry

     iteration # 11     ecut=    80.00 Ry     beta= 0.20
     Davidson diagonalization with overlap
     c_bands:  1 eigenvalues not converged
     c_bands:  1 eigenvalues not converged
     ethr =  8.15E-11,  avg # of iterations = 20.0

     total cpu time spent up to now is     7419.6 secs

     total energy              =  -13091.52764525 Ry
     estimated scf accuracy    <       0.00000013 Ry

     iteration # 12     ecut=    80.00 Ry     beta= 0.20
     Davidson diagonalization with overlap
     c_bands:  1 eigenvalues not converged
     c_bands:  1 eigenvalues not converged
     ethr =  1.49E-11,  avg # of iterations = 20.0

     total cpu time spent up to now is     7955.1 secs

     total energy              =  -13091.52764529 Ry
     estimated scf accuracy    <       0.00000006 Ry

     iteration # 13     ecut=    80.00 Ry     beta= 0.20
     Davidson diagonalization with overlap
     c_bands:  1 eigenvalues not converged
     c_bands:  1 eigenvalues not converged
     ethr =  6.76E-12,  avg # of iterations = 20.0

     total cpu time spent up to now is     8586.2 secs

     total energy              =  -13091.52764531 Ry
     estimated scf accuracy    <          9.5E-09 Ry

     iteration # 14     ecut=    80.00 Ry     beta= 0.20
     Davidson diagonalization with overlap
     c_bands:  1 eigenvalues not converged
     c_bands:  1 eigenvalues not converged
     ethr =  1.10E-12,  avg # of iterations = 20.0

     total cpu time spent up to now is     9211.3 secs

     total energy              =  -13091.52764531 Ry
     estimated scf accuracy    <          3.5E-09 Ry

     iteration # 15     ecut=    80.00 Ry     beta= 0.20
     Davidson diagonalization with overlap
     c_bands:  1 eigenvalues not converged
     c_bands:  1 eigenvalues not converged
     ethr =  4.10E-13,  avg # of iterations = 20.0

     total cpu time spent up to now is     9901.3 secs

     End of self-consistent calculation

          k = 0.2500 0.2156 0.0000 (281523 PWs)   bands (ev):

   -53.7594 -53.7594 -53.7593 -53.7593 -53.7593 -53.7593 -53.7593 -53.7593
   -53.7593 -53.7593 -53.7593 -53.7593 -53.7592 -53.7592 -53.7592 -53.7592
   -53.7592 -53.7592 -53.7591 -53.7591 -53.7591 -53.7591 -53.7590 -53.7590
   -53.7589 -53.7589 -53.7589 -53.7589 -53.7589 -53.7589 -53.7589 -53.7589
   -53.7589 -53.7589 -53.7589 -53.7589 -53.6999 -53.6999 -53.6999 -53.6999
   -53.6999 -53.6999 -53.6999 -53.6999 -53.6999 -53.6999 -53.6999 -53.6998
   -53.6998 -53.6998 -53.6998 -53.6998 -53.6998 -53.6997 -53.6997 -53.6997
   -53.6997 -53.6997 -53.6997 -53.6997 -53.6996 -53.6996 -53.6996 -53.6996
   -53.6996 -53.6996 -53.6996 -53.6995 -53.6995 -53.6995 -53.6995 -53.6995
   -53.6155 -53.6154 -53.6154 -53.6154 -53.6154 -53.6154 -53.6154 -53.6154
   -53.6154 -53.6154 -53.6154 -53.6154 -53.6153 -53.6153 -53.6153 -53.6153
   -53.6153 -53.6153 -53.6153 -53.6153 -53.6153 -53.6153 -53.6153 -53.6153
   -53.6152 -53.6152 -53.6152 -53.6152 -53.6152 -53.6152 -53.6152 -53.6152
   -53.6152 -53.6152 -53.6152 -53.6152 -53.5032 -53.5032 -53.5032 -53.5032
   -53.5031 -53.5031 -53.5031 -53.5030 -53.5030 -53.5030 -53.5030 -53.5030
   -53.5030 -53.5030 -53.5030 -53.5029 -53.5029 -53.5029 -53.5029 -53.5029
   -53.5029 -53.5028 -53.5028 -53.5028 -53.5027 -53.5027 -53.5027 -53.5027
   -53.5027 -53.5026 -53.5026 -53.5026 -53.5026 -53.5026 -53.5026 -53.5025
   -53.4264 -53.4264 -53.4264 -53.4264 -53.4264 -53.4264 -53.4264 -53.4264
   -53.4264 -53.4264 -53.4264 -53.4264 -53.4264 -53.4264 -53.4264 -53.4264
   -53.4264 -53.4264 -53.4264 -53.4264 -53.4264 -53.4264 -53.4263 -53.4263
   -53.4263 -53.4263 -53.4263 -53.4263 -53.4263 -53.4263 -53.4263 -53.4263
   -53.4263 -53.4263 -53.4263 -53.4263 -53.3484 -53.3483 -53.3483 -53.3483
   -53.3483 -53.3483 -53.3483 -53.3483 -53.3483 -53.3483 -53.3482 -53.3482
   -53.3482 -53.3482 -53.3482 -53.3482 -53.3482 -53.3482 -53.3482 -53.3482
   -53.3482 -53.3482 -53.3482 -53.3482 -53.3481 -53.3481 -53.3481 -53.3481
   -53.3481 -53.3481 -53.3481 -53.3481 -53.3480 -53.3480 -53.3480 -53.3480
   -52.9076 -52.9076 -52.9075 -52.9075 -52.9075 -52.9075 -52.9075 -52.9075
   -52.9074 -52.9074 -52.9074 -52.9074 -52.9072 -52.9072 -52.9072 -52.9071
   -52.9071 -52.9071 -52.9070 -52.9070 -52.9069 -52.9069 -52.9069 -52.9069
   -52.9067 -52.9067 -52.9067 -52.9067 -52.9066 -52.9066 -52.9066 -52.9066
   -52.9065 -52.9065 -52.9065 -52.9065 -52.8483 -52.8483 -52.8483 -52.8483
   -52.8483 -52.8483 -52.8481 -52.8480 -52.8480 -52.8480 -52.8480 -52.8480
   -52.8478 -52.8478 -52.8478 -52.8478 -52.8477 -52.8477 -52.8472 -52.8472
   -52.8472 -52.8472 -52.8472 -52.8471 -52.8469 -52.8469 -52.8469 -52.8469
   -52.8469 -52.8469 -52.8466 -52.8466 -52.8466 -52.8466 -52.8466 -52.8466
   -52.7596 -52.7596 -52.7596 -52.7595 -52.7595 -52.7595 -52.7594 -52.7594
   -52.7594 -52.7593 -52.7593 -52.7593 -52.7593 -52.7593 -52.7592 -52.7592
   -52.7592 -52.7592 -52.7589 -52.7589 -52.7589 -52.7588 -52.7588 -52.7588
   -52.7588 -52.7588 -52.7588 -52.7587 -52.7587 -52.7587 -52.7586 -52.7586
   -52.7586 -52.7585 -52.7585 -52.7585 -52.6892 -52.6892 -52.6891 -52.6891
   -52.6890 -52.6890 -52.6890 -52.6890 -52.6890 -52.6889 -52.6889 -52.6889
   -52.6889 -52.6889 -52.6889 -52.6889 -52.6889 -52.6888 -52.6888 -52.6888
   -52.6888 -52.6888 -52.6887 -52.6887 -52.6886 -52.6886 -52.6886 -52.6886
   -52.6886 -52.6885 -52.6885 -52.6885 -52.6885 -52.6885 -52.6885 -52.6884
   -52.6173 -52.6173 -52.6173 -52.6173 -52.6173 -52.6172 -52.6172 -52.6172
   -52.6172 -52.6172 -52.6172 -52.6172 -52.6172 -52.6172 -52.6172 -52.6172
   -52.6172 -52.6172 -52.6172 -52.6171 -52.6171 -52.6171 -52.6171 -52.6171
   -52.6171 -52.6171 -52.6171 -52.6171 -52.6171 -52.6171 -52.6171 -52.6170
   -52.6170 -52.6170 -52.6170 -52.6170 -52.5825 -52.5825 -52.5824 -52.5824
   -52.5823 -52.5822 -52.5822 -52.5822 -52.5822 -52.5821 -52.5821 -52.5821
   -52.5820 -52.5820 -52.5820 -52.5819 -52.5819 -52.5819 -52.5818 -52.5818
   -52.5818 -52.5818 -52.5817 -52.5817 -52.5817 -52.5817 -52.5816 -52.5815
   -52.5815 -52.5815 -52.5814 -52.5814 -52.5813 -52.5813 -52.5812 -52.5812
   -52.5396 -52.5395 -52.5395 -52.5395 -52.5395 -52.5395 -52.5395 -52.5395
   -52.5395 -52.5395 -52.5395 -52.5395 -52.5394 -52.5394 -52.5394 -52.5393
   -52.5393 -52.5393 -52.5393 -52.5393 -52.5393 -52.5393 -52.5393 -52.5393
   -52.5392 -52.5392 -52.5392 -52.5392 -52.5392 -52.5392 -52.5392 -52.5392
   -52.5392 -52.5391 -52.5391 -52.5391 -52.5021 -52.5021 -52.5020 -52.5020
   -52.5020 -52.5020 -52.5020 -52.5020 -52.5020 -52.5020 -52.5020 -52.5020
   -52.5020 -52.5020 -52.5020 -52.5020 -52.5020 -52.5020 -52.5020 -52.5019
   -52.5019 -52.5019 -52.5019 -52.5019 -52.5019 -52.5019 -52.5019 -52.5019
   -52.5019 -52.5019 -52.5019 -52.5019 -52.5019 -52.5019 -52.5019 -52.5018
   -52.4218 -52.4218 -52.4218 -52.4218 -52.4218 -52.4218 -52.4217 -52.4217
   -52.4217 -52.4217 -52.4217 -52.4217 -52.4216 -52.4216 -52.4216 -52.4216
   -52.4216 -52.4216 -52.4216 -52.4216 -52.4216 -52.4216 -52.4216 -52.4216
   -52.4216 -52.4216 -52.4216 -52.4216 -52.4216 -52.4216 -52.4215 -52.4215
   -52.4215 -52.4215 -52.4215 -52.4215 -20.4315 -20.4308 -20.2929 -20.2921
   -20.1866 -20.1845 -20.1286 -20.1277 -20.1048 -20.1038 -20.0553 -20.0546
   -20.0542 -20.0522 -20.0104 -20.0093 -19.8978 -19.8951 -19.8765 -19.8736
   -19.8284 -19.8255 -19.7869 -19.7838 -19.7069 -19.7036 -19.5909 -19.5873
   -19.4512 -19.4470 -19.4380 -19.4338 -19.3904 -19.3860 -19.3590 -19.3544
   -19.0102 -19.0063 -18.9132 -18.9090 -18.8085 -18.8035 -18.7870 -18.7820
   -18.7635 -18.7582 -18.7306 -18.7252 -18.1480 -18.1443 -18.0982 -18.0941
   -18.0419 -18.0407 -18.0375 -18.0363 -18.0173 -18.0128 -18.0097 -18.0051
   -17.2832 -17.2815 -17.2593 -17.2577 -17.2467 -17.2446 -17.2438 -17.2418
   -17.1979 -17.1959 -17.1749 -17.1729 -16.4458 -16.4423 -16.4340 -16.4307
   -16.3636 -16.3605 -16.3505 -16.3476 -16.2536 -16.2514 -16.1670 -16.1656
   -15.9026 -15.8960 -15.8368 -15.8305 -15.7817 -15.7755 -15.7314 -15.7254
   -15.5638 -15.5602 -15.5251 -15.5196 -15.4725 -15.4689 -15.4230 -15.4195
   -15.3509 -15.3475 -15.3218 -15.3171 -15.0790 -15.0757 -14.7936 -14.7905
   -10.5093 -10.4844 -10.4343 -10.4060 -10.3814 -10.3795 -10.3576 -10.3512
   -10.1647 -10.1113 -10.0971 -10.0789 -10.0624 -10.0619 -10.0294 -10.0152
    -9.9920  -9.9658  -9.9594  -9.9588  -9.9423  -9.9007  -9.8963  -9.8836
    -9.8775  -9.8695  -9.8443  -9.8350  -9.8147  -9.7987  -9.7826  -9.7704
    -9.7165  -9.7038  -9.6987  -9.6904  -9.6793  -9.6714  -9.6678  -9.6608
    -9.6360  -9.6321  -9.6306  -9.6147  -9.6052  -9.6026  -9.5819  -9.5332
    -9.5316  -9.5223  -9.4933  -9.4762  -9.4572  -9.4330  -9.3836  -9.3722
    -9.3370  -9.3065  -9.2700  -9.2574  -9.2509  -9.2383  -9.2019  -9.1535
    -9.1497  -9.1482  -9.0838  -9.0759  -8.9949  -8.9935  -8.9465  -8.9451
    -8.8891  -8.8635  -8.8522  -8.8233  -8.8133  -8.7994  -8.5732  -8.5596
    -8.5573  -8.5378  -8.5185  -8.4967  -8.4739  -8.4594  -8.4454  -8.3990
    -8.3712  -8.3704  -8.3324  -8.3149  -8.2863  -8.2669  -8.2643  -8.2520
    -8.2213  -8.2051  -8.1975  -8.1964  -8.1925  -8.1540  -8.1486  -8.1394
    -8.1139  -8.0706  -8.0459  -7.9875  -7.7401  -7.6171  -7.5263  -7.5226
    -7.4545  -7.4340  -7.4131  -7.3398  -7.3300  -7.2912  -7.2327  -7.2251
    -7.1788  -7.1732  -7.1537  -7.0594  -7.0082  -7.0036  -6.9994  -6.9689
    -6.9588  -6.9569  -6.9430  -6.9128  -6.9020  -6.8976  -6.8284  -6.8069
    -6.7612  -6.7535  -6.7291  -6.7228  -6.7017  -6.6488  -6.6385  -6.6122
    -6.5766  -6.5555  -6.5516  -6.5481  -6.5436  -6.5407  -6.5378  -6.4979
    -6.4881  -6.4791  -6.4765  -6.4545  -6.4473  -6.4390  -6.4252  -6.4072
    -6.3917  -6.3799  -6.3742  -6.3645  -6.3533  -6.3435  -6.3061  -6.2982
    -6.2947  -6.2870  -6.2492  -6.1928  -6.1901  -6.1445  -6.1353  -6.1209
    -6.1136  -6.1107  -6.1042  -6.0564  -6.0528  -6.0289  -6.0233  -6.0018
    -5.9962  -5.9526  -5.9312  -5.8861  -5.8731  -5.8656  -5.8007  -5.7891
    -5.7498  -5.7371  -5.7199  -5.6837  -5.6625  -5.6297  -5.6201  -5.6003
    -5.5993  -5.5518  -5.5357  -5.5077  -5.4689  -5.4589  -5.4340  -5.4182
    -5.3908  -5.3809  -5.3523  -5.3341  -5.3258  -5.2339  -5.1781  -5.0678
    -3.7062  -3.6867  -3.6735  -3.6420  -3.6378  -3.5939  -3.5469  -3.5321
    -3.5129  -3.4772  -3.4755  -3.4596  -3.4512  -3.4348  -3.4196  -3.3832
    -3.3294  -3.3189  -3.2928  -3.2895  -3.2837  -3.2721  -3.2590  -3.2180
    -3.2142  -3.1790  -3.1733  -3.1709  -3.1615  -3.1447  -3.1439  -3.1048
    -3.1029  -3.0918  -3.0844  -3.0833  -3.0661  -3.0163  -3.0145  -3.0135
    -2.9384  -2.9212  -2.9210  -2.8973  -2.8951  -2.8895  -2.8240  -2.7751
    -2.7557  -2.7381  -2.7091  -2.6739  -2.6723  -2.6516  -2.6357  -2.6303
    -2.6241  -2.6032  -2.6021  -2.5965  -2.5874  -2.5825  -2.5708  -2.5366
    -2.5277  -2.5005  -2.4570  -2.4454  -2.4257  -2.4225  -2.4183  -2.4111
    -2.3898  -2.3874  -2.3747  -2.3742  -2.3724  -2.3686  -2.3490  -2.3487
    -2.2657  -2.2529  -2.2445  -2.2037  -2.1778  -2.1615  -2.1542  -2.1343
    -2.0894  -2.0811  -2.0735  -2.0414  -2.0041  -1.9895  -1.9559  -1.9373
    -1.9321  -1.9181  -1.7458  -1.7323  -1.7139  -1.7129  -1.7085  -1.7064
    -1.5721  -1.5623  -1.5081  -1.5032   0.5102   0.5176   0.6422   0.6480
     0.6787   0.6878   0.7218   0.7286   0.8575   0.8710   0.8730   0.8862
     0.9157   0.9240   1.0570   1.0668   1.0686   1.0779   1.0845   1.0915
     1.2078   1.2111   1.2219   1.2326   1.2441   1.2522   1.2564   1.2683
     1.2935   1.3186   1.3200   1.3632   1.3963   1.4087   1.4174   1.4252
     1.4301   1.4418   1.4583   1.4690   1.4752   1.4809   1.4810   1.4964
     1.6295   1.6547   1.6576   1.6736   1.7711   1.7954   1.8006   1.8133
     1.8353   1.8622   1.8879   1.8972   1.9153   1.9213   1.9236   1.9305
     2.0619   2.0693   2.0699   2.0777

          k = 0.2500-0.2156 0.0000 (281523 PWs)   bands (ev):

   -53.7594 -53.7594 -53.7593 -53.7593 -53.7593 -53.7593 -53.7593 -53.7593
   -53.7593 -53.7593 -53.7593 -53.7593 -53.7592 -53.7592 -53.7592 -53.7592
   -53.7592 -53.7592 -53.7591 -53.7591 -53.7591 -53.7591 -53.7590 -53.7590
   -53.7589 -53.7589 -53.7589 -53.7589 -53.7589 -53.7589 -53.7589 -53.7589
   -53.7589 -53.7589 -53.7589 -53.7589 -53.6999 -53.6999 -53.6999 -53.6999
   -53.6999 -53.6999 -53.6999 -53.6999 -53.6999 -53.6999 -53.6999 -53.6999
   -53.6998 -53.6998 -53.6998 -53.6998 -53.6998 -53.6997 -53.6997 -53.6997
   -53.6997 -53.6997 -53.6997 -53.6997 -53.6996 -53.6996 -53.6996 -53.6996
   -53.6996 -53.6996 -53.6996 -53.6996 -53.6995 -53.6995 -53.6995 -53.6995
   -53.6155 -53.6154 -53.6154 -53.6154 -53.6154 -53.6154 -53.6154 -53.6154
   -53.6154 -53.6154 -53.6154 -53.6154 -53.6153 -53.6153 -53.6153 -53.6153
   -53.6153 -53.6153 -53.6153 -53.6153 -53.6153 -53.6153 -53.6153 -53.6153
   -53.6152 -53.6152 -53.6152 -53.6152 -53.6152 -53.6152 -53.6152 -53.6152
   -53.6152 -53.6152 -53.6152 -53.6152 -53.5032 -53.5032 -53.5032 -53.5032
   -53.5031 -53.5031 -53.5031 -53.5030 -53.5030 -53.5030 -53.5030 -53.5030
   -53.5030 -53.5030 -53.5030 -53.5029 -53.5029 -53.5029 -53.5029 -53.5029
   -53.5029 -53.5028 -53.5028 -53.5028 -53.5027 -53.5027 -53.5027 -53.5027
   -53.5027 -53.5026 -53.5026 -53.5026 -53.5026 -53.5026 -53.5026 -53.5025
   -53.4264 -53.4264 -53.4264 -53.4264 -53.4264 -53.4264 -53.4264 -53.4264
   -53.4264 -53.4264 -53.4264 -53.4264 -53.4264 -53.4264 -53.4264 -53.4264
   -53.4264 -53.4264 -53.4264 -53.4264 -53.4264 -53.4264 -53.4263 -53.4263
   -53.4263 -53.4263 -53.4263 -53.4263 -53.4263 -53.4263 -53.4263 -53.4263
   -53.4263 -53.4263 -53.4263 -53.4263 -53.3484 -53.3483 -53.3483 -53.3483
   -53.3483 -53.3483 -53.3483 -53.3483 -53.3483 -53.3483 -53.3482 -53.3482
   -53.3482 -53.3482 -53.3482 -53.3482 -53.3482 -53.3482 -53.3482 -53.3482
   -53.3482 -53.3482 -53.3482 -53.3482 -53.3482 -53.3481 -53.3481 -53.3481
   -53.3481 -53.3481 -53.3481 -53.3481 -53.3480 -53.3480 -53.3480 -53.3480
   -52.9076 -52.9076 -52.9075 -52.9075 -52.9075 -52.9075 -52.9075 -52.9075
   -52.9074 -52.9074 -52.9074 -52.9074 -52.9072 -52.9072 -52.9072 -52.9071
   -52.9071 -52.9071 -52.9070 -52.9070 -52.9070 -52.9069 -52.9069 -52.9069
   -52.9067 -52.9067 -52.9067 -52.9067 -52.9066 -52.9066 -52.9066 -52.9066
   -52.9065 -52.9065 -52.9065 -52.9065 -52.8483 -52.8483 -52.8483 -52.8483
   -52.8483 -52.8483 -52.8480 -52.8480 -52.8480 -52.8480 -52.8480 -52.8480
   -52.8478 -52.8478 -52.8478 -52.8477 -52.8477 -52.8477 -52.8472 -52.8472
   -52.8472 -52.8472 -52.8472 -52.8471 -52.8469 -52.8469 -52.8469 -52.8469
   -52.8469 -52.8469 -52.8466 -52.8466 -52.8466 -52.8466 -52.8466 -52.8466
   -52.7596 -52.7596 -52.7596 -52.7595 -52.7595 -52.7595 -52.7594 -52.7594
   -52.7594 -52.7593 -52.7593 -52.7593 -52.7593 -52.7593 -52.7593 -52.7592
   -52.7592 -52.7592 -52.7589 -52.7589 -52.7589 -52.7588 -52.7588 -52.7588
   -52.7588 -52.7588 -52.7588 -52.7587 -52.7587 -52.7587 -52.7586 -52.7586
   -52.7586 -52.7585 -52.7585 -52.7585 -52.6892 -52.6892 -52.6891 -52.6891
   -52.6890 -52.6890 -52.6890 -52.6890 -52.6890 -52.6889 -52.6889 -52.6889
   -52.6889 -52.6889 -52.6889 -52.6889 -52.6889 -52.6888 -52.6888 -52.6888
   -52.6888 -52.6888 -52.6887 -52.6887 -52.6886 -52.6886 -52.6886 -52.6886
   -52.6886 -52.6885 -52.6885 -52.6885 -52.6885 -52.6885 -52.6885 -52.6884
   -52.6173 -52.6173 -52.6173 -52.6173 -52.6173 -52.6172 -52.6172 -52.6172
   -52.6172 -52.6172 -52.6172 -52.6172 -52.6172 -52.6172 -52.6172 -52.6172
   -52.6172 -52.6172 -52.6171 -52.6171 -52.6171 -52.6171 -52.6171 -52.6171
   -52.6171 -52.6171 -52.6171 -52.6171 -52.6171 -52.6171 -52.6171 -52.6171
   -52.6171 -52.6170 -52.6170 -52.6170 -52.5825 -52.5825 -52.5824 -52.5824
   -52.5823 -52.5822 -52.5822 -52.5822 -52.5822 -52.5821 -52.5821 -52.5821
   -52.5820 -52.5820 -52.5820 -52.5820 -52.5819 -52.5819 -52.5818 -52.5818
   -52.5818 -52.5818 -52.5817 -52.5817 -52.5817 -52.5817 -52.5815 -52.5815
   -52.5815 -52.5815 -52.5814 -52.5814 -52.5813 -52.5813 -52.5812 -52.5812
   -52.5396 -52.5396 -52.5395 -52.5395 -52.5395 -52.5395 -52.5395 -52.5395
   -52.5395 -52.5395 -52.5395 -52.5395 -52.5394 -52.5394 -52.5394 -52.5394
   -52.5394 -52.5393 -52.5393 -52.5393 -52.5393 -52.5393 -52.5393 -52.5393
   -52.5392 -52.5392 -52.5392 -52.5392 -52.5392 -52.5392 -52.5392 -52.5392
   -52.5391 -52.5391 -52.5391 -52.5391 -52.5021 -52.5021 -52.5020 -52.5020
   -52.5020 -52.5020 -52.5020 -52.5020 -52.5020 -52.5020 -52.5020 -52.5020
   -52.5020 -52.5020 -52.5020 -52.5020 -52.5020 -52.5020 -52.5020 -52.5020
   -52.5020 -52.5020 -52.5019 -52.5019 -52.5019 -52.5019 -52.5019 -52.5019
   -52.5019 -52.5019 -52.5019 -52.5019 -52.5019 -52.5019 -52.5019 -52.5018
   -52.4218 -52.4218 -52.4218 -52.4218 -52.4218 -52.4218 -52.4217 -52.4217
   -52.4217 -52.4217 -52.4217 -52.4217 -52.4216 -52.4216 -52.4216 -52.4216
   -52.4216 -52.4216 -52.4216 -52.4216 -52.4216 -52.4216 -52.4216 -52.4216
   -52.4216 -52.4216 -52.4216 -52.4216 -52.4216 -52.4216 -52.4215 -52.4215
   -52.4215 -52.4215 -52.4215 -52.4215 -20.4315 -20.4308 -20.2929 -20.2921
   -20.1866 -20.1845 -20.1286 -20.1277 -20.1048 -20.1038 -20.0553 -20.0546
   -20.0542 -20.0522 -20.0104 -20.0093 -19.8978 -19.8951 -19.8765 -19.8736
   -19.8284 -19.8255 -19.7869 -19.7838 -19.7069 -19.7036 -19.5909 -19.5873
   -19.4512 -19.4470 -19.4380 -19.4338 -19.3904 -19.3860 -19.3590 -19.3544
   -19.0102 -19.0063 -18.9132 -18.9090 -18.8085 -18.8035 -18.7870 -18.7820
   -18.7635 -18.7582 -18.7306 -18.7252 -18.1480 -18.1443 -18.0982 -18.0941
   -18.0420 -18.0407 -18.0375 -18.0363 -18.0173 -18.0128 -18.0097 -18.0051
   -17.2832 -17.2814 -17.2593 -17.2577 -17.2468 -17.2446 -17.2437 -17.2418
   -17.1978 -17.1959 -17.1749 -17.1729 -16.4458 -16.4423 -16.4340 -16.4307
   -16.3636 -16.3605 -16.3505 -16.3476 -16.2536 -16.2514 -16.1670 -16.1656
   -15.9026 -15.8960 -15.8368 -15.8305 -15.7817 -15.7755 -15.7314 -15.7254
   -15.5638 -15.5602 -15.5251 -15.5196 -15.4725 -15.4689 -15.4230 -15.4195
   -15.3509 -15.3475 -15.3218 -15.3171 -15.0790 -15.0757 -14.7936 -14.7905
   -10.5093 -10.4844 -10.4343 -10.4060 -10.3814 -10.3795 -10.3576 -10.3512
   -10.1647 -10.1113 -10.0971 -10.0789 -10.0624 -10.0619 -10.0294 -10.0152
    -9.9920  -9.9658  -9.9594  -9.9587  -9.9423  -9.9007  -9.8963  -9.8836
    -9.8775  -9.8695  -9.8443  -9.8350  -9.8147  -9.7986  -9.7826  -9.7704
    -9.7165  -9.7038  -9.6987  -9.6904  -9.6793  -9.6714  -9.6678  -9.6608
    -9.6360  -9.6321  -9.6306  -9.6147  -9.6052  -9.6026  -9.5819  -9.5332
    -9.5316  -9.5223  -9.4934  -9.4762  -9.4572  -9.4330  -9.3836  -9.3722
    -9.3370  -9.3065  -9.2700  -9.2575  -9.2509  -9.2383  -9.2020  -9.1535
    -9.1497  -9.1482  -9.0838  -9.0759  -8.9949  -8.9935  -8.9465  -8.9451
    -8.8891  -8.8635  -8.8522  -8.8233  -8.8133  -8.7993  -8.5732  -8.5596
    -8.5573  -8.5378  -8.5185  -8.4967  -8.4739  -8.4594  -8.4455  -8.3990
    -8.3713  -8.3704  -8.3324  -8.3149  -8.2864  -8.2669  -8.2643  -8.2520
    -8.2213  -8.2051  -8.1975  -8.1964  -8.1925  -8.1540  -8.1487  -8.1394
    -8.1139  -8.0707  -8.0459  -7.9875  -7.7401  -7.6171  -7.5263  -7.5226
    -7.4545  -7.4340  -7.4131  -7.3398  -7.3300  -7.2912  -7.2327  -7.2251
    -7.1789  -7.1732  -7.1537  -7.0594  -7.0082  -7.0036  -6.9994  -6.9689
    -6.9588  -6.9569  -6.9430  -6.9128  -6.9020  -6.8976  -6.8284  -6.8069
    -6.7612  -6.7535  -6.7292  -6.7228  -6.7017  -6.6488  -6.6385  -6.6122
    -6.5766  -6.5555  -6.5516  -6.5481  -6.5436  -6.5407  -6.5378  -6.4979
    -6.4881  -6.4791  -6.4765  -6.4545  -6.4473  -6.4391  -6.4252  -6.4072
    -6.3917  -6.3799  -6.3742  -6.3645  -6.3534  -6.3435  -6.3061  -6.2982
    -6.2947  -6.2870  -6.2492  -6.1927  -6.1901  -6.1445  -6.1353  -6.1209
    -6.1135  -6.1106  -6.1043  -6.0564  -6.0528  -6.0289  -6.0233  -6.0017
    -5.9962  -5.9526  -5.9312  -5.8861  -5.8731  -5.8656  -5.8007  -5.7891
    -5.7498  -5.7371  -5.7199  -5.6836  -5.6625  -5.6297  -5.6201  -5.6003
    -5.5993  -5.5518  -5.5357  -5.5077  -5.4689  -5.4589  -5.4340  -5.4182
    -5.3908  -5.3810  -5.3523  -5.3341  -5.3258  -5.2339  -5.1781  -5.0678
    -3.7062  -3.6867  -3.6735  -3.6420  -3.6378  -3.5938  -3.5469  -3.5321
    -3.5129  -3.4772  -3.4755  -3.4596  -3.4512  -3.4348  -3.4196  -3.3832
    -3.3294  -3.3189  -3.2928  -3.2895  -3.2837  -3.2721  -3.2590  -3.2180
    -3.2142  -3.1790  -3.1733  -3.1709  -3.1615  -3.1447  -3.1439  -3.1048
    -3.1029  -3.0918  -3.0844  -3.0833  -3.0661  -3.0163  -3.0145  -3.0135
    -2.9384  -2.9212  -2.9210  -2.8973  -2.8951  -2.8894  -2.8240  -2.7751
    -2.7557  -2.7381  -2.7091  -2.6739  -2.6723  -2.6516  -2.6357  -2.6303
    -2.6240  -2.6032  -2.6021  -2.5965  -2.5874  -2.5825  -2.5708  -2.5365
    -2.5277  -2.5005  -2.4570  -2.4453  -2.4257  -2.4225  -2.4183  -2.4111
    -2.3898  -2.3874  -2.3747  -2.3742  -2.3724  -2.3685  -2.3490  -2.3488
    -2.2657  -2.2529  -2.2445  -2.2036  -2.1778  -2.1616  -2.1542  -2.1343
    -2.0894  -2.0811  -2.0735  -2.0415  -2.0040  -1.9895  -1.9559  -1.9373
    -1.9321  -1.9181  -1.7458  -1.7323  -1.7139  -1.7129  -1.7085  -1.7064
    -1.5721  -1.5623  -1.5081  -1.5032   0.5102   0.5176   0.6422   0.6480
     0.6787   0.6878   0.7218   0.7286   0.8575   0.8710   0.8730   0.8862
     0.9157   0.9240   1.0570   1.0668   1.0686   1.0779   1.0844   1.0915
     1.2078   1.2112   1.2219   1.2325   1.2441   1.2522   1.2564   1.2683
     1.2935   1.3186   1.3200   1.3632   1.3963   1.4087   1.4175   1.4252
     1.4301   1.4418   1.4583   1.4690   1.4752   1.4809   1.4810   1.4963
     1.6295   1.6548   1.6576   1.6736   1.7711   1.7954   1.8006   1.8133
     1.8353   1.8622   1.8879   1.8972   1.9153   1.9213   1.9236   1.9305
     2.0619   2.0693   2.0699   2.0777

     the Fermi energy is    -4.4101 ev

!    total energy              =  -13091.52764531 Ry
     estimated scf accuracy    <          6.2E-10 Ry
     smearing contrib. (-TS)   =      -0.00003980 Ry
     internal energy E=F+TS    =  -13091.52760551 Ry

     The total energy is F=E-TS. E is the sum of the following terms:
     one-electron contribution =  -60174.42058584 Ry
     hartree contribution      =   29817.93030466 Ry
     xc contribution           =   -2610.77652579 Ry
     ewald contribution        =   19876.26082025 Ry
     DFT-D3 Dispersion         =      -0.52161880 Ry

     convergence has been achieved in  15 iterations

     Forces acting on atoms (cartesian axes, Ry/au):

     atom    1 type  1   force =     0.00011232    0.00001291    0.00125592
     atom    2 type  1   force =    -0.00020107   -0.00057380   -0.00085187
     atom    3 type  1   force =     0.00009133   -0.00058305    0.00149768
     atom    4 type  1   force =     0.00009258    0.00057045   -0.00149273
     atom    5 type  1   force =    -0.00020379    0.00058123    0.00084983
     atom    6 type  1   force =     0.00011508   -0.00004848   -0.00125398
     atom    7 type  1   force =     0.00011245    0.00001289    0.00125595
     atom    8 type  1   force =    -0.00020098   -0.00057383   -0.00085193
     atom    9 type  1   force =     0.00009153   -0.00058317    0.00149776
     atom   10 type  1   force =     0.00009262    0.00057021   -0.00149274
     atom   11 type  1   force =    -0.00020357    0.00058117    0.00084988
     atom   12 type  1   force =     0.00011507   -0.00004858   -0.00125390
     atom   13 type  1   force =     0.00011235    0.00001291    0.00125605
     atom   14 type  1   force =    -0.00020121   -0.00057406   -0.00085187
     atom   15 type  1   force =     0.00009132   -0.00058306    0.00149776
     atom   16 type  1   force =     0.00009273    0.00057023   -0.00149268
     atom   17 type  1   force =    -0.00020375    0.00058120    0.00084996
     atom   18 type  1   force =     0.00011499   -0.00004864   -0.00125396
     atom   19 type  1   force =     0.00011647    0.00006094    0.00125138
     atom   20 type  1   force =    -0.00020481   -0.00057177   -0.00085354
     atom   21 type  1   force =     0.00008920   -0.00060820    0.00150162
     atom   22 type  1   force =     0.00009179    0.00057764   -0.00149533
     atom   23 type  1   force =    -0.00020248    0.00055971    0.00084782
     atom   24 type  1   force =     0.00011046   -0.00001035   -0.00125739
     atom   25 type  1   force =     0.00011661    0.00006093    0.00125137
     atom   26 type  1   force =    -0.00020473   -0.00057169   -0.00085363
     atom   27 type  1   force =     0.00008936   -0.00060828    0.00150168
     atom   28 type  1   force =     0.00009186    0.00057731   -0.00149528
     atom   29 type  1   force =    -0.00020227    0.00055972    0.00084783
     atom   30 type  1   force =     0.00011044   -0.00001036   -0.00125738
     atom   31 type  1   force =     0.00011652    0.00006090    0.00125150
     atom   32 type  1   force =    -0.00020498   -0.00057197   -0.00085358
     atom   33 type  1   force =     0.00008919   -0.00060819    0.00150166
     atom   34 type  1   force =     0.00009193    0.00057731   -0.00149528
     atom   35 type  1   force =    -0.00020242    0.00055969    0.00084793
     atom   36 type  1   force =     0.00011037   -0.00001043   -0.00125740
     atom   37 type  1   force =     0.00011208    0.00003199    0.00125335
     atom   38 type  1   force =    -0.00020631   -0.00054429   -0.00085277
     atom   39 type  1   force =     0.00009099   -0.00056261    0.00149883
     atom   40 type  1   force =     0.00009110    0.00061211   -0.00149601
     atom   41 type  1   force =    -0.00020779    0.00054858    0.00085005
     atom   42 type  1   force =     0.00011226   -0.00005184   -0.00125331
     atom   43 type  1   force =     0.00011224    0.00003201    0.00125331
     atom   44 type  1   force =    -0.00020625   -0.00054430   -0.00085283
     atom   45 type  1   force =     0.00009109   -0.00056278    0.00149888
     atom   46 type  1   force =     0.00009114    0.00061180   -0.00149601
     atom   47 type  1   force =    -0.00020755    0.00054855    0.00085014
     atom   48 type  1   force =     0.00011221   -0.00005191   -0.00125323
     atom   49 type  1   force =     0.00011215    0.00003202    0.00125345
     atom   50 type  1   force =    -0.00020645   -0.00054456   -0.00085278
     atom   51 type  1   force =     0.00009093   -0.00056265    0.00149890
     atom   52 type  1   force =     0.00009121    0.00061185   -0.00149597
     atom   53 type  1   force =    -0.00020772    0.00054855    0.00085019
     atom   54 type  1   force =     0.00011218   -0.00005197   -0.00125329

     Total force =     0.009734     Total SCF correction =     0.000064


     Computing stress (Cartesian axis) and pressure

          total   stress  (Ry/bohr**3)                   (kbar)     P=       -0.60
  -0.00001932   0.00000000   0.00000000           -2.84        0.00        0.00
   0.00000000  -0.00000313  -0.00000067            0.00       -0.46       -0.10
   0.00000000  -0.00000067   0.00001014            0.00       -0.10        1.49


     BFGS Geometry Optimization
     Energy error            =      3.2E-04 Ry
     Gradient error          =      1.5E-03 Ry/Bohr
     Cell gradient error     =      2.8E+00 kbar

     number of scf cycles    =   1
     number of bfgs steps    =   0

     enthalpy           new  =  -13091.5276453100 Ry

     new trust radius        =       0.0147497386 bohr
     new conv_thr            =       0.0000000010 Ry

     new unit-cell volume =  23289.31434 a.u.^3 (  3451.12033 Ang^3 )
     density =      2.05187 g/cm^3

CELL_PARAMETERS (angstrom)
  13.042768229   0.000000390   0.000000000
   0.000000452  15.132295840   0.000000000
   0.000000000   0.000000000  17.485799789

ATOMIC_POSITIONS (angstrom)
Se               1.6501510130        1.6836220322        3.7840446432
Se               3.8826290801        1.6672402506        7.4131299161
Se               3.1628116769        3.3586528429        2.8904923972
Se               0.9890995038        3.3669155336        6.5950758122
Se               1.7087592318        0.0140960171        2.0730408514
Se               3.8238522118       -0.0021009138        5.7020174701
Se               5.9977388134        1.6836240156        3.7840424578
Se               8.2302142918        1.6672395445        7.4131225688
Se               7.5103968732        3.3586544518        2.8904858684
Se               5.3366950451        3.3669179296        6.5950757848
Se               6.0563418828        0.0140972663        2.0730388312
Se               8.1714390520       -0.0021009810        5.7020089491
Se              10.3453315124        1.6836219118        3.7840356918
Se              12.5777990495        1.6672392874        7.4131248448
Se              11.8579934425        3.3586525499        2.8904858424
Se               9.6842800616        3.3669173844        6.5950685414
Se              10.4039407679        0.0140951328        2.0730332248
Se              12.5190285888       -0.0021019385        5.7020117661
Se               1.6499498644        6.7275240607        3.7839739353
Se               3.8824316358        6.7112112022        7.4126141202
Se               3.1625115383        8.4029483747        2.8906836410
Se               0.9888507703        8.4109334596        6.5946743730
Se               1.7087644327        5.0584205870        2.0726160033
Se               3.8239101292        5.0417871145        5.7015068173
Se               5.9975376366        6.7275260982        3.7839716884
Se               8.2300170222        6.7112105802        7.4126067026
Se               7.5100967167        8.4029499712        2.8906771596
Se               5.3364463227        8.4109356469        6.5946744621
Se               6.0563471007        5.0584218330        2.0726139302
Se               8.1714970417        5.0417869348        5.7014981756
Se              10.3451305524        6.7275239655        3.7839648491
Se              12.5776019475        6.7112102186        7.4126090325
Se              11.8576933380        8.4029480771        2.8906770368
Se               9.6840313351        8.4109352069        6.5946673141
Se              10.4039459912        5.0584196122        2.0726082356
Se              12.5190866529        5.0417858838        5.7015011863
Se               1.6499160375       11.7718082215        3.7845761406
Se               3.8823476937       11.7549459616        7.4129757040
Se               3.1627760949       13.4467208053        2.8911481476
Se               0.9887795065       13.4548018488        6.5953865335
Se               1.7085080335       10.1027961602        2.0730518173
Se               3.8236619287       10.0860548685        5.7013788581
Se               5.9975036666       11.7718102364        3.7845738081
Se               8.2299330375       11.7549452544        7.4129684950
Se               7.5103611594       13.4467223601        2.8911416669
Se               5.3363752571       13.4548043716        6.5953868045
Se               6.0560906631       10.1027973891        2.0730498023
Se               8.1712489224       10.0860548926        5.7013702170
Se              10.3450966116       11.7718080857        3.7845671024
Se              12.5775178101       11.7549448080        7.4129706046
Se              11.8579578526       13.4467204474        2.8911415477
Se               9.6839602532       13.4548036821        6.5953796515
Se              10.4036896906       10.1027953956        2.0730440322
Se              12.5188385187       10.0860537705        5.7013729265



     Writing config-only to output data dir ./pwscf.save/ :
     XML data file     NEW-OLD atomic charge density approx. for the potential
     New effective cutoffs (rho, wfc):  320.30   80.07

     negative rho (up, down):  1.577E-07 0.000E+00

     total cpu time spent up to now is    10322.2 secs

     per-process dynamical memory:  1110.9 Mb

     Self-consistent Calculation

     iteration #  1     ecut=    80.00 Ry     beta= 0.20
     Davidson diagonalization with overlap
     ethr =  1.00E-06,  avg # of iterations =  3.0

     Threshold (ethr) on eigenvalues was too large:
     Diagonalizing with lowered threshold

     Davidson diagonalization with overlap
     ethr =  1.66E-09,  avg # of iterations = 12.0

     negative rho (up, down):  7.633E-08 0.000E+00

     total cpu time spent up to now is    12151.4 secs

     total energy              =  -13091.52795408 Ry
     estimated scf accuracy    <       0.00000319 Ry

     iteration #  2     ecut=    80.00 Ry     beta= 0.20
     Davidson diagonalization with overlap
     ethr =  3.69E-10,  avg # of iterations =  6.0

     negative rho (up, down):  2.767E-08 0.000E+00

     total cpu time spent up to now is    12671.6 secs

     total energy              =  -13091.52795431 Ry
     estimated scf accuracy    <       0.00000129 Ry

     iteration #  3     ecut=    80.00 Ry     beta= 0.20
     Davidson diagonalization with overlap
     ethr =  1.49E-10,  avg # of iterations =  2.0

     total cpu time spent up to now is    13118.1 secs

     total energy              =  -13091.52795426 Ry
     estimated scf accuracy    <       0.00000062 Ry

     iteration #  4     ecut=    80.00 Ry     beta= 0.20
     Davidson diagonalization with overlap
     ethr =  7.19E-11,  avg # of iterations =  9.0

     total cpu time spent up to now is    13690.0 secs

     total energy              =  -13091.52795433 Ry
     estimated scf accuracy    <       0.00000006 Ry

     iteration #  5     ecut=    80.00 Ry     beta= 0.20
     Davidson diagonalization with overlap
     ethr =  6.58E-12,  avg # of iterations = 18.5

     total cpu time spent up to now is    14291.5 secs

     total energy              =  -13091.52795435 Ry
     estimated scf accuracy    <       0.00000002 Ry

     iteration #  6     ecut=    80.00 Ry     beta= 0.20
     Davidson diagonalization with overlap
     ethr =  2.17E-12,  avg # of iterations = 11.0

     total cpu time spent up to now is    14829.4 secs

     total energy              =  -13091.52795435 Ry
     estimated scf accuracy    <          2.9E-09 Ry

     iteration #  7     ecut=    80.00 Ry     beta= 0.20
     Davidson diagonalization with overlap
     ethr =  3.38E-13,  avg # of iterations = 18.0

     total cpu time spent up to now is    15399.0 secs

     total energy              =  -13091.52795435 Ry
     estimated scf accuracy    <          1.3E-09 Ry

     iteration #  8     ecut=    80.00 Ry     beta= 0.20
     Davidson diagonalization with overlap
     ethr =  1.54E-13,  avg # of iterations = 10.0

     total cpu time spent up to now is    15959.1 secs

     End of self-consistent calculation

          k = 0.2501 0.2156 0.0000 (281523 PWs)   bands (ev):

   -53.7602 -53.7602 -53.7602 -53.7602 -53.7602 -53.7602 -53.7601 -53.7601
   -53.7601 -53.7601 -53.7601 -53.7601 -53.7600 -53.7600 -53.7600 -53.7600
   -53.7600 -53.7600 -53.7599 -53.7599 -53.7599 -53.7599 -53.7599 -53.7599
   -53.7598 -53.7598 -53.7598 -53.7598 -53.7598 -53.7598 -53.7597 -53.7597
   -53.7597 -53.7597 -53.7597 -53.7597 -53.7003 -53.7003 -53.7003 -53.7003
   -53.7003 -53.7003 -53.7002 -53.7002 -53.7002 -53.7002 -53.7002 -53.7002
   -53.7002 -53.7001 -53.7001 -53.7001 -53.7001 -53.7001 -53.7001 -53.7001
   -53.7001 -53.7000 -53.7000 -53.7000 -53.7000 -53.7000 -53.7000 -53.6999
   -53.6999 -53.6999 -53.6999 -53.6999 -53.6999 -53.6999 -53.6999 -53.6999
   -53.6148 -53.6148 -53.6148 -53.6148 -53.6148 -53.6148 -53.6148 -53.6148
   -53.6148 -53.6148 -53.6148 -53.6148 -53.6147 -53.6147 -53.6147 -53.6147
   -53.6147 -53.6147 -53.6147 -53.6147 -53.6147 -53.6147 -53.6147 -53.6147
   -53.6146 -53.6146 -53.6146 -53.6146 -53.6146 -53.6146 -53.6146 -53.6146
   -53.6146 -53.6146 -53.6146 -53.6146 -53.5042 -53.5042 -53.5042 -53.5042
   -53.5041 -53.5041 -53.5040 -53.5040 -53.5040 -53.5040 -53.5040 -53.5040
   -53.5040 -53.5040 -53.5039 -53.5039 -53.5039 -53.5039 -53.5039 -53.5039
   -53.5038 -53.5038 -53.5038 -53.5038 -53.5037 -53.5037 -53.5037 -53.5037
   -53.5037 -53.5036 -53.5036 -53.5036 -53.5036 -53.5036 -53.5035 -53.5035
   -53.4268 -53.4268 -53.4268 -53.4268 -53.4268 -53.4268 -53.4268 -53.4268
   -53.4268 -53.4268 -53.4268 -53.4268 -53.4268 -53.4268 -53.4268 -53.4268
   -53.4268 -53.4268 -53.4268 -53.4268 -53.4268 -53.4268 -53.4268 -53.4268
   -53.4268 -53.4268 -53.4268 -53.4268 -53.4268 -53.4268 -53.4267 -53.4267
   -53.4267 -53.4267 -53.4267 -53.4267 -53.3477 -53.3477 -53.3477 -53.3477
   -53.3477 -53.3477 -53.3476 -53.3476 -53.3476 -53.3476 -53.3476 -53.3476
   -53.3476 -53.3476 -53.3475 -53.3475 -53.3475 -53.3475 -53.3475 -53.3475
   -53.3475 -53.3475 -53.3475 -53.3475 -53.3475 -53.3475 -53.3475 -53.3475
   -53.3475 -53.3475 -53.3474 -53.3474 -53.3474 -53.3474 -53.3474 -53.3474
   -52.9084 -52.9084 -52.9083 -52.9083 -52.9083 -52.9083 -52.9083 -52.9083
   -52.9082 -52.9082 -52.9082 -52.9082 -52.9080 -52.9080 -52.9080 -52.9080
   -52.9079 -52.9079 -52.9078 -52.9078 -52.9078 -52.9077 -52.9077 -52.9077
   -52.9075 -52.9075 -52.9075 -52.9075 -52.9075 -52.9075 -52.9074 -52.9074
   -52.9074 -52.9074 -52.9073 -52.9073 -52.8487 -52.8487 -52.8486 -52.8486
   -52.8486 -52.8486 -52.8484 -52.8484 -52.8484 -52.8483 -52.8483 -52.8483
   -52.8481 -52.8481 -52.8481 -52.8481 -52.8481 -52.8481 -52.8475 -52.8475
   -52.8475 -52.8475 -52.8475 -52.8475 -52.8473 -52.8473 -52.8472 -52.8472
   -52.8472 -52.8472 -52.8470 -52.8470 -52.8470 -52.8469 -52.8469 -52.8469
   -52.7590 -52.7590 -52.7590 -52.7589 -52.7589 -52.7589 -52.7588 -52.7588
   -52.7588 -52.7587 -52.7587 -52.7587 -52.7587 -52.7587 -52.7587 -52.7586
   -52.7586 -52.7586 -52.7583 -52.7583 -52.7583 -52.7583 -52.7582 -52.7582
   -52.7582 -52.7582 -52.7582 -52.7581 -52.7581 -52.7581 -52.7580 -52.7580
   -52.7580 -52.7580 -52.7580 -52.7579 -52.6902 -52.6901 -52.6901 -52.6901
   -52.6900 -52.6900 -52.6900 -52.6900 -52.6899 -52.6899 -52.6899 -52.6898
   -52.6898 -52.6898 -52.6898 -52.6898 -52.6898 -52.6898 -52.6898 -52.6898
   -52.6898 -52.6897 -52.6897 -52.6897 -52.6896 -52.6896 -52.6896 -52.6895
   -52.6895 -52.6895 -52.6895 -52.6895 -52.6895 -52.6894 -52.6894 -52.6894
   -52.6177 -52.6177 -52.6177 -52.6177 -52.6177 -52.6177 -52.6177 -52.6177
   -52.6176 -52.6176 -52.6176 -52.6176 -52.6176 -52.6176 -52.6176 -52.6176
   -52.6176 -52.6176 -52.6176 -52.6176 -52.6176 -52.6176 -52.6175 -52.6175
   -52.6175 -52.6175 -52.6175 -52.6175 -52.6175 -52.6175 -52.6175 -52.6175
   -52.6175 -52.6175 -52.6175 -52.6175 -52.5834 -52.5834 -52.5834 -52.5833
   -52.5832 -52.5832 -52.5832 -52.5831 -52.5831 -52.5831 -52.5830 -52.5830
   -52.5830 -52.5830 -52.5829 -52.5829 -52.5829 -52.5829 -52.5828 -52.5828
   -52.5828 -52.5828 -52.5827 -52.5826 -52.5826 -52.5826 -52.5825 -52.5825
   -52.5825 -52.5825 -52.5824 -52.5823 -52.5823 -52.5823 -52.5822 -52.5821
   -52.5390 -52.5389 -52.5389 -52.5389 -52.5389 -52.5389 -52.5389 -52.5389
   -52.5389 -52.5389 -52.5389 -52.5389 -52.5388 -52.5388 -52.5388 -52.5388
   -52.5388 -52.5387 -52.5387 -52.5387 -52.5387 -52.5387 -52.5387 -52.5387
   -52.5387 -52.5386 -52.5386 -52.5386 -52.5386 -52.5386 -52.5386 -52.5386
   -52.5386 -52.5386 -52.5386 -52.5385 -52.5025 -52.5025 -52.5024 -52.5024
   -52.5024 -52.5024 -52.5024 -52.5024 -52.5024 -52.5024 -52.5024 -52.5024
   -52.5024 -52.5024 -52.5024 -52.5024 -52.5024 -52.5024 -52.5024 -52.5024
   -52.5024 -52.5024 -52.5023 -52.5023 -52.5023 -52.5023 -52.5023 -52.5023
   -52.5023 -52.5023 -52.5023 -52.5023 -52.5023 -52.5023 -52.5023 -52.5023
   -52.4211 -52.4211 -52.4211 -52.4211 -52.4211 -52.4211 -52.4211 -52.4210
   -52.4210 -52.4210 -52.4210 -52.4210 -52.4210 -52.4210 -52.4210 -52.4210
   -52.4210 -52.4210 -52.4210 -52.4210 -52.4210 -52.4210 -52.4210 -52.4210
   -52.4210 -52.4210 -52.4210 -52.4209 -52.4209 -52.4209 -52.4209 -52.4209
   -52.4209 -52.4209 -52.4208 -52.4208 -20.4346 -20.4338 -20.2955 -20.2947
   -20.1895 -20.1874 -20.1305 -20.1295 -20.1067 -20.1057 -20.0570 -20.0569
   -20.0559 -20.0546 -20.0119 -20.0109 -19.8996 -19.8969 -19.8783 -19.8755
   -19.8300 -19.8270 -19.7884 -19.7853 -19.7095 -19.7062 -19.5931 -19.5894
   -19.4526 -19.4484 -19.4396 -19.4353 -19.3916 -19.3872 -19.3602 -19.3556
   -19.0127 -19.0088 -18.9154 -18.9111 -18.8099 -18.8049 -18.7886 -18.7837
   -18.7649 -18.7595 -18.7320 -18.7265 -18.1498 -18.1460 -18.0996 -18.0956
   -18.0431 -18.0418 -18.0386 -18.0374 -18.0183 -18.0138 -18.0107 -18.0061
   -17.2838 -17.2821 -17.2599 -17.2583 -17.2473 -17.2452 -17.2445 -17.2426
   -17.1985 -17.1966 -17.1757 -17.1737 -16.4466 -16.4431 -16.4346 -16.4314
   -16.3643 -16.3612 -16.3508 -16.3480 -16.2541 -16.2520 -16.1674 -16.1660
   -15.9032 -15.8965 -15.8373 -15.8309 -15.7820 -15.7757 -15.7317 -15.7257
   -15.5642 -15.5606 -15.5247 -15.5193 -15.4728 -15.4692 -15.4230 -15.4195
   -15.3511 -15.3477 -15.3210 -15.3163 -15.0782 -15.0748 -14.7921 -14.7889
   -10.5122 -10.4873 -10.4373 -10.4090 -10.3837 -10.3817 -10.3600 -10.3534
   -10.1677 -10.1142 -10.0994 -10.0814 -10.0647 -10.0640 -10.0313 -10.0176
    -9.9942  -9.9678  -9.9617  -9.9612  -9.9450  -9.9030  -9.8986  -9.8860
    -9.8804  -9.8721  -9.8469  -9.8372  -9.8161  -9.8022  -9.7839  -9.7739
    -9.7188  -9.7059  -9.7010  -9.6923  -9.6814  -9.6734  -9.6701  -9.6632
    -9.6384  -9.6339  -9.6326  -9.6168  -9.6075  -9.6046  -9.5831  -9.5345
    -9.5327  -9.5244  -9.4956  -9.4773  -9.4586  -9.4347  -9.3850  -9.3738
    -9.3389  -9.3077  -9.2718  -9.2586  -9.2527  -9.2400  -9.2038  -9.1545
    -9.1517  -9.1500  -9.0858  -9.0769  -8.9960  -8.9939  -8.9475  -8.9455
    -8.8904  -8.8642  -8.8523  -8.8234  -8.8146  -8.8001  -8.5737  -8.5594
    -8.5589  -8.5389  -8.5182  -8.4972  -8.4756  -8.4606  -8.4457  -8.3995
    -8.3717  -8.3715  -8.3331  -8.3146  -8.2875  -8.2665  -8.2657  -8.2523
    -8.2221  -8.2072  -8.1988  -8.1967  -8.1926  -8.1541  -8.1493  -8.1401
    -8.1158  -8.0712  -8.0474  -7.9887  -7.7413  -7.6184  -7.5271  -7.5231
    -7.4551  -7.4347  -7.4137  -7.3406  -7.3316  -7.2928  -7.2333  -7.2267
    -7.1804  -7.1738  -7.1548  -7.0606  -7.0095  -7.0041  -7.0003  -6.9702
    -6.9582  -6.9574  -6.9436  -6.9138  -6.9025  -6.8971  -6.8288  -6.8073
    -6.7615  -6.7540  -6.7289  -6.7235  -6.7014  -6.6495  -6.6392  -6.6133
    -6.5762  -6.5559  -6.5520  -6.5483  -6.5442  -6.5419  -6.5379  -6.4974
    -6.4893  -6.4796  -6.4770  -6.4548  -6.4474  -6.4383  -6.4264  -6.4081
    -6.3916  -6.3798  -6.3747  -6.3651  -6.3544  -6.3444  -6.3071  -6.2985
    -6.2944  -6.2860  -6.2502  -6.1936  -6.1910  -6.1448  -6.1361  -6.1216
    -6.1142  -6.1114  -6.1045  -6.0573  -6.0535  -6.0296  -6.0235  -6.0018
    -5.9962  -5.9530  -5.9311  -5.8858  -5.8731  -5.8660  -5.8005  -5.7890
    -5.7497  -5.7371  -5.7199  -5.6828  -5.6624  -5.6295  -5.6191  -5.5999
    -5.5991  -5.5518  -5.5351  -5.5071  -5.4686  -5.4581  -5.4339  -5.4180
    -5.3904  -5.3802  -5.3521  -5.3333  -5.3254  -5.2332  -5.1775  -5.0671
    -3.7056  -3.6860  -3.6731  -3.6414  -3.6366  -3.5927  -3.5462  -3.5310
    -3.5123  -3.4749  -3.4744  -3.4583  -3.4504  -3.4327  -3.4184  -3.3824
    -3.3274  -3.3181  -3.2919  -3.2885  -3.2827  -3.2701  -3.2580  -3.2175
    -3.2133  -3.1785  -3.1716  -3.1699  -3.1605  -3.1444  -3.1433  -3.1037
    -3.1013  -3.0911  -3.0841  -3.0828  -3.0655  -3.0153  -3.0139  -3.0129
    -2.9369  -2.9202  -2.9198  -2.8959  -2.8938  -2.8883  -2.8229  -2.7741
    -2.7546  -2.7368  -2.7062  -2.6718  -2.6696  -2.6495  -2.6346  -2.6277
    -2.6215  -2.6023  -2.6000  -2.5938  -2.5850  -2.5816  -2.5700  -2.5346
    -2.5256  -2.4988  -2.4558  -2.4442  -2.4250  -2.4210  -2.4170  -2.4099
    -2.3888  -2.3855  -2.3735  -2.3716  -2.3710  -2.3672  -2.3477  -2.3462
    -2.2657  -2.2528  -2.2434  -2.2020  -2.1762  -2.1602  -2.1525  -2.1328
    -2.0868  -2.0794  -2.0710  -2.0396  -2.0032  -1.9887  -1.9535  -1.9353
    -1.9297  -1.9162  -1.7438  -1.7304  -1.7114  -1.7111  -1.7056  -1.7049
    -1.5693  -1.5596  -1.5051  -1.5002   0.5097   0.5171   0.6428   0.6486
     0.6783   0.6874   0.7205   0.7273   0.8563   0.8699   0.8732   0.8863
     0.9148   0.9231   1.0564   1.0662   1.0686   1.0768   1.0844   1.0905
     1.2076   1.2114   1.2217   1.2325   1.2444   1.2522   1.2560   1.2678
     1.2928   1.3180   1.3204   1.3635   1.3958   1.4091   1.4170   1.4257
     1.4294   1.4411   1.4581   1.4695   1.4759   1.4809   1.4814   1.4972
     1.6302   1.6555   1.6572   1.6731   1.7702   1.7946   1.8010   1.8138
     1.8360   1.8629   1.8893   1.8986   1.9156   1.9217   1.9229   1.9297
     2.0614   2.0696   2.0705   2.0779

          k = 0.2501-0.2156 0.0000 (281523 PWs)   bands (ev):

   -53.7602 -53.7602 -53.7602 -53.7602 -53.7602 -53.7602 -53.7601 -53.7601
   -53.7601 -53.7601 -53.7601 -53.7601 -53.7600 -53.7600 -53.7600 -53.7600
   -53.7600 -53.7600 -53.7599 -53.7599 -53.7599 -53.7599 -53.7599 -53.7599
   -53.7598 -53.7598 -53.7598 -53.7598 -53.7598 -53.7598 -53.7597 -53.7597
   -53.7597 -53.7597 -53.7597 -53.7597 -53.7003 -53.7003 -53.7003 -53.7003
   -53.7003 -53.7003 -53.7002 -53.7002 -53.7002 -53.7002 -53.7002 -53.7002
   -53.7002 -53.7001 -53.7001 -53.7001 -53.7001 -53.7001 -53.7001 -53.7001
   -53.7000 -53.7000 -53.7000 -53.7000 -53.7000 -53.7000 -53.6999 -53.6999
   -53.6999 -53.6999 -53.6999 -53.6999 -53.6999 -53.6999 -53.6999 -53.6999
   -53.6148 -53.6148 -53.6148 -53.6148 -53.6148 -53.6148 -53.6148 -53.6148
   -53.6148 -53.6148 -53.6148 -53.6147 -53.6147 -53.6147 -53.6147 -53.6147
   -53.6147 -53.6147 -53.6147 -53.6147 -53.6147 -53.6147 -53.6147 -53.6147
   -53.6146 -53.6146 -53.6146 -53.6146 -53.6146 -53.6146 -53.6146 -53.6146
   -53.6146 -53.6146 -53.6146 -53.6146 -53.5042 -53.5042 -53.5042 -53.5042
   -53.5041 -53.5041 -53.5040 -53.5040 -53.5040 -53.5040 -53.5040 -53.5040
   -53.5040 -53.5040 -53.5039 -53.5039 -53.5039 -53.5039 -53.5039 -53.5039
   -53.5038 -53.5038 -53.5038 -53.5038 -53.5037 -53.5037 -53.5037 -53.5037
   -53.5037 -53.5036 -53.5036 -53.5036 -53.5036 -53.5036 -53.5035 -53.5035
   -53.4268 -53.4268 -53.4268 -53.4268 -53.4268 -53.4268 -53.4268 -53.4268
   -53.4268 -53.4268 -53.4268 -53.4268 -53.4268 -53.4268 -53.4268 -53.4268
   -53.4268 -53.4268 -53.4268 -53.4268 -53.4268 -53.4268 -53.4268 -53.4268
   -53.4268 -53.4268 -53.4268 -53.4268 -53.4268 -53.4268 -53.4267 -53.4267
   -53.4267 -53.4267 -53.4267 -53.4267 -53.3477 -53.3477 -53.3477 -53.3477
   -53.3477 -53.3477 -53.3476 -53.3476 -53.3476 -53.3476 -53.3476 -53.3476
   -53.3476 -53.3475 -53.3475 -53.3475 -53.3475 -53.3475 -53.3475 -53.3475
   -53.3475 -53.3475 -53.3475 -53.3475 -53.3475 -53.3475 -53.3475 -53.3475
   -53.3475 -53.3475 -53.3474 -53.3474 -53.3474 -53.3474 -53.3474 -53.3474
   -52.9084 -52.9084 -52.9083 -52.9083 -52.9083 -52.9083 -52.9083 -52.9083
   -52.9082 -52.9082 -52.9082 -52.9082 -52.9080 -52.9080 -52.9080 -52.9080
   -52.9079 -52.9079 -52.9078 -52.9078 -52.9078 -52.9077 -52.9077 -52.9077
   -52.9075 -52.9075 -52.9075 -52.9075 -52.9075 -52.9075 -52.9074 -52.9074
   -52.9074 -52.9074 -52.9073 -52.9073 -52.8487 -52.8487 -52.8487 -52.8486
   -52.8486 -52.8486 -52.8484 -52.8484 -52.8484 -52.8483 -52.8483 -52.8483
   -52.8481 -52.8481 -52.8481 -52.8481 -52.8481 -52.8481 -52.8475 -52.8475
   -52.8475 -52.8475 -52.8475 -52.8475 -52.8473 -52.8473 -52.8472 -52.8472
   -52.8472 -52.8472 -52.8470 -52.8470 -52.8470 -52.8469 -52.8469 -52.8469
   -52.7590 -52.7590 -52.7590 -52.7589 -52.7589 -52.7589 -52.7588 -52.7588
   -52.7588 -52.7587 -52.7587 -52.7587 -52.7587 -52.7587 -52.7587 -52.7586
   -52.7586 -52.7586 -52.7583 -52.7583 -52.7583 -52.7583 -52.7582 -52.7582
   -52.7582 -52.7582 -52.7582 -52.7581 -52.7581 -52.7581 -52.7580 -52.7580
   -52.7580 -52.7580 -52.7580 -52.7580 -52.6902 -52.6901 -52.6901 -52.6901
   -52.6900 -52.6900 -52.6900 -52.6900 -52.6899 -52.6899 -52.6899 -52.6898
   -52.6898 -52.6898 -52.6898 -52.6898 -52.6898 -52.6898 -52.6898 -52.6898
   -52.6898 -52.6897 -52.6897 -52.6897 -52.6896 -52.6896 -52.6896 -52.6895
   -52.6895 -52.6895 -52.6895 -52.6895 -52.6895 -52.6894 -52.6894 -52.6894
   -52.6177 -52.6177 -52.6177 -52.6177 -52.6177 -52.6177 -52.6177 -52.6177
   -52.6177 -52.6176 -52.6176 -52.6176 -52.6176 -52.6176 -52.6176 -52.6176
   -52.6176 -52.6176 -52.6176 -52.6176 -52.6176 -52.6176 -52.6176 -52.6175
   -52.6175 -52.6175 -52.6175 -52.6175 -52.6175 -52.6175 -52.6175 -52.6175
   -52.6175 -52.6175 -52.6175 -52.6175 -52.5834 -52.5834 -52.5834 -52.5833
   -52.5832 -52.5832 -52.5832 -52.5831 -52.5831 -52.5831 -52.5830 -52.5830
   -52.5830 -52.5829 -52.5829 -52.5829 -52.5829 -52.5829 -52.5828 -52.5828
   -52.5828 -52.5828 -52.5827 -52.5826 -52.5826 -52.5826 -52.5825 -52.5825
   -52.5825 -52.5825 -52.5824 -52.5823 -52.5823 -52.5823 -52.5822 -52.5821
   -52.5390 -52.5389 -52.5389 -52.5389 -52.5389 -52.5389 -52.5389 -52.5389
   -52.5389 -52.5389 -52.5389 -52.5389 -52.5388 -52.5388 -52.5388 -52.5388
   -52.5388 -52.5387 -52.5387 -52.5387 -52.5387 -52.5387 -52.5387 -52.5387
   -52.5386 -52.5386 -52.5386 -52.5386 -52.5386 -52.5386 -52.5386 -52.5386
   -52.5386 -52.5386 -52.5386 -52.5385 -52.5025 -52.5025 -52.5024 -52.5024
   -52.5024 -52.5024 -52.5024 -52.5024 -52.5024 -52.5024 -52.5024 -52.5024
   -52.5024 -52.5024 -52.5024 -52.5024 -52.5024 -52.5024 -52.5024 -52.5024
   -52.5024 -52.5024 -52.5024 -52.5023 -52.5023 -52.5023 -52.5023 -52.5023
   -52.5023 -52.5023 -52.5023 -52.5023 -52.5023 -52.5023 -52.5023 -52.5023
   -52.4211 -52.4211 -52.4211 -52.4211 -52.4211 -52.4211 -52.4211 -52.4210
   -52.4210 -52.4210 -52.4210 -52.4210 -52.4210 -52.4210 -52.4210 -52.4210
   -52.4210 -52.4210 -52.4210 -52.4210 -52.4210 -52.4210 -52.4210 -52.4210
   -52.4210 -52.4210 -52.4210 -52.4209 -52.4209 -52.4209 -52.4209 -52.4209
   -52.4209 -52.4209 -52.4208 -52.4208 -20.4346 -20.4338 -20.2955 -20.2947
   -20.1895 -20.1874 -20.1305 -20.1295 -20.1067 -20.1057 -20.0570 -20.0569
   -20.0559 -20.0546 -20.0119 -20.0109 -19.8996 -19.8969 -19.8783 -19.8755
   -19.8300 -19.8270 -19.7884 -19.7853 -19.7095 -19.7062 -19.5931 -19.5894
   -19.4526 -19.4484 -19.4396 -19.4353 -19.3916 -19.3872 -19.3602 -19.3556
   -19.0127 -19.0088 -18.9154 -18.9111 -18.8099 -18.8049 -18.7886 -18.7836
   -18.7649 -18.7595 -18.7320 -18.7265 -18.1498 -18.1460 -18.0996 -18.0956
   -18.0431 -18.0418 -18.0386 -18.0374 -18.0183 -18.0138 -18.0107 -18.0061
   -17.2838 -17.2820 -17.2600 -17.2583 -17.2473 -17.2452 -17.2445 -17.2426
   -17.1985 -17.1966 -17.1757 -17.1737 -16.4466 -16.4431 -16.4347 -16.4314
   -16.3643 -16.3612 -16.3508 -16.3480 -16.2541 -16.2520 -16.1674 -16.1660
   -15.9032 -15.8965 -15.8373 -15.8309 -15.7820 -15.7757 -15.7317 -15.7257
   -15.5642 -15.5606 -15.5247 -15.5193 -15.4728 -15.4692 -15.4230 -15.4195
   -15.3511 -15.3477 -15.3210 -15.3163 -15.0782 -15.0748 -14.7921 -14.7889
   -10.5122 -10.4872 -10.4373 -10.4090 -10.3837 -10.3817 -10.3600 -10.3534
   -10.1677 -10.1142 -10.0994 -10.0814 -10.0647 -10.0640 -10.0313 -10.0176
    -9.9942  -9.9678  -9.9617  -9.9612  -9.9450  -9.9030  -9.8987  -9.8860
    -9.8804  -9.8721  -9.8469  -9.8372  -9.8161  -9.8022  -9.7839  -9.7739
    -9.7188  -9.7059  -9.7010  -9.6923  -9.6814  -9.6734  -9.6701  -9.6632
    -9.6383  -9.6339  -9.6326  -9.6168  -9.6075  -9.6045  -9.5831  -9.5345
    -9.5327  -9.5244  -9.4956  -9.4773  -9.4586  -9.4347  -9.3850  -9.3738
    -9.3389  -9.3077  -9.2718  -9.2586  -9.2527  -9.2400  -9.2038  -9.1545
    -9.1517  -9.1500  -9.0858  -9.0769  -8.9959  -8.9939  -8.9474  -8.9455
    -8.8904  -8.8642  -8.8523  -8.8234  -8.8146  -8.8001  -8.5737  -8.5594
    -8.5589  -8.5389  -8.5182  -8.4972  -8.4756  -8.4605  -8.4457  -8.3995
    -8.3717  -8.3715  -8.3331  -8.3146  -8.2875  -8.2665  -8.2657  -8.2523
    -8.2221  -8.2072  -8.1988  -8.1967  -8.1926  -8.1541  -8.1493  -8.1401
    -8.1158  -8.0713  -8.0474  -7.9887  -7.7413  -7.6183  -7.5271  -7.5231
    -7.4551  -7.4347  -7.4137  -7.3406  -7.3316  -7.2928  -7.2333  -7.2267
    -7.1804  -7.1738  -7.1548  -7.0605  -7.0095  -7.0041  -7.0004  -6.9701
    -6.9583  -6.9574  -6.9436  -6.9139  -6.9025  -6.8971  -6.8288  -6.8073
    -6.7615  -6.7540  -6.7289  -6.7235  -6.7014  -6.6495  -6.6392  -6.6133
    -6.5762  -6.5559  -6.5520  -6.5483  -6.5443  -6.5419  -6.5379  -6.4974
    -6.4893  -6.4796  -6.4770  -6.4548  -6.4474  -6.4383  -6.4264  -6.4081
    -6.3916  -6.3798  -6.3747  -6.3651  -6.3544  -6.3444  -6.3071  -6.2985
    -6.2944  -6.2861  -6.2502  -6.1936  -6.1910  -6.1448  -6.1361  -6.1216
    -6.1142  -6.1114  -6.1045  -6.0573  -6.0535  -6.0296  -6.0235  -6.0017
    -5.9962  -5.9530  -5.9311  -5.8858  -5.8731  -5.8660  -5.8005  -5.7890
    -5.7497  -5.7371  -5.7199  -5.6827  -5.6624  -5.6296  -5.6191  -5.5999
    -5.5991  -5.5518  -5.5351  -5.5071  -5.4686  -5.4581  -5.4339  -5.4180
    -5.3904  -5.3802  -5.3521  -5.3333  -5.3254  -5.2332  -5.1774  -5.0671
    -3.7056  -3.6861  -3.6731  -3.6414  -3.6366  -3.5927  -3.5462  -3.5310
    -3.5123  -3.4749  -3.4743  -3.4583  -3.4504  -3.4327  -3.4184  -3.3824
    -3.3274  -3.3181  -3.2919  -3.2885  -3.2827  -3.2701  -3.2580  -3.2175
    -3.2133  -3.1785  -3.1716  -3.1699  -3.1605  -3.1444  -3.1433  -3.1037
    -3.1013  -3.0911  -3.0841  -3.0828  -3.0655  -3.0153  -3.0139  -3.0129
    -2.9370  -2.9202  -2.9198  -2.8959  -2.8939  -2.8883  -2.8229  -2.7741
    -2.7546  -2.7368  -2.7062  -2.6718  -2.6696  -2.6495  -2.6346  -2.6277
    -2.6215  -2.6023  -2.6000  -2.5938  -2.5850  -2.5816  -2.5700  -2.5346
    -2.5256  -2.4989  -2.4558  -2.4441  -2.4250  -2.4210  -2.4170  -2.4099
    -2.3888  -2.3855  -2.3735  -2.3717  -2.3710  -2.3672  -2.3477  -2.3462
    -2.2657  -2.2528  -2.2434  -2.2020  -2.1762  -2.1602  -2.1525  -2.1329
    -2.0868  -2.0794  -2.0709  -2.0396  -2.0032  -1.9887  -1.9535  -1.9353
    -1.9298  -1.9162  -1.7438  -1.7304  -1.7114  -1.7111  -1.7056  -1.7049
    -1.5693  -1.5596  -1.5051  -1.5002   0.5097   0.5171   0.6428   0.6486
     0.6783   0.6874   0.7205   0.7273   0.8563   0.8699   0.8732   0.8863
     0.9148   0.9231   1.0564   1.0662   1.0686   1.0768   1.0844   1.0904
     1.2076   1.2114   1.2217   1.2325   1.2444   1.2521   1.2560   1.2678
     1.2928   1.3180   1.3204   1.3635   1.3958   1.4091   1.4170   1.4257
     1.4294   1.4411   1.4581   1.4695   1.4759   1.4809   1.4814   1.4971
     1.6302   1.6555   1.6572   1.6731   1.7702   1.7945   1.8011   1.8138
     1.8361   1.8630   1.8893   1.8986   1.9157   1.9217   1.9229   1.9297
     2.0614   2.0696   2.0705   2.0779

     the Fermi energy is    -4.4095 ev

!    total energy              =  -13091.52795435 Ry
     estimated scf accuracy    <          1.8E-10 Ry
     smearing contrib. (-TS)   =      -0.00003978 Ry
     internal energy E=F+TS    =  -13091.52791457 Ry

     The total energy is F=E-TS. E is the sum of the following terms:
     one-electron contribution =  -60215.89231675 Ry
     hartree contribution      =   29838.65813790 Ry
     xc contribution           =   -2610.78850710 Ry
     ewald contribution        =   19897.01677163 Ry
     DFT-D3 Dispersion         =      -0.52200024 Ry

     convergence has been achieved in   8 iterations

     Forces acting on atoms (cartesian axes, Ry/au):

     atom    1 type  1   force =    -0.00005555   -0.00003377    0.00135637
     atom    2 type  1   force =    -0.00023385   -0.00049544   -0.00076323
     atom    3 type  1   force =     0.00029111   -0.00043113    0.00139844
     atom    4 type  1   force =     0.00029174    0.00041982   -0.00139486
     atom    5 type  1   force =    -0.00023680    0.00050355    0.00076106
     atom    6 type  1   force =    -0.00005477    0.00000450   -0.00135484
     atom    7 type  1   force =    -0.00005562   -0.00003385    0.00135642
     atom    8 type  1   force =    -0.00023379   -0.00049549   -0.00076323
     atom    9 type  1   force =     0.00029111   -0.00043116    0.00139842
     atom   10 type  1   force =     0.00029162    0.00041954   -0.00139487
     atom   11 type  1   force =    -0.00023672    0.00050331    0.00076099
     atom   12 type  1   force =    -0.00005487    0.00000446   -0.00135476
     atom   13 type  1   force =    -0.00005559   -0.00003381    0.00135645
     atom   14 type  1   force =    -0.00023380   -0.00049562   -0.00076318
     atom   15 type  1   force =     0.00029113   -0.00043115    0.00139844
     atom   16 type  1   force =     0.00029171    0.00041953   -0.00139472
     atom   17 type  1   force =    -0.00023680    0.00050357    0.00076111
     atom   18 type  1   force =    -0.00005476    0.00000435   -0.00135479
     atom   19 type  1   force =    -0.00005331    0.00000438    0.00135077
     atom   20 type  1   force =    -0.00023805   -0.00049374   -0.00076352
     atom   21 type  1   force =     0.00029182   -0.00045158    0.00140050
     atom   22 type  1   force =     0.00029350    0.00042625   -0.00139634
     atom   23 type  1   force =    -0.00023493    0.00048523    0.00076223
     atom   24 type  1   force =    -0.00005646    0.00003476   -0.00135620
     atom   25 type  1   force =    -0.00005339    0.00000427    0.00135082
     atom   26 type  1   force =    -0.00023801   -0.00049382   -0.00076352
     atom   27 type  1   force =     0.00029184   -0.00045159    0.00140047
     atom   28 type  1   force =     0.00029336    0.00042601   -0.00139634
     atom   29 type  1   force =    -0.00023487    0.00048525    0.00076227
     atom   30 type  1   force =    -0.00005657    0.00003478   -0.00135612
     atom   31 type  1   force =    -0.00005339    0.00000431    0.00135086
     atom   32 type  1   force =    -0.00023803   -0.00049390   -0.00076347
     atom   33 type  1   force =     0.00029185   -0.00045156    0.00140046
     atom   34 type  1   force =     0.00029347    0.00042600   -0.00139623
     atom   35 type  1   force =    -0.00023492    0.00048527    0.00076229
     atom   36 type  1   force =    -0.00005644    0.00003465   -0.00135615
     atom   37 type  1   force =    -0.00005437   -0.00001877    0.00134996
     atom   38 type  1   force =    -0.00023886   -0.00047250   -0.00076807
     atom   39 type  1   force =     0.00029119   -0.00041385    0.00139931
     atom   40 type  1   force =     0.00029327    0.00045484   -0.00139672
     atom   41 type  1   force =    -0.00024017    0.00047594    0.00076468
     atom   42 type  1   force =    -0.00005528    0.00000265   -0.00134997
     atom   43 type  1   force =    -0.00005444   -0.00001886    0.00135004
     atom   44 type  1   force =    -0.00023882   -0.00047255   -0.00076807
     atom   45 type  1   force =     0.00029121   -0.00041386    0.00139927
     atom   46 type  1   force =     0.00029313    0.00045452   -0.00139675
     atom   47 type  1   force =    -0.00024013    0.00047595    0.00076470
     atom   48 type  1   force =    -0.00005541    0.00000262   -0.00134988
     atom   49 type  1   force =    -0.00005443   -0.00001881    0.00135006
     atom   50 type  1   force =    -0.00023883   -0.00047267   -0.00076804
     atom   51 type  1   force =     0.00029121   -0.00041383    0.00139929
     atom   52 type  1   force =     0.00029323    0.00045457   -0.00139661
     atom   53 type  1   force =    -0.00024018    0.00047592    0.00076472
     atom   54 type  1   force =    -0.00005529    0.00000252   -0.00134990

     Total force =     0.009428     Total SCF correction =     0.000090


     Computing stress (Cartesian axis) and pressure

          total   stress  (Ry/bohr**3)                   (kbar)     P=       -0.49
  -0.00001848   0.00000000   0.00000000           -2.72        0.00        0.00
   0.00000000  -0.00000223  -0.00000071            0.00       -0.33       -0.10
   0.00000000  -0.00000071   0.00001066            0.00       -0.10        1.57

     Energy error            =      3.1E-04 Ry
     Gradient error          =      1.4E-03 Ry/Bohr
     Cell gradient error     =      2.7E+00 kbar

     number of scf cycles    =   2
     number of bfgs steps    =   1

     enthalpy           old  =  -13091.5276453100 Ry
     enthalpy           new  =  -13091.5279543486 Ry

     CASE: enthalpy          _new < enthalpy          _old


     WARNING: bfgs curvature condition failed, Theta= 0.840
     new trust radius        =       0.0162279982 bohr
     new conv_thr            =       0.0000000001 Ry

     new unit-cell volume =  23275.20060 a.u.^3 (  3449.02888 Ang^3 )
     density =      2.05312 g/cm^3

CELL_PARAMETERS (angstrom)
  13.035833550   0.000000804   0.000000000
   0.000000932  15.131170451   0.000000000
   0.000000000   0.000000000  17.485799789

ATOMIC_POSITIONS (angstrom)
Se               1.6492864612        1.6834894998        3.7848259164
Se               3.8804344837        1.6667996180        7.4126506127
Se               3.1612489532        3.3581046276        2.8913533397
Se               0.9886930630        3.3669566029        6.5942173779
Se               1.7077187112        0.0144164352        2.0735188960
Se               3.8218328828       -0.0021124328        5.7012372197
Se               5.9945627178        1.6834915899        3.7848237539
Se               8.2257081823        1.6667990251        7.4126432496
Se               7.5065226467        3.3581063331        2.8913468259
Se               5.3339770111        3.3669589832        6.5942173451
Se               6.0529898906        0.0144177265        2.0735168651
Se               8.1671081311       -0.0021124029        5.7012287458
Se              10.3398438359        1.6834896415        3.7848170283
Se              12.5709813162        1.6667988016        7.4126455564
Se              11.8518075985        3.3581046015        2.8913468074
Se               9.6792505292        3.3669585763        6.5942101663
Se              10.3982771334        0.0144158250        2.0735113200
Se              12.5123861204       -0.0021132752        5.7012315368
Se               1.6490874351        6.7270418556        3.7847521592
Se               3.8802349288        6.7103965535        7.4121342647
Se               3.1609487813        8.4020115433        2.8915463239
Se               0.9884449700        8.4106034475        6.5938147503
Se               1.7077250282        5.0583540630        2.0730938771
Se               3.8218891217        5.0414206698        5.7007251966
Se               5.9943636621        6.7270439932        3.7847499268
Se               8.2255087903        6.7103960642        7.4121268250
Se               7.5062224526        8.4020132524        2.8915398529
Se               5.3337289343        8.4106056062        6.5938148529
[...]
   -53.7909 -53.7909 -53.7909 -53.7909 -53.7909 -53.7909 -53.7909 -53.7909
   -53.7908 -53.7908 -53.7908 -53.7908 -53.7908 -53.7908 -53.7908 -53.7908
   -53.7908 -53.7908 -53.7908 -53.7908 -53.7908 -53.7908 -53.7907 -53.7907
   -53.7907 -53.7907 -53.7907 -53.7907 -53.7163 -53.7163 -53.7162 -53.7162
   -53.7162 -53.7162 -53.7162 -53.7162 -53.7162 -53.7162 -53.7162 -53.7162
   -53.7162 -53.7162 -53.7162 -53.7162 -53.7161 -53.7161 -53.7161 -53.7161
   -53.7161 -53.7161 -53.7161 -53.7161 -53.7161 -53.7161 -53.7161 -53.7161
   -53.7161 -53.7160 -53.7160 -53.7160 -53.7160 -53.7160 -53.7160 -53.7160
   -53.6008 -53.6008 -53.6008 -53.6008 -53.6008 -53.6008 -53.6008 -53.6007
   -53.6007 -53.6007 -53.6007 -53.6007 -53.6007 -53.6007 -53.6007 -53.6007
   -53.6007 -53.6007 -53.6007 -53.6007 -53.6007 -53.6007 -53.6007 -53.6007
   -53.6007 -53.6007 -53.6007 -53.6007 -53.6007 -53.6007 -53.6007 -53.6007
   -53.6007 -53.6007 -53.6007 -53.6007 -53.5473 -53.5473 -53.5472 -53.5472
   -53.5472 -53.5472 -53.5472 -53.5472 -53.5472 -53.5472 -53.5472 -53.5471
   -53.5471 -53.5471 -53.5471 -53.5471 -53.5471 -53.5470 -53.5470 -53.5470
   -53.5470 -53.5469 -53.5469 -53.5469 -53.5469 -53.5469 -53.5469 -53.5469
   -53.5469 -53.5469 -53.5468 -53.5468 -53.5468 -53.5468 -53.5468 -53.5468
   -53.4464 -53.4464 -53.4464 -53.4464 -53.4464 -53.4464 -53.4464 -53.4464
   -53.4464 -53.4464 -53.4464 -53.4464 -53.4464 -53.4464 -53.4464 -53.4464
   -53.4464 -53.4464 -53.4464 -53.4464 -53.4464 -53.4464 -53.4464 -53.4464
   -53.4463 -53.4463 -53.4463 -53.4463 -53.4463 -53.4463 -53.4463 -53.4463
   -53.4463 -53.4463 -53.4463 -53.4463 -53.3438 -53.3438 -53.3438 -53.3438
   -53.3438 -53.3438 -53.3438 -53.3438 -53.3438 -53.3438 -53.3438 -53.3438
   -53.3438 -53.3437 -53.3437 -53.3437 -53.3437 -53.3437 -53.3437 -53.3437
   -53.3437 -53.3437 -53.3437 -53.3437 -53.3437 -53.3437 -53.3437 -53.3437
   -53.3437 -53.3437 -53.3437 -53.3437 -53.3437 -53.3437 -53.3437 -53.3437
   -52.9368 -52.9368 -52.9368 -52.9367 -52.9367 -52.9367 -52.9367 -52.9367
   -52.9367 -52.9366 -52.9366 -52.9366 -52.9366 -52.9366 -52.9366 -52.9365
   -52.9365 -52.9365 -52.9365 -52.9365 -52.9364 -52.9364 -52.9364 -52.9364
   -52.9363 -52.9363 -52.9363 -52.9363 -52.9363 -52.9363 -52.9362 -52.9362
   -52.9362 -52.9362 -52.9362 -52.9362 -52.8641 -52.8641 -52.8641 -52.8640
   -52.8640 -52.8640 -52.8639 -52.8639 -52.8639 -52.8639 -52.8639 -52.8639
   -52.8638 -52.8638 -52.8638 -52.8637 -52.8637 -52.8637 -52.8635 -52.8635
   -52.8635 -52.8634 -52.8634 -52.8634 -52.8633 -52.8633 -52.8633 -52.8633
   -52.8633 -52.8633 -52.8632 -52.8632 -52.8632 -52.8631 -52.8631 -52.8631
   -52.7445 -52.7445 -52.7445 -52.7445 -52.7445 -52.7445 -52.7444 -52.7444
   -52.7444 -52.7443 -52.7443 -52.7443 -52.7443 -52.7443 -52.7443 -52.7443
   -52.7443 -52.7443 -52.7441 -52.7441 -52.7441 -52.7440 -52.7440 -52.7440
   -52.7440 -52.7440 -52.7440 -52.7440 -52.7440 -52.7440 -52.7439 -52.7439
   -52.7439 -52.7439 -52.7438 -52.7438 -52.7305 -52.7305 -52.7304 -52.7304
   -52.7304 -52.7304 -52.7303 -52.7303 -52.7303 -52.7303 -52.7303 -52.7303
   -52.7302 -52.7302 -52.7302 -52.7302 -52.7301 -52.7301 -52.7301 -52.7301
   -52.7300 -52.7300 -52.7300 -52.7300 -52.7300 -52.7300 -52.7299 -52.7299
   -52.7299 -52.7299 -52.7299 -52.7299 -52.7298 -52.7298 -52.7298 -52.7298
   -52.6374 -52.6374 -52.6373 -52.6373 -52.6373 -52.6372 -52.6372 -52.6372
   -52.6372 -52.6371 -52.6371 -52.6371 -52.6371 -52.6371 -52.6371 -52.6371
   -52.6371 -52.6370 -52.6370 -52.6370 -52.6370 -52.6370 -52.6370 -52.6370
   -52.6370 -52.6370 -52.6369 -52.6369 -52.6369 -52.6369 -52.6369 -52.6369
   -52.6369 -52.6369 -52.6368 -52.6368 -52.6259 -52.6259 -52.6259 -52.6258
   -52.6258 -52.6258 -52.6257 -52.6257 -52.6256 -52.6256 -52.6256 -52.6256
   -52.6255 -52.6255 -52.6255 -52.6255 -52.6255 -52.6255 -52.6254 -52.6254
   -52.6253 -52.6252 -52.6252 -52.6251 -52.6251 -52.6251 -52.6250 -52.6249
   -52.6249 -52.6249 -52.6248 -52.6248 -52.6248 -52.6247 -52.6247 -52.6246
   -52.5350 -52.5349 -52.5349 -52.5349 -52.5349 -52.5349 -52.5349 -52.5348
   -52.5348 -52.5348 -52.5348 -52.5348 -52.5348 -52.5348 -52.5348 -52.5348
   -52.5348 -52.5348 -52.5348 -52.5348 -52.5348 -52.5348 -52.5347 -52.5347
   -52.5347 -52.5347 -52.5347 -52.5347 -52.5347 -52.5347 -52.5347 -52.5346
   -52.5346 -52.5346 -52.5346 -52.5346 -52.5218 -52.5217 -52.5217 -52.5217
   -52.5217 -52.5217 -52.5217 -52.5216 -52.5216 -52.5216 -52.5216 -52.5216
   -52.5216 -52.5216 -52.5216 -52.5216 -52.5216 -52.5216 -52.5216 -52.5216
   -52.5216 -52.5216 -52.5215 -52.5215 -52.5215 -52.5215 -52.5215 -52.5215
   -52.5215 -52.5215 -52.5215 -52.5215 -52.5214 -52.5214 -52.5214 -52.5214
   -52.4180 -52.4180 -52.4180 -52.4180 -52.4180 -52.4180 -52.4180 -52.4180
   -52.4179 -52.4179 -52.4179 -52.4179 -52.4179 -52.4179 -52.4179 -52.4179
   -52.4179 -52.4179 -52.4179 -52.4179 -52.4179 -52.4179 -52.4179 -52.4179
   -52.4179 -52.4179 -52.4179 -52.4179 -52.4179 -52.4179 -52.4179 -52.4179
   -52.4179 -52.4179 -52.4179 -52.4179 -20.4882 -20.4876 -20.3031 -20.3023
   -20.2437 -20.2419 -20.1122 -20.1113 -20.0670 -20.0648 -20.0451 -20.0441
   -20.0007 -19.9997 -19.9206 -19.9195 -19.8845 -19.8819 -19.8231 -19.8203
   -19.7788 -19.7760 -19.7643 -19.7614 -19.7049 -19.7019 -19.6085 -19.6052
   -19.4435 -19.4396 -19.4011 -19.3971 -19.3512 -19.3469 -19.2971 -19.2927
   -19.0672 -19.0638 -18.9322 -18.9284 -18.8111 -18.8065 -18.7515 -18.7469
   -18.7397 -18.7346 -18.6770 -18.6718 -18.1991 -18.1958 -18.1249 -18.1212
   -18.0564 -18.0524 -18.0431 -18.0389 -18.0147 -18.0105 -17.9964 -17.9920
   -17.3402 -17.3387 -17.3056 -17.3042 -17.2872 -17.2853 -17.2825 -17.2801
   -17.2245 -17.2226 -17.2104 -17.2085 -16.4932 -16.4897 -16.4857 -16.4824
   -16.3903 -16.3871 -16.3716 -16.3690 -16.2727 -16.2707 -16.1804 -16.1793
   -16.0160 -16.0096 -15.9189 -15.9129 -15.8682 -15.8621 -15.7805 -15.7751
   -15.7107 -15.7073 -15.5729 -15.5696 -15.5515 -15.5465 -15.5433 -15.5400
   -15.4151 -15.4121 -15.3084 -15.3043 -15.1102 -15.1071 -14.7592 -14.7564
   -10.6242 -10.6021 -10.5450 -10.5190 -10.4588 -10.4388 -10.4266 -10.3998
   -10.3027 -10.2559 -10.1794 -10.1463 -10.1229 -10.1207 -10.0964 -10.0914
   -10.0869 -10.0784 -10.0620 -10.0427 -10.0351  -9.9972  -9.9823  -9.9822
    -9.9760  -9.9731  -9.9565  -9.9171  -9.8936  -9.8676  -9.7842  -9.7748
    -9.7633  -9.7596  -9.7593  -9.7551  -9.7298  -9.7290  -9.7227  -9.7172
    -9.7143  -9.6991  -9.6981  -9.6915  -9.6665  -9.6444  -9.6203  -9.5990
    -9.5976  -9.5742  -9.5736  -9.5428  -9.4923  -9.4360  -9.4148  -9.3443
    -9.3277  -9.3148  -9.2981  -9.2795  -9.2700  -9.2561  -9.2511  -9.2438
    -9.2396  -9.1803  -9.1188  -9.0499  -9.0082  -8.9666  -8.9538  -8.9158
    -8.9148  -8.8437  -8.8195  -8.7948  -8.7683  -8.7611  -8.6569  -8.6121
    -8.5769  -8.5480  -8.5394  -8.4720  -8.4583  -8.4273  -8.4199  -8.4193
    -8.4129  -8.3653  -8.3546  -8.3413  -8.3293  -8.3065  -8.2828  -8.2364
    -8.2235  -8.2210  -8.2135  -8.2018  -8.1757  -8.1719  -8.1373  -8.1353
    -8.1315  -8.1142  -8.0991  -8.0709  -7.8460  -7.7259  -7.6028  -7.5507
    -7.5347  -7.4690  -7.4506  -7.4480  -7.4136  -7.3939  -7.3487  -7.3016
    -7.2329  -7.2177  -7.1704  -7.1303  -7.0673  -7.0655  -7.0438  -7.0086
    -6.9918  -6.9594  -6.9223  -6.8917  -6.8452  -6.8434  -6.8277  -6.7898
    -6.7861  -6.7740  -6.7590  -6.7454  -6.7153  -6.6634  -6.6457  -6.6053
    -6.5952  -6.5767  -6.5760  -6.5750  -6.5474  -6.5278  -6.4960  -6.4839
    -6.4821  -6.4710  -6.4550  -6.4391  -6.4387  -6.4260  -6.4241  -6.4107
    -6.4022  -6.4013  -6.3725  -6.3697  -6.3687  -6.3499  -6.3338  -6.3257
    -6.3254  -6.2488  -6.2427  -6.2366  -6.2192  -6.1817  -6.1781  -6.1738
    -6.1674  -6.1673  -6.1514  -6.1486  -6.0964  -6.0960  -6.0274  -6.0046
    -6.0008  -5.9894  -5.9334  -5.9176  -5.8622  -5.8390  -5.7860  -5.7660
    -5.7650  -5.7483  -5.7352  -5.6665  -5.6474  -5.6278  -5.6233  -5.6046
    -5.5779  -5.5671  -5.5116  -5.4851  -5.4490  -5.4436  -5.4192  -5.4041
    -5.3753  -5.3476  -5.3461  -5.3162  -5.2636  -5.1817  -5.1631  -5.0519
    -3.7273  -3.7196  -3.6908  -3.6845  -3.6436  -3.6031  -3.6000  -3.5767
    -3.5310  -3.5138  -3.4717  -3.4566  -3.4492  -3.4462  -3.4146  -3.4096
    -3.3728  -3.3624  -3.3334  -3.3304  -3.3178  -3.2864  -3.2863  -3.2568
    -3.2498  -3.2495  -3.2465  -3.1750  -3.1748  -3.1716  -3.1659  -3.1467
    -3.1445  -3.1329  -3.1164  -3.1070  -3.0769  -3.0743  -3.0693  -3.0187
    -2.9614  -2.9439  -2.9301  -2.9055  -2.8983  -2.8525  -2.8463  -2.7772
    -2.7546  -2.7160  -2.6902  -2.6689  -2.6385  -2.6229  -2.6222  -2.6130
    -2.6007  -2.5962  -2.5957  -2.5905  -2.5605  -2.5419  -2.5415  -2.4983
    -2.4936  -2.4847  -2.4805  -2.4738  -2.4570  -2.4362  -2.4237  -2.4216
    -2.4037  -2.4024  -2.3803  -2.3588  -2.3530  -2.3510  -2.3504  -2.3240
    -2.2748  -2.2616  -2.2534  -2.1858  -2.1341  -2.1215  -2.1087  -2.1005
    -2.0746  -2.0228  -2.0222  -2.0041  -1.9877  -1.9733  -1.9162  -1.8988
    -1.8656  -1.8434  -1.6920  -1.6796  -1.6675  -1.6613  -1.6432  -1.6380
    -1.5110  -1.5009  -1.4043  -1.4011   0.4418   0.4478   0.6109   0.6178
     0.6779   0.6861   0.7042   0.7137   0.7604   0.7757   0.8285   0.8351
     0.9141   0.9267   0.9770   0.9918   1.0112   1.0223   1.0404   1.0524
     1.1905   1.1994   1.2093   1.2110   1.2122   1.2285   1.2452   1.2485
     1.2535   1.2593   1.3200   1.3432   1.3912   1.3996   1.4028   1.4144
     1.4191   1.4217   1.4319   1.4393   1.5057   1.5243   1.5268   1.5323
     1.5911   1.6105   1.6541   1.6817   1.7100   1.7341   1.8002   1.8152
     1.8483   1.8692   1.9144   1.9230   1.9283   1.9381   2.0220   2.0352
     2.0793   2.0865   2.0956   2.1011

     the Fermi energy is    -4.4146 ev

!    total energy              =  -13091.53910649 Ry
     estimated scf accuracy    <          1.2E-11 Ry
     smearing contrib. (-TS)   =      -0.00005985 Ry
     internal energy E=F+TS    =  -13091.53904663 Ry

     The total energy is F=E-TS. E is the sum of the following terms:
     one-electron contribution =  -62578.08970309 Ry
     hartree contribution      =   31019.31046941 Ry
     xc contribution           =   -2610.99131370 Ry
     ewald contribution        =   21078.77648384 Ry
     DFT-D3 Dispersion         =      -0.54498309 Ry

     convergence has been achieved in   9 iterations

     Forces acting on atoms (cartesian axes, Ry/au):

     atom    1 type  1   force =     0.00002448    0.00001013   -0.00002405
     atom    2 type  1   force =     0.00004139   -0.00004220   -0.00007563
     atom    3 type  1   force =    -0.00006599    0.00006890   -0.00000803
     atom    4 type  1   force =    -0.00006741   -0.00006664    0.00000722
     atom    5 type  1   force =     0.00004222    0.00003562    0.00007306
     atom    6 type  1   force =     0.00002360   -0.00000592    0.00002884
     atom    7 type  1   force =     0.00002449    0.00001007   -0.00002408
     atom    8 type  1   force =     0.00004141   -0.00004218   -0.00007562
     atom    9 type  1   force =    -0.00006598    0.00006890   -0.00000802
     atom   10 type  1   force =    -0.00006742   -0.00006665    0.00000722
     atom   11 type  1   force =     0.00004220    0.00003572    0.00007311
     atom   12 type  1   force =     0.00002358   -0.00000593    0.00002883
     atom   13 type  1   force =     0.00002447    0.00001015   -0.00002400
     atom   14 type  1   force =     0.00004139   -0.00004222   -0.00007561
     atom   15 type  1   force =    -0.00006599    0.00006891   -0.00000801
     atom   16 type  1   force =    -0.00006742   -0.00006665    0.00000723
     atom   17 type  1   force =     0.00004223    0.00003561    0.00007308
     atom   18 type  1   force =     0.00002356   -0.00000591    0.00002883
     atom   19 type  1   force =     0.00002103    0.00000554   -0.00002422
     atom   20 type  1   force =     0.00004301   -0.00003540   -0.00007545
     atom   21 type  1   force =    -0.00006366    0.00007641   -0.00001066
     atom   22 type  1   force =    -0.00006551   -0.00007409    0.00001003
     atom   23 type  1   force =     0.00004035    0.00003794    0.00007239
     atom   24 type  1   force =     0.00002664   -0.00001216    0.00002738
     atom   25 type  1   force =     0.00002104    0.00000554   -0.00002421
     atom   26 type  1   force =     0.00004302   -0.00003540   -0.00007544
     atom   27 type  1   force =    -0.00006364    0.00007641   -0.00001064
     atom   28 type  1   force =    -0.00006554   -0.00007409    0.00001003
     atom   29 type  1   force =     0.00004037    0.00003795    0.00007240
     atom   30 type  1   force =     0.00002663   -0.00001216    0.00002740
     atom   31 type  1   force =     0.00002103    0.00000557   -0.00002419
     atom   32 type  1   force =     0.00004301   -0.00003541   -0.00007544
     atom   33 type  1   force =    -0.00006367    0.00007640   -0.00001062
     atom   34 type  1   force =    -0.00006553   -0.00007408    0.00001003
     atom   35 type  1   force =     0.00004036    0.00003794    0.00007240
     atom   36 type  1   force =     0.00002662   -0.00001215    0.00002740
     atom   37 type  1   force =     0.00002380    0.00001228   -0.00002306
     atom   38 type  1   force =     0.00004158   -0.00003373   -0.00007385
     atom   39 type  1   force =    -0.00006521    0.00007503   -0.00001085
     atom   40 type  1   force =    -0.00006589   -0.00007068    0.00000835
     atom   41 type  1   force =     0.00004147    0.00002968    0.00007150
     atom   42 type  1   force =     0.00002413   -0.00001076    0.00002687
     atom   43 type  1   force =     0.00002378    0.00001224   -0.00002303
     atom   44 type  1   force =     0.00004160   -0.00003371   -0.00007385
     atom   45 type  1   force =    -0.00006514    0.00007502   -0.00001084
     atom   46 type  1   force =    -0.00006591   -0.00007067    0.00000834
     atom   47 type  1   force =     0.00004150    0.00002970    0.00007153
     atom   48 type  1   force =     0.00002410   -0.00001075    0.00002689
     atom   49 type  1   force =     0.00002379    0.00001228   -0.00002302
     atom   50 type  1   force =     0.00004159   -0.00003374   -0.00007384
     atom   51 type  1   force =    -0.00006521    0.00007505   -0.00001083
     atom   52 type  1   force =    -0.00006590   -0.00007068    0.00000836
     atom   53 type  1   force =     0.00004148    0.00002969    0.00007153
     atom   54 type  1   force =     0.00002408   -0.00001073    0.00002687

     Total force =     0.000591     Total SCF correction =     0.000014


     Computing stress (Cartesian axis) and pressure

          total   stress  (Ry/bohr**3)                   (kbar)     P=        0.93
  -0.00000014   0.00000000   0.00000000           -0.02        0.00        0.00
   0.00000000  -0.00000035  -0.00000036            0.00       -0.05       -0.05
   0.00000000  -0.00000036   0.00001950            0.00       -0.05        2.87

     Energy error            =      1.6E-06 Ry
     Gradient error          =      7.6E-05 Ry/Bohr
     Cell gradient error     =      5.2E-02 kbar

     number of scf cycles    =  36
     number of bfgs steps    =  35

     enthalpy           old  =  -13091.5391048651 Ry
     enthalpy           new  =  -13091.5391064866 Ry

     CASE: enthalpy          _new < enthalpy          _old

     new trust radius        =       0.0018483840 bohr
     new conv_thr            =            1.0E-11 Ry

     new unit-cell volume =  22477.37155 a.u.^3 (  3330.80282 Ang^3 )
     density =      2.12599 g/cm^3

CELL_PARAMETERS (angstrom)
  12.511449100  -0.000016448   0.000000000
  -0.000017676  15.224947670   0.000000000
   0.000000000   0.000000000  17.485799789

ATOMIC_POSITIONS (angstrom)
Se               1.5594471215        1.7044333980        3.8172337108
Se               3.7065062116        1.6547713634        7.3892738914
Se               3.0750416889        3.3955529223        2.9214234018
Se               0.9898265145        3.3710932229        6.5642995330
Se               1.6212248482        0.0368931422        2.0965788836
Se               3.6446853937       -0.0127955889        5.6686423056
Se               5.7299299207        1.7044278514        3.8172330060
Se               7.8769886705        1.6547651860        7.3892723096
Se               7.2455239888        3.3955471837        2.9214218231
Se               5.1603100779        3.3710882044        6.5642995403
Se               5.7917068932        0.0368873045        2.0965781414
Se               7.8151683459       -0.0128016829        5.6686406224
Se               9.9004134286        1.7044216433        3.8172313084
Se              12.0474712689        1.6547598592        7.3892726249
Se              11.4160080518        3.3955412454        2.9214214639
Se               9.3307927162        3.3710820280        6.5642983828
Se               9.9621910271        0.0368812849        2.0965767600
Se              11.9856516108       -0.0128072241        5.6686410595
Se               1.5594411386        6.7794346908        3.8172224873
Se               3.7064873670        6.7297335345        7.3892650248
Se               3.0750152304        8.4705318568        2.9214150887
Se               0.9897999821        8.4460869764        6.5642944063
Se               1.6212241027        5.1118903891        2.0965535201
Se               3.6446643482        5.0622125413        5.6686174813
Se               5.7299239591        6.7794290561        3.8172218792
Se               7.8769699535        6.7297273299        7.3892634386
Se               7.2454974944        8.4705261533        2.9214134314
Se               5.1602834805        8.4460819641        6.5642943417
Se               5.7917059189        5.1118846754        2.0965529335
Se               7.8151474247        5.0622063865        5.6686157568
Se               9.9004074996        6.7794229566        3.8172201515
Se              12.0474524574        6.7297219283        7.3892637281
Se              11.4159815507        8.4705203406        2.9214130467
Se               9.3307661036        8.4460758409        6.5642932122
Se               9.9621902519        5.1118785742        2.0965514656
Se              11.9856304981        5.0622009066        5.6686161166
Se               1.5594133273       11.8543897142        3.8172591621
Se               3.7064842884       11.8046878843        7.3892869317
Se               3.0750184505       13.5454893928        2.9214628059
Se               0.9898015439       13.5210428315        6.5643321424
Se               1.6212057665       10.1869083794        2.0965585232
Se               3.6446486453       10.1371854278        5.6686165288
Se               5.7298960811       11.8543840846        3.8172583800
Se               7.8769666668       11.8046816414        7.3892853220
Se               7.2455006846       13.5454836162        2.9214612201
Se               5.1602850622       13.5210377477        6.5643320965
Se               5.7916875096       10.1869025945        2.0965577770
Se               7.8151317128       10.1371792726        5.6686147476
Se               9.9003795596       11.8543779842        3.8172568270
Se              12.0474493835       11.8046763629        7.3892856661
Se              11.4159847371       13.5454776430        2.9214609832
Se               9.3307675232       13.5210316221        6.5643309530
Se               9.9621717569       10.1868965509        2.0965563761
Se              11.9856149709       10.1371737821        5.6686152624



     Writing config-only to output data dir ./pwscf.save/ :
     XML data file     NEW-OLD atomic charge density approx. for the potential
     New effective cutoffs (rho, wfc):  347.87   86.86

     negative rho (up, down):  2.808E-08 0.000E+00

     total cpu time spent up to now is   258760.5 secs

     per-process dynamical memory:  1110.9 Mb

     Self-consistent Calculation

     iteration #  1     ecut=    80.00 Ry     beta= 0.20
     Davidson diagonalization with overlap
