
     Program PWSCF v.7.4.1 starts on 26Jun2025 at 16:40:15 
        Git branch: dftd4
        Last git commit: 01c1471f2fc0cc39fea41758dcc660d4b60547b9
        Last git commit date: Thu Jun 26 15:41:03 2025 +0300
        Last git commit subject: upd

     This program is part of the open-source Quantum ESPRESSO suite
     for quantum simulation of materials; please cite
         "P. Giannozzi et al., J. Phys.:Condens. Matter 21 395502 (2009);
         "P. Giannozzi et al., J. Phys.:Condens. Matter 29 465901 (2017);
         "P. Giannozzi et al., J. Chem. Phys. 152 154105 (2020);
          URL http://www.quantum-espresso.org", 
     in publications or presentations arising from this work. More details at
     http://www.quantum-espresso.org/quote

     Parallel version (MPI), running on     4 processors

     MPI processes distributed on     1 nodes
     14164 MiB available memory on the printing compute node when the environment starts

     Waiting for input...
     Reading input from standard input

     Current dimensions of program PWSCF are:
     Max number of different atomic species (ntypx) = 10
     Max number of k-points (npk) =  40000
     Max angular momentum in pseudopotentials (lmaxx) =  4
 set_vdw_corr : entering vdw_corr=grimme-d4                                                                       
     Message from routine set_vdw_corr:
     entering vdw_corr = grimme-d4
     Message from routine setup:
     using ibrav=0 with symmetry is DISCOURAGED, use correct ibrav instead

     R & G space division:  proc/nbgrp/npool/nimage =       4
     Subspace diagonalization in iterative solution of the eigenvalue problem:
     a serial algorithm will be used


     Parallelization info
     --------------------
     sticks:   dense  smooth     PW     G-vecs:    dense   smooth      PW
     Min        3832    3832    958               357408   357408   44730
     Max        3833    3833    959               357411   357411   44733
     Sum       15329   15329   3833              1429635  1429635  178925

     Using Slab Decomposition



     bravais-lattice index     =            0
     lattice parameter (alat)  =      28.3459  a.u.
     unit-cell volume          =   22775.6289 (a.u.)^3
     number of atoms/cell      =            2
     number of atomic types    =            1
     number of electrons       =        44.00
     number of Kohn-Sham states=           52
     kinetic-energy cutoff     =      60.0000  Ry
     charge density cutoff     =     240.0000  Ry
     scf convergence threshold =      1.0E-09
     mixing beta               =       0.3000
     number of iterations used =            8  plain     mixing
     Exchange-correlation= PBE
                           (   1   4   3   4   0   0   0)
     Non magnetic calculation with spin-orbit


     celldm(1)=  28.345892  celldm(2)=   0.000000  celldm(3)=   0.000000
     celldm(4)=   0.000000  celldm(5)=   0.000000  celldm(6)=   0.000000

     crystal axes: (cart. coord. in units of alat)
               a(1) = (   1.000000   0.000000   0.000000 )  
               a(2) = (   0.000000   1.000000   0.000000 )  
               a(3) = (   0.000000   0.000000   1.000000 )  

     reciprocal axes: (cart. coord. in units 2 pi/alat)
               b(1) = (  1.000000  0.000000  0.000000 )  
               b(2) = (  0.000000  1.000000  0.000000 )  
               b(3) = (  0.000000  0.000000  1.000000 )  


     PseudoPot. # 1 for Fl read from file:
     .././Fl-6spd_r.upf
     MD5 check sum: b85b9b71a88d70a023db0b659bf16840
     Pseudo is Norm-conserving + core correction, Zval = 22.0
     Generated using ONCVPSP code by D. R. Hamann
     Using radial grid of 2000 points, 12 beta functions with: 
                l(1) =   0
                l(2) =   0
                l(3) =   1
                l(4) =   1
                l(5) =   1
                l(6) =   1
                l(7) =   2
                l(8) =   2
                l(9) =   2
               l(10) =   2
               l(11) =   3
               l(12) =   3

     atomic species   valence    mass     pseudopotential
     Fl               22.00   289.00000     Fl( 1.00)

      8 Sym. Ops. (no inversion) found


                                    s                        frac. trans.

      isym =  1     identity                                     

 cryst.   s( 1) = (     1          0          0      )
                  (     0          1          0      )
                  (     0          0          1      )

 cart.    s( 1) = (  1.0000000  0.0000000  0.0000000 )
                  (  0.0000000  1.0000000  0.0000000 )
                  (  0.0000000  0.0000000  1.0000000 )


      isym =  2     180 deg rotation - cart. axis [0,0,1]        

 cryst.   s( 2) = (    -1          0          0      )
                  (     0         -1          0      )
                  (     0          0          1      )

 cart.    s( 2) = ( -1.0000000  0.0000000  0.0000000 )
                  (  0.0000000 -1.0000000  0.0000000 )
                  (  0.0000000  0.0000000  1.0000000 )


      isym =  3      90 deg rotation - cart. axis [0,0,-1]       

 cryst.   s( 3) = (     0         -1          0      )
                  (     1          0          0      )
                  (     0          0          1      )

 cart.    s( 3) = (  0.0000000  1.0000000  0.0000000 )
                  ( -1.0000000  0.0000000  0.0000000 )
                  (  0.0000000  0.0000000  1.0000000 )


      isym =  4      90 deg rotation - cart. axis [0,0,1]        

 cryst.   s( 4) = (     0          1          0      )
                  (    -1          0          0      )
                  (     0          0          1      )

 cart.    s( 4) = (  0.0000000 -1.0000000  0.0000000 )
                  (  1.0000000  0.0000000  0.0000000 )
                  (  0.0000000  0.0000000  1.0000000 )


      isym =  5     inv. 180 deg rotation - cart. axis [0,1,0]   

 cryst.   s( 5) = (     1          0          0      )
                  (     0         -1          0      )
                  (     0          0          1      )

 cart.    s( 5) = (  1.0000000  0.0000000  0.0000000 )
                  (  0.0000000 -1.0000000  0.0000000 )
                  (  0.0000000  0.0000000  1.0000000 )


      isym =  6     inv. 180 deg rotation - cart. axis [1,0,0]   

 cryst.   s( 6) = (    -1          0          0      )
                  (     0          1          0      )
                  (     0          0          1      )

 cart.    s( 6) = ( -1.0000000  0.0000000  0.0000000 )
                  (  0.0000000  1.0000000  0.0000000 )
                  (  0.0000000  0.0000000  1.0000000 )


      isym =  7     inv. 180 deg rotation - cart. axis [1,1,0]   

 cryst.   s( 7) = (     0         -1          0      )
                  (    -1          0          0      )
                  (     0          0          1      )

 cart.    s( 7) = (  0.0000000 -1.0000000  0.0000000 )
                  ( -1.0000000  0.0000000  0.0000000 )
                  (  0.0000000  0.0000000  1.0000000 )


      isym =  8     inv. 180 deg rotation - cart. axis [1,-1,0]  

 cryst.   s( 8) = (     0          1          0      )
                  (     1          0          0      )
                  (     0          0          1      )

 cart.    s( 8) = (  0.0000000  1.0000000  0.0000000 )
                  (  1.0000000  0.0000000  0.0000000 )
                  (  0.0000000  0.0000000  1.0000000 )


   Cartesian axes

     site n.     atom                  positions (alat units)
         1        Fl     tau(   1) = (   0.0000000   0.0000000   0.0000000  )
         2        Fl     tau(   2) = (   0.0000000   0.0000000   2.8000000  )

   Crystallographic axes

     site n.     atom                  positions (cryst. coord.)
         1        Fl     tau(   1) = (  0.0000000  0.0000000  0.0000000  )
         2        Fl     tau(   2) = (  0.0000000  0.0000000  2.8000000  )

     number of k points=     1  Gaussian smearing, width (Ry)=  0.0200
                       cart. coord. in units 2pi/alat
        k(    1) = (   0.0000000   0.0000000   0.0000000), wk =   1.0000000

                       cryst. coord.
        k(    1) = (   0.0000000   0.0000000   0.0000000), wk =   1.0000000

     Dense  grid:  1429635 G-vectors     FFT dimensions: ( 144, 144, 144)

     Dynamical RAM for                 wfc:      70.91 MB

     Dynamical RAM for     wfc (w. buffer):      70.91 MB

     Dynamical RAM for           str. fact:       5.45 MB

     Dynamical RAM for           local pot:       0.00 MB

     Dynamical RAM for          nlocal pot:      65.46 MB

     Dynamical RAM for                qrad:       6.47 MB

     Dynamical RAM for          rho,v,vnew:     133.79 MB

     Dynamical RAM for               rhoin:      44.60 MB

     Dynamical RAM for            rho*nmix:     349.03 MB

     Dynamical RAM for           G-vectors:      23.18 MB

     Dynamical RAM for          h,s,v(r/c):       0.50 MB

     Dynamical RAM for          <psi|beta>:       0.15 MB

     Dynamical RAM for                 psi:     141.83 MB

     Dynamical RAM for                hpsi:     141.83 MB

     Dynamical RAM for      wfcinit/wfcrot:     106.43 MB

     Estimated static dynamical RAM per process >     406.33 MB

     Estimated max dynamical RAM per process >       1.02 GB

     Estimated total dynamical RAM >       4.06 GB

     Initial potential from superposition of free atoms

     starting charge      43.9858, renormalised to      44.0000

     negative rho (up, down):  2.377E-03 0.000E+00
     Starting wfcs are   52 randomized atomic wfcs

     total cpu time spent up to now is        4.1 secs

     per-process dynamical memory:   460.3 Mb

     Self-consistent Calculation

     iteration #  1     ecut=    60.00 Ry     beta= 0.30
     Davidson diagonalization with overlap

---- Real-time Memory Report at c_bands before calling an iterative solver
           522 MiB given to the printing process from OS
           489 MiB allocation reported by mallinfo(arena+hblkhd)
         12607 MiB available memory on the node where the printing process lives
------------------
     ethr =  1.00E-02,  avg # of iterations =  2.0

     Threshold (ethr) on eigenvalues was too large:
     Diagonalizing with lowered threshold

     Davidson diagonalization with overlap

---- Real-time Memory Report at c_bands before calling an iterative solver
           742 MiB given to the printing process from OS
           541 MiB allocation reported by mallinfo(arena+hblkhd)
         12334 MiB available memory on the node where the printing process lives
------------------
     ethr =  2.34E-04,  avg # of iterations =  4.0

     negative rho (up, down):  1.639E-03 0.000E+00

     total cpu time spent up to now is       19.3 secs

     total energy              =    -770.27443205 Ry
     estimated scf accuracy    <       0.10898426 Ry

     iteration #  2     ecut=    60.00 Ry     beta= 0.30
     Davidson diagonalization with overlap

---- Real-time Memory Report at c_bands before calling an iterative solver
           891 MiB given to the printing process from OS
           933 MiB allocation reported by mallinfo(arena+hblkhd)
         10761 MiB available memory on the node where the printing process lives
------------------
     ethr =  2.48E-04,  avg # of iterations =  2.0

     negative rho (up, down):  6.523E-04 0.000E+00

     total cpu time spent up to now is       28.0 secs

     total energy              =    -770.26289942 Ry
     estimated scf accuracy    <       0.03209341 Ry

     End of self-consistent calculation

     convergence NOT achieved after   2 iterations: stopping

     Writing config to output data dir ./pwscf.save/ :
     XML data file, charge density distributed wavefunctions

     init_run     :      3.36s CPU      3.98s WALL (       1 calls)
     electrons    :     23.58s CPU     23.97s WALL (       1 calls)

     Called by init_run:
     wfcinit      :      2.55s CPU      2.98s WALL (       1 calls)
     wfcinit:atom :      0.02s CPU      0.05s WALL (       1 calls)
     wfcinit:wfcr :      2.39s CPU      2.74s WALL (       1 calls)
     potinit      :      0.38s CPU      0.47s WALL (       1 calls)
     hinit0       :      0.07s CPU      0.10s WALL (       1 calls)

     Called by electrons:
     c_bands      :     18.48s CPU     18.07s WALL (       3 calls)
     sum_band     :      4.11s CPU      4.57s WALL (       3 calls)
     v_of_rho     :      0.79s CPU      0.92s WALL (       3 calls)
     v_h          :      0.08s CPU      0.09s WALL (       3 calls)
     v_xc         :      0.72s CPU      0.83s WALL (       3 calls)
     mix_rho      :      0.38s CPU      0.56s WALL (       3 calls)

     Called by c_bands:
     init_us_2    :      0.17s CPU      0.22s WALL (       7 calls)
     cegterg      :     16.97s CPU     16.43s WALL (       3 calls)

     Called by sum_band:
     sum_band:wei :      0.00s CPU      0.00s WALL (       3 calls)
     sum_band:loo :      3.55s CPU      3.92s WALL (       3 calls)
     sum_band:buf :      0.00s CPU      0.00s WALL (       3 calls)
     sum_band:ini :      0.08s CPU      0.09s WALL (       3 calls)

     Called by *egterg:
     cdiaghg      :      0.02s CPU      0.07s WALL (      10 calls)
     cegterg:over :      0.49s CPU      0.53s WALL (       8 calls)
     cegterg:upda :      0.35s CPU      0.44s WALL (       8 calls)
     cegterg:last :      0.59s CPU      0.63s WALL (       6 calls)
     h_psi        :     17.45s CPU     16.88s WALL (      12 calls)
     g_psi        :      0.04s CPU      0.04s WALL (       8 calls)

     Called by h_psi:
     h_psi:calbec :      0.45s CPU      0.50s WALL (      12 calls)
     vloc_psi     :     16.48s CPU     15.65s WALL (      12 calls)
                                        0.00s GPU  (      12 calls)
     add_vuspsi   :      0.47s CPU      0.51s WALL (      12 calls)

     General routines
     calbec       :      0.45s CPU      0.50s WALL (      12 calls)
     fft          :      0.94s CPU      1.07s WALL (      50 calls)
     ffts         :      0.22s CPU      0.26s WALL (      12 calls)
     fftw         :     16.38s CPU     15.55s WALL (    1912 calls)
     davcio       :      0.00s CPU      0.08s WALL (       5 calls)

     Parallel routines

     PWSCF        :     27.01s CPU     28.17s WALL


   This run was terminated on:  16:40:43  26Jun2025            

=------------------------------------------------------------------------------=
   JOB DONE.
=------------------------------------------------------------------------------=
