
     Program PWSCF v.7.4.1 starts on 25Jun2025 at 22:44: 8 
        Git branch: dftd4
        Last git commit: cdd2961ef42f8db591ced3ad6cdf9450b38a484e
        Last git commit date: Wed Jun 25 21:39:06 2025 +0300
        Last git commit subject: saving changes, mainly about ldftd4

     This program is part of the open-source Quantum ESPRESSO suite
     for quantum simulation of materials; please cite
         "P. Giannozzi et al., J. Phys.:Condens. Matter 21 395502 (2009);
         "P. Giannozzi et al., J. Phys.:Condens. Matter 29 465901 (2017);
         "P. Giannozzi et al., J. Chem. Phys. 152 154105 (2020);
          URL http://www.quantum-espresso.org", 
     in publications or presentations arising from this work. More details at
     http://www.quantum-espresso.org/quote

     Parallel version (MPI), running on     4 processors

     MPI processes distributed on     1 nodes
     6780 MiB available memory on the printing compute node when the environment starts

     Waiting for input...
     Reading input from standard input

     Current dimensions of program PWSCF are:
     Max number of different atomic species (ntypx) = 10
     Max number of k-points (npk) =  40000
     Max angular momentum in pseudopotentials (lmaxx) =  4
 set_vdw_corr : entering vdw_corr=grimme-d4                                                                       
     Message from routine set_vdw_corr:
     entering vdw_corr = grimme-d4
     Message from routine setup:
     using ibrav=0 with symmetry is DISCOURAGED, use correct ibrav instead

     R & G space division:  proc/nbgrp/npool/nimage =       4
     Subspace diagonalization in iterative solution of the eigenvalue problem:
     a serial algorithm will be used


     Parallelization info
     --------------------
     sticks:   dense  smooth     PW     G-vecs:    dense   smooth      PW
     Min        5115    5115   1282               550353   550353   68740
     Max        5116    5116   1283               550358   550358   68741
     Sum       20461   20461   5129              2201421  2201421  274961

     Using Slab Decomposition



     bravais-lattice index     =            0
     lattice parameter (alat)  =      28.3459  a.u.
     unit-cell volume          =   22775.6289 (a.u.)^3
     number of atoms/cell      =            2
     number of atomic types    =            1
     number of electrons       =        44.00
     number of Kohn-Sham states=           52
     kinetic-energy cutoff     =      80.0000  Ry
     charge density cutoff     =     320.0000  Ry
     scf convergence threshold =      1.0E-09
     mixing beta               =       0.3000
     number of iterations used =            8  plain     mixing
     Exchange-correlation= PBE
                           (   1   4   3   4   0   0   0)
     Non magnetic calculation with spin-orbit


     celldm(1)=  28.345892  celldm(2)=   0.000000  celldm(3)=   0.000000
     celldm(4)=   0.000000  celldm(5)=   0.000000  celldm(6)=   0.000000

     crystal axes: (cart. coord. in units of alat)
               a(1) = (   1.000000   0.000000   0.000000 )  
               a(2) = (   0.000000   1.000000   0.000000 )  
               a(3) = (   0.000000   0.000000   1.000000 )  

     reciprocal axes: (cart. coord. in units 2 pi/alat)
               b(1) = (  1.000000  0.000000  0.000000 )  
               b(2) = (  0.000000  1.000000  0.000000 )  
               b(3) = (  0.000000  0.000000  1.000000 )  


     PseudoPot. # 1 for Fl read from file:
     .././Fl-6spd_r.upf
     MD5 check sum: b85b9b71a88d70a023db0b659bf16840
     Pseudo is Norm-conserving + core correction, Zval = 22.0
     Generated using ONCVPSP code by D. R. Hamann
     Using radial grid of 2000 points, 12 beta functions with: 
                l(1) =   0
                l(2) =   0
                l(3) =   1
                l(4) =   1
                l(5) =   1
                l(6) =   1
                l(7) =   2
                l(8) =   2
                l(9) =   2
               l(10) =   2
               l(11) =   3
               l(12) =   3

     atomic species   valence    mass     pseudopotential
     Fl               22.00   289.00000     Fl( 1.00)

      8 Sym. Ops. (no inversion) found


                                    s                        frac. trans.

      isym =  1     identity                                     

 cryst.   s( 1) = (     1          0          0      )
                  (     0          1          0      )
                  (     0          0          1      )

 cart.    s( 1) = (  1.0000000  0.0000000  0.0000000 )
                  (  0.0000000  1.0000000  0.0000000 )
                  (  0.0000000  0.0000000  1.0000000 )


      isym =  2     180 deg rotation - cart. axis [0,0,1]        

 cryst.   s( 2) = (    -1          0          0      )
                  (     0         -1          0      )
                  (     0          0          1      )

 cart.    s( 2) = ( -1.0000000  0.0000000  0.0000000 )
                  (  0.0000000 -1.0000000  0.0000000 )
                  (  0.0000000  0.0000000  1.0000000 )


      isym =  3      90 deg rotation - cart. axis [0,0,-1]       

 cryst.   s( 3) = (     0         -1          0      )
                  (     1          0          0      )
                  (     0          0          1      )

 cart.    s( 3) = (  0.0000000  1.0000000  0.0000000 )
                  ( -1.0000000  0.0000000  0.0000000 )
                  (  0.0000000  0.0000000  1.0000000 )


      isym =  4      90 deg rotation - cart. axis [0,0,1]        

 cryst.   s( 4) = (     0          1          0      )
                  (    -1          0          0      )
                  (     0          0          1      )

 cart.    s( 4) = (  0.0000000 -1.0000000  0.0000000 )
                  (  1.0000000  0.0000000  0.0000000 )
                  (  0.0000000  0.0000000  1.0000000 )


      isym =  5     inv. 180 deg rotation - cart. axis [0,1,0]   

 cryst.   s( 5) = (     1          0          0      )
                  (     0         -1          0      )
                  (     0          0          1      )

 cart.    s( 5) = (  1.0000000  0.0000000  0.0000000 )
                  (  0.0000000 -1.0000000  0.0000000 )
                  (  0.0000000  0.0000000  1.0000000 )


      isym =  6     inv. 180 deg rotation - cart. axis [1,0,0]   

 cryst.   s( 6) = (    -1          0          0      )
                  (     0          1          0      )
                  (     0          0          1      )

 cart.    s( 6) = ( -1.0000000  0.0000000  0.0000000 )
                  (  0.0000000  1.0000000  0.0000000 )
                  (  0.0000000  0.0000000  1.0000000 )


      isym =  7     inv. 180 deg rotation - cart. axis [1,1,0]   

 cryst.   s( 7) = (     0         -1          0      )
                  (    -1          0          0      )
                  (     0          0          1      )

 cart.    s( 7) = (  0.0000000 -1.0000000  0.0000000 )
                  ( -1.0000000  0.0000000  0.0000000 )
                  (  0.0000000  0.0000000  1.0000000 )


      isym =  8     inv. 180 deg rotation - cart. axis [1,-1,0]  

 cryst.   s( 8) = (     0          1          0      )
                  (     1          0          0      )
                  (     0          0          1      )

 cart.    s( 8) = (  0.0000000  1.0000000  0.0000000 )
                  (  1.0000000  0.0000000  0.0000000 )
                  (  0.0000000  0.0000000  1.0000000 )


   Cartesian axes

     site n.     atom                  positions (alat units)
         1        Fl     tau(   1) = (   0.0000000   0.0000000   0.0000000  )
         2        Fl     tau(   2) = (   0.0000000   0.0000000   2.8000000  )

   Crystallographic axes

     site n.     atom                  positions (cryst. coord.)
         1        Fl     tau(   1) = (  0.0000000  0.0000000  0.0000000  )
         2        Fl     tau(   2) = (  0.0000000  0.0000000  2.8000000  )

     number of k points=     1  Gaussian smearing, width (Ry)=  0.0200
                       cart. coord. in units 2pi/alat
        k(    1) = (   0.0000000   0.0000000   0.0000000), wk =   1.0000000

                       cryst. coord.
        k(    1) = (   0.0000000   0.0000000   0.0000000), wk =   1.0000000

     Dense  grid:  2201421 G-vectors     FFT dimensions: ( 162, 162, 162)

     Dynamical RAM for                 wfc:     109.18 MB

     Dynamical RAM for     wfc (w. buffer):     109.18 MB

     Dynamical RAM for           str. fact:       8.40 MB

     Dynamical RAM for           local pot:       0.00 MB

     Dynamical RAM for          nlocal pot:     100.78 MB

     Dynamical RAM for                qrad:       7.46 MB

     Dynamical RAM for          rho,v,vnew:     199.28 MB

     Dynamical RAM for               rhoin:      66.43 MB

     Dynamical RAM for            rho*nmix:     537.46 MB

     Dynamical RAM for           G-vectors:      35.69 MB

     Dynamical RAM for          h,s,v(r/c):       0.50 MB

     Dynamical RAM for          <psi|beta>:       0.15 MB

     Dynamical RAM for                 psi:     218.36 MB

     Dynamical RAM for                hpsi:     218.36 MB

     Dynamical RAM for      wfcinit/wfcrot:     163.83 MB

     Estimated static dynamical RAM per process >     609.70 MB

     Estimated max dynamical RAM per process >       1.55 GB

     Estimated total dynamical RAM >       6.19 GB

     Initial potential from superposition of free atoms

     starting charge      43.9858, renormalised to      44.0000

     negative rho (up, down):  8.014E-04 0.000E+00
     Starting wfcs are   52 randomized atomic wfcs

     total cpu time spent up to now is       10.7 secs

     per-process dynamical memory:   645.3 Mb

     Self-consistent Calculation

     iteration #  1     ecut=    80.00 Ry     beta= 0.30
     Davidson diagonalization with overlap

---- Real-time Memory Report at c_bands before calling an iterative solver
           725 MiB given to the printing process from OS
           730 MiB allocation reported by mallinfo(arena+hblkhd)
          4478 MiB available memory on the node where the printing process lives
------------------
     ethr =  1.00E-02,  avg # of iterations =  2.0

     Threshold (ethr) on eigenvalues was too large:
     Diagonalizing with lowered threshold

     Davidson diagonalization with overlap

---- Real-time Memory Report at c_bands before calling an iterative solver
          1087 MiB given to the printing process from OS
           764 MiB allocation reported by mallinfo(arena+hblkhd)
          4199 MiB available memory on the node where the printing process lives
------------------
     ethr =  2.35E-04,  avg # of iterations =  4.0

     negative rho (up, down):  5.423E-04 0.000E+00

     total cpu time spent up to now is       58.5 secs

     total energy              =    -770.30211805 Ry
     estimated scf accuracy    <       0.10985847 Ry

     iteration #  2     ecut=    80.00 Ry     beta= 0.30
     Davidson diagonalization with overlap

---- Real-time Memory Report at c_bands before calling an iterative solver
          1347 MiB given to the printing process from OS
           798 MiB allocation reported by mallinfo(arena+hblkhd)
          4051 MiB available memory on the node where the printing process lives
------------------
     ethr =  2.50E-04,  avg # of iterations =  2.0

     negative rho (up, down):  2.055E-04 0.000E+00

     total cpu time spent up to now is       83.4 secs

     total energy              =    -770.29066608 Ry
     estimated scf accuracy    <       0.03215017 Ry

     End of self-consistent calculation

     convergence NOT achieved after   2 iterations: stopping

     Writing config to output data dir ./pwscf.save/ :
     XML data file, charge density distributed wavefunctions

     init_run     :      9.76s CPU     10.62s WALL (       1 calls)
     electrons    :     68.92s CPU     73.04s WALL (       1 calls)

     Called by init_run:
     wfcinit      :      7.54s CPU      8.03s WALL (       1 calls)
     wfcinit:atom :      0.03s CPU      0.13s WALL (       1 calls)
     wfcinit:wfcr :      7.19s CPU      7.53s WALL (       1 calls)
     potinit      :      1.02s CPU      1.28s WALL (       1 calls)
     hinit0       :      0.20s CPU      0.24s WALL (       1 calls)

     Called by electrons:
     c_bands      :     53.05s CPU     55.11s WALL (       3 calls)
     sum_band     :     12.73s CPU     13.10s WALL (       3 calls)
     v_of_rho     :      2.39s CPU      2.82s WALL (       3 calls)
     v_h          :      0.24s CPU      0.32s WALL (       3 calls)
     v_xc         :      2.15s CPU      2.51s WALL (       3 calls)
     mix_rho      :      1.22s CPU      2.43s WALL (       3 calls)

     Called by c_bands:
     init_us_2    :      0.46s CPU      0.56s WALL (       7 calls)
     cegterg      :     49.52s CPU     51.56s WALL (       3 calls)

     Called by sum_band:
     sum_band:wei :      0.00s CPU      0.00s WALL (       3 calls)
     sum_band:loo :     10.85s CPU     11.10s WALL (       3 calls)
     sum_band:buf :      0.00s CPU      0.00s WALL (       3 calls)
     sum_band:ini :      0.19s CPU      0.22s WALL (       3 calls)

     Called by *egterg:
     cdiaghg      :      0.02s CPU      0.06s WALL (      10 calls)
     cegterg:over :      1.20s CPU      1.20s WALL (       8 calls)
     cegterg:upda :      0.78s CPU      1.01s WALL (       8 calls)
     cegterg:last :      1.35s CPU      1.35s WALL (       6 calls)
     h_psi        :     52.36s CPU     54.12s WALL (      12 calls)
     g_psi        :      0.09s CPU      0.09s WALL (       8 calls)

     Called by h_psi:
     h_psi:calbec :      1.08s CPU      1.09s WALL (      12 calls)
     vloc_psi     :     49.98s CPU     51.19s WALL (      12 calls)
                                        0.00s GPU  (      12 calls)
     add_vuspsi   :      1.15s CPU      1.15s WALL (      12 calls)

     General routines
     calbec       :      1.08s CPU      1.09s WALL (      12 calls)
     fft          :      3.26s CPU      3.50s WALL (      50 calls)
     ffts         :      0.72s CPU      0.77s WALL (      12 calls)
     fftw         :     52.64s CPU     53.81s WALL (    1912 calls)
     davcio       :      0.00s CPU      0.18s WALL (       5 calls)

     Parallel routines

     PWSCF        :   1m18.80s CPU   1m24.02s WALL


   This run was terminated on:  22:45:32  25Jun2025            

=------------------------------------------------------------------------------=
   JOB DONE.
=------------------------------------------------------------------------------=
