

 Parallel Execution: Process Information
 ==============================================================================
 Rank   Node Name                              NodeID   MyNodeRank  NodeMaster
    0   ubuntu-kch                                0          0          0
    1   ubuntu-kch                                0          1         -1
    2   ubuntu-kch                                0          2         -1
    3   ubuntu-kch                                0          3         -1
 ==============================================================================


May use up to 7570MB of RAM as shared memory on node 0

 *******************************************************************************
 *                                                                             *
 *  --------------------------------                                           *
 *   Amsterdam Modeling Suite (AMS)              2019.405                      *
 *  --------------------------------                                           *
 *                                               r87318 2020-08-31             *
 *                                                                             *
 *                                                                             *
 *                              =================                              *
 *                              |               |                              *
 *                              |     A M S     |                              *
 *                              |               |                              *
 *                              =================                              *
 *                                                                             *
 *                                                                             *
 *   Online information and documentation:  https://www.scm.com/support/       *
 *   E-mail:  support@scm.com   info@scm.com                                   *
 *                                                                             *
 *   Scientific publications using AMS results must be properly referenced     *
 *   See the User Manuals (or the web site) for recommended citations          *
 *   The terms and conditions of the End User License Agreement apply to       *
 *   the use of AMS, https://www.scm.com/license-terms/                        *
 *                                                                             *
 **********************  x86_64_linux_intel / intelmpi  ************************
 
 Licensed to: Dr. Miroslav Ilias / Matej Bel University, Department Chemistry, Fac. Natural Sciences / Banska Bystrica / SLOVAKIA
 SCM User ID: u17848
  
 AMS 2019.405  RunTime: Dec16-2020 16:25:02  Nodes: 1  Procs: 4

 AMS jobname: ams
 AMS jobid  : 1025309819

 Start   directory: /home/milias/work/projects/open-collection/theoretical_chemistry/projects/nmr_diplomovky/HD/ams/nmr_shield/tz2p/tmp.milias.19378.0.noindex/
 Results directory: /home/milias/work/projects/open-collection/theoretical_chemistry/projects/nmr_diplomovky/HD/ams/nmr_shield/tz2p/HD.nmr_shield_blyp_tz2p.results/
 Scratch directory: /tmp/amstmp_ams_kid0.1025309819/


 Communication costs MPI_COMM_WORLD:      0.285 usec per message,   0.0033 usec per 8-byte item
 Communication costs for intra-node:      0.263 usec per message,   0.0033 usec per 8-byte item

 RNG seed: 566916428 1199058449 433144269 3006314 1624786743 500548142 1944640465 911037389



                        ********************************************************************
                        *  ADF 2019.405  RunTime: Dec16-2020 16:25:03  Nodes: 1  Procs: 4  *
                        ********************************************************************
  
       ****************************
       * SINGLE POINT CALCULATION *
       ****************************
 
--------
Geometry
--------
Atoms
  Index Symbol   x (angstrom)   y (angstrom)   z (angstrom)
      1      S     0.00000000    -0.00000000    -0.99556118
      2      C     1.40979951    -0.00000000     0.21560169
      3      H     1.33949289     0.89305597     0.84646137
      4      H     1.33949289    -0.89305597     0.84646137
      5      C     2.72087983    -0.00000000    -0.56319637
      6      H     2.83165196     0.89405510    -1.18119020
      7      H     2.83165196    -0.89405510    -1.18119020
      8      C    -1.40979951     0.00000000     0.21560169
      9      H    -1.33949289    -0.89305597     0.84646137
     10      H    -1.33949289     0.89305597     0.84646137
     11      C    -2.72087983     0.00000000    -0.56319637
     12      H    -2.83165196     0.89405510    -1.18119020
     13      H    -2.83165196    -0.89405510    -1.18119020
     14     Cl     4.14896268    -0.00000000     0.59288249
     15     Cl    -4.14896268     0.00000000     0.59288249
 
Total System Charge             0.00000
Bonding info available!
 
 
----------------
ADF Engine Input
----------------
 
 Basis
 Type TZ2P
 Core None
 End
 Save TAPE10
 XC
 GGA BLYP
 End
 Relativity
 Level None
 End
 

 Title: *** (NO TITLE) ***

 *** (NO TITLE) ***



 ===========================
 A T T A C H E D   F I L E S
 ===========================
  



 ===============================
 M O D E L   P A R A M E T E R S
 ===============================
  
 DENSITY FUNCTIONAL POTENTIAL (scf)
    LDA:                               Exchange only                           == Not Default ==
    Gradient Corrections:              Becke88 LYP                             == Not Default ==

 SPIN  (restricted / unrestr.)
    Molecule:                          Restricted                               
    Fragments:                         Restricted                               

 OTHER ASPECTS
    Relativistic Corrections:          ---                                      

    Nuclear Charge Density Model:      Point Charge Nuclei                      
    Core Treatment:                    Frozen Orbital(s)                        

    Hyperfine or Zeeman Interaction:   ---                                      


 Fragment File(s)
 ----------------
 S:
         file : /home/milias/work/projects/open-collection/theoretical_chemistry/projects/nmr_diplomovky/HD/ams/nmr_shield/tz2p/HD.nmr_shield_blyp_tz2p.results/t21.71E6B6FA.S
         jobid: 0
         title: Sulphur (TZ2P)
 C:
         file : /home/milias/work/projects/open-collection/theoretical_chemistry/projects/nmr_diplomovky/HD/ams/nmr_shield/tz2p/HD.nmr_shield_blyp_tz2p.results/t21.703F09DE.C
         jobid: 0
         title: Carbon (TZ2P)
 H:
         file : /home/milias/work/projects/open-collection/theoretical_chemistry/projects/nmr_diplomovky/HD/ams/nmr_shield/tz2p/HD.nmr_shield_blyp_tz2p.results/t21.3E8CFE58.H
         jobid: 0
         title: Hydrogen (TZ2P)
 Cl:
         file : /home/milias/work/projects/open-collection/theoretical_chemistry/projects/nmr_diplomovky/HD/ams/nmr_shield/tz2p/HD.nmr_shield_blyp_tz2p.results/t21.CEB0744.Cl
         jobid: 0
         title: Chlorine (TZ2P)



 ===============
 G E O M E T R Y  ***  3D  Molecule  ***
 ===============
  

 ATOMS
 =====                            X Y Z                    CHARGE
                                (Angstrom)             Nucl     +Core       At.Mass
                       --------------------------    ----------------       -------
    1  S               0.0000   -0.0000   -0.9956     16.00     16.00       31.9721
    2  C               1.4098   -0.0000    0.2156      6.00      6.00       12.0000
    3  H               1.3395    0.8931    0.8465      1.00      1.00        1.0078
    4  H               1.3395   -0.8931    0.8465      1.00      1.00        1.0078
    5  C               2.7209   -0.0000   -0.5632      6.00      6.00       12.0000
    6  H               2.8317    0.8941   -1.1812      1.00      1.00        1.0078
    7  H               2.8317   -0.8941   -1.1812      1.00      1.00        1.0078
    8  C              -1.4098    0.0000    0.2156      6.00      6.00       12.0000
    9  H              -1.3395   -0.8931    0.8465      1.00      1.00        1.0078
   10  H              -1.3395    0.8931    0.8465      1.00      1.00        1.0078
   11  C              -2.7209    0.0000   -0.5632      6.00      6.00       12.0000
   12  H              -2.8317    0.8941   -1.1812      1.00      1.00        1.0078
   13  H              -2.8317   -0.8941   -1.1812      1.00      1.00        1.0078
   14  Cl              4.1490   -0.0000    0.5929     17.00     17.00       34.9689
   15  Cl             -4.1490    0.0000    0.5929     17.00     17.00       34.9689


 FRAGMENTS
 =========                                     Atoms in this Fragment     Cart. coord.s (Angstrom)
                                               -------------------------------------------------------
    1  S                                                 1  S            0.0000   -0.0000   -0.9956
    2  C                                                 2  C            1.4098   -0.0000    0.2156
    3  C                                                 5  C            2.7209   -0.0000   -0.5632
    4  C                                                 8  C           -1.4098    0.0000    0.2156
    5  C                                                11  C           -2.7209    0.0000   -0.5632
    6  H                                                 3  H            1.3395    0.8931    0.8465
    7  H                                                 4  H            1.3395   -0.8931    0.8465
    8  H                                                 6  H            2.8317    0.8941   -1.1812
    9  H                                                 7  H            2.8317   -0.8941   -1.1812
   10  H                                                 9  H           -1.3395   -0.8931    0.8465
   11  H                                                10  H           -1.3395    0.8931    0.8465
   12  H                                                12  H           -2.8317    0.8941   -1.1812
   13  H                                                13  H           -2.8317   -0.8941   -1.1812
   14  Cl                                               14  Cl           4.1490   -0.0000    0.5929
   15  Cl                                               15  Cl          -4.1490    0.0000    0.5929


 Interatomic Distance Matrix (Angstrom)
 --------------------------------------

   1)     0.000
   2)     1.859   0.000
   3)     2.446   1.096   0.000
   4)     2.446   1.096   1.786   0.000
   5)     2.755   1.525   2.166   2.166   0.000
   6)     2.975   2.184   2.518   3.087   1.092   0.000
   7)     2.975   2.184   3.087   2.518   1.092   1.788   0.000
   8)     1.859   2.820   2.959   2.959   4.203   4.554   4.554   0.000
   9)     2.446   2.959   3.220   2.679   4.390   4.970   4.638   1.096   0.000
  10)     2.446   2.959   2.679   3.220   4.390   4.638   4.970   1.096   1.786   0.000
  11)     2.755   4.203   4.390   4.390   5.442   5.658   5.658   1.525   2.166   2.166
          0.000
  12)     2.975   4.554   4.638   4.970   5.658   5.663   5.939   2.184   3.087   2.518
          1.092   0.000
  13)     2.975   4.554   4.970   4.638   5.658   5.939   5.663   2.184   2.518   3.087
          1.092   1.788   0.000
  14)     4.443   2.765   2.959   2.959   1.837   2.384   2.384   5.572   5.566   5.566
          6.966   7.258   7.258   0.000
  15)     4.443   5.572   5.566   5.566   6.966   7.258   7.258   2.765   2.959   2.959
          1.837   2.384   2.384   8.298   0.000

 Min. Distance =    1.0925
 Max. Distance =    8.2979



 =====================================
 S Y M M E T R Y ,   E L E C T R O N S
 =====================================
  
 Symmetry: C(2V)

 Irreducible Representations, including subspecies
 -------------------------------------------------
 A1
 A2
 B1
 B2


 Configuration of Valence Electrons
 ==================================
 ( determined in the SCF procedure )

 Total:   82

 Net Charge: 0 (Nuclei minus Electrons)

 Aufbau principle for MO occupations will be applied through SCF cycle no.     150
 Thereafter, the program will assign electrons to MOs that are spatially
 similar to the occupied MOs in a "reference" cycle ("KeepOrbitals").
 The reference cycle is always the PREVIOUS cycle: it will evolve with
 the SCF procedure.
1
 ***************************************************************************************************



                                      ****************************************
                                      *  B U I L D : (Fragments, Functions)  *
                                      ****************************************
  



 =======
 S F O s  ***  (Symmetrized Fragment Orbitals)  ***
 =======
  
 SFOs are linear combinations of (valence) Fragment Orbitals (FOs), such that the SFOs transform as the
 irreducible representations of the (molecular) symmetry group. Each SFO is therefore characterized by
 an irrep of the molecule and by a few (or only one) generating FOs.
 The SFOs constitute a symmetry-adapted basis for the Fock matrix. The MO eigenvector coefficients in
 this basis provide a direct interpretation of the MOs in terms of Frontier Orbital Theory.

 The SFOs are combined with auxiliary Core Functions (CFs) to ensure orthogonalization on the (frozen)
 Core Orbitals (COs). The Core-orthogonalized SFOs (CSFOs) constitute the true Fock basis.

 The FOs, and hence also the (C)SFOs are combinations of the elementary basis functions (BAS). The basis
 functions that participate in the description of the SFOs depend on the irrep. The indices of the
 involved functions are printed below for each irrep.
 (The complete list of primitive basis functions is printed in another section)

 Total nr. of (C)SFOs (summation over all irreps) :   294

 NOTE: a (C)SFO that is defined as a combination of more than one FO is usually NOT normalized.



                                       === A1 ===
 Nr. of SFOs :   98
 Cartesian basis functions that participate in this irrep (total number =   252) :
      1     2     3     4    11    12    13     7    10    16
     19    22    28    23    26    38    31    36    39    99
     40   100    41   101    42   102    43   103    46   106
     49   109    52   112    44   104    47   107    50   110
     58   118    55   115    53    56   113   116    68   128
     64   124    61    66   121   126    59    62   119   122
     69   129    70   130    71   131    72   132    73   133
     76   136    79   139    82   142    74   134    77   137
     80   140    88   148    85   145    83    86   143   146
     98   158    94   154    91    96   151   156    89    92
    149   152   159   171   207   219   160   172   208   220
    161   173   209   221   164   176   212   224   162   163
    174   175   210   211   222   223   170   182   218   230
    167   169   179   181   215   217   227   229   165   166
    168   177   178   180   213   214   216   225   226   228
    183   195   231   243   184   196   232   244   185   197
    233   245   188   200   236   248   186   187   198   199
    234   235   246   247   194   206   242   254   191   193
    203   205   239   241   251   253   189   190   192   201
    202   204   237   238   240   249   250   252   255   293
    256   294   257   295   258   296   265   303   266   304
    267   305   261   299   264   302   270   308   273   311
    276   314   259   297   262   300   268   306   271   309
    274   312   282   320   279   317   277   280   315   318
    292   330   288   326   285   290   323   328   283   286
    321   324

    SFO  (index         Fragment          Generating    Expansion in Fragment Orbitals
  indx  incl.CFs)   Occup   Orb.Energy   FragmentType  Coeff.   Orbital     on Fragment
 --------------------------------------------------------------------------------------
     1       1      2.000     -88.159 au  S             1.00      1 S               1
                        (   -2398.927 eV)
     2       2      2.000      -7.723 au  S             1.00      2 S               1
                        (    -210.165 eV)
     3       3      2.000      -0.625 au  S             1.00      3 S               1
                        (     -16.996 eV)
     4       4       --         0.194 au  S             1.00      4 S               1
                        (       5.272 eV)
     5       5       --         2.041 au  S             1.00      5 S               1
                        (      55.539 eV)
     6       6       --        12.649 au  S             1.00      6 S               1
                        (     344.209 eV)
     7       7       --       199.602 au  S             1.00      7 S               1
                        (    5431.459 eV)
     8       8      2.000      -5.745 au  S             1.00      1 P:z             1
                        (    -156.338 eV)
     9       9      1.333      -0.253 au  S             1.00      2 P:z             1
                        (      -6.872 eV)
    10      10       --         0.128 au  S             1.00      3 P:z             1
                        (       3.489 eV)
    11      11       --         1.204 au  S             1.00      4 P:z             1
                        (      32.751 eV)
    12      12       --        13.021 au  S             1.00      5 P:z             1
                        (     354.332 eV)
    13      13       --         0.431 au  S             1.00      1 D:z2            1
                        (      11.720 eV)
    14      14       --         0.431 au  S             1.00      1 D:x2-y2         1
                        (      11.720 eV)
    15      15       --         1.276 au  S             1.00      1 F:z3            1
                        (      34.724 eV)
    16      16       --         1.276 au  S             1.00      1 F:z             1
                        (      34.724 eV)
    17      17      2.000     -10.063 au  C             0.71      1 S               2
                        (    -273.823 eV)               0.71      1 S               4
    18      18      2.000      -0.500 au  C             0.71      2 S               2
                        (     -13.609 eV)               0.71      2 S               4
    19      19       --         0.374 au  C             0.71      3 S               2
                        (      10.173 eV)               0.71      3 S               4
    20      20       --         5.411 au  C             0.71      4 S               2
                        (     147.253 eV)               0.71      4 S               4
    21      21       --        50.155 au  C             0.71      5 S               2
                        (    1364.777 eV)               0.71      5 S               4
    22      22      0.667      -0.193 au  C             0.71      1 P:x             2
                        (      -5.243 eV)              -0.71      1 P:x             4
    23      23       --         0.169 au  C             0.71      2 P:x             2
                        (       4.588 eV)              -0.71      2 P:x             4
    24      24       --         2.015 au  C             0.71      3 P:x             2
                        (      54.822 eV)              -0.71      3 P:x             4
    25      25      0.667      -0.193 au  C             0.71      1 P:z             2
                        (      -5.243 eV)               0.71      1 P:z             4
    26      26       --         0.169 au  C             0.71      2 P:z             2
                        (       4.588 eV)               0.71      2 P:z             4
    27      27       --         2.015 au  C             0.71      3 P:z             2
                        (      54.822 eV)               0.71      3 P:z             4
    28      28       --         1.243 au  C             0.71      1 D:z2            2
                        (      33.823 eV)               0.71      1 D:z2            4
    29      29       --         1.243 au  C             0.71      1 D:x2-y2         2
                        (      33.823 eV)               0.71      1 D:x2-y2         4
    30      30       --         1.243 au  C             0.71      1 D:xz            2
                        (      33.823 eV)              -0.71      1 D:xz            4
    31      31       --         4.016 au  C             0.71      1 F:z3            2
                        (     109.288 eV)               0.71      1 F:z3            4
    32      32       --         4.016 au  C             0.71      1 F:z             2
                        (     109.288 eV)               0.71      1 F:z             4
    33      33       --         4.016 au  C             0.71      1 F:z2x           2
                        (     109.288 eV)              -0.71      1 F:z2x           4
    34      34       --         4.016 au  C             0.71      1 F:x             2
                        (     109.288 eV)              -0.71      1 F:x             4
    35      35      2.000     -10.063 au  C             0.71      1 S               3
                        (    -273.823 eV)               0.71      1 S               5
    36      36      2.000      -0.500 au  C             0.71      2 S               3
                        (     -13.609 eV)               0.71      2 S               5
    37      37       --         0.374 au  C             0.71      3 S               3
                        (      10.173 eV)               0.71      3 S               5
    38      38       --         5.411 au  C             0.71      4 S               3
                        (     147.253 eV)               0.71      4 S               5
    39      39       --        50.155 au  C             0.71      5 S               3
                        (    1364.777 eV)               0.71      5 S               5
    40      40      0.667      -0.193 au  C             0.71      1 P:x             3
                        (      -5.243 eV)              -0.71      1 P:x             5
    41      41       --         0.169 au  C             0.71      2 P:x             3
                        (       4.588 eV)              -0.71      2 P:x             5
    42      42       --         2.015 au  C             0.71      3 P:x             3
                        (      54.822 eV)              -0.71      3 P:x             5
    43      43      0.667      -0.193 au  C             0.71      1 P:z             3
                        (      -5.243 eV)               0.71      1 P:z             5
    44      44       --         0.169 au  C             0.71      2 P:z             3
                        (       4.588 eV)               0.71      2 P:z             5
    45      45       --         2.015 au  C             0.71      3 P:z             3
                        (      54.822 eV)               0.71      3 P:z             5
    46      46       --         1.243 au  C             0.71      1 D:z2            3
                        (      33.823 eV)               0.71      1 D:z2            5
    47      47       --         1.243 au  C             0.71      1 D:x2-y2         3
                        (      33.823 eV)               0.71      1 D:x2-y2         5
    48      48       --         1.243 au  C             0.71      1 D:xz            3
                        (      33.823 eV)              -0.71      1 D:xz            5
    49      49       --         4.016 au  C             0.71      1 F:z3            3
                        (     109.288 eV)               0.71      1 F:z3            5
    50      50       --         4.016 au  C             0.71      1 F:z             3
                        (     109.288 eV)               0.71      1 F:z             5
    51      51       --         4.016 au  C             0.71      1 F:z2x           3
                        (     109.288 eV)              -0.71      1 F:z2x           5
    52      52       --         4.016 au  C             0.71      1 F:x             3
                        (     109.288 eV)              -0.71      1 F:x             5
    53      53      1.000      -0.240 au  H             0.50      1 S               6
                        (      -6.532 eV)               0.50      1 S               7
                                                        0.50      1 S              10
                                                        0.50      1 S              11
    54      54       --         0.088 au  H             0.50      2 S               6
                        (       2.394 eV)               0.50      2 S               7
                                                        0.50      2 S              10
                                                        0.50      2 S              11
    55      55       --         1.502 au  H             0.50      3 S               6
                        (      40.877 eV)               0.50      3 S               7
                                                        0.50      3 S              10
                                                        0.50      3 S              11
    56      56       --         0.406 au  H             0.50      1 P:x             6
                        (      11.052 eV)               0.50      1 P:x             7
                                                       -0.50      1 P:x            10
                                                       -0.50      1 P:x            11
    57      57       --         0.406 au  H             0.50      1 P:y             6
                        (      11.052 eV)              -0.50      1 P:y             7
                                                       -0.50      1 P:y            10
                                                        0.50      1 P:y            11
    58      58       --         0.406 au  H             0.50      1 P:z             6
                        (      11.052 eV)               0.50      1 P:z             7
                                                        0.50      1 P:z            10
                                                        0.50      1 P:z            11
    59      59       --         2.570 au  H             0.50      1 D:z2            6
                        (      69.925 eV)               0.50      1 D:z2            7
                                                        0.50      1 D:z2           10
                                                        0.50      1 D:z2           11
    60      60       --         2.570 au  H             0.50      1 D:x2-y2         6
                        (      69.925 eV)               0.50      1 D:x2-y2         7
                                                        0.50      1 D:x2-y2        10
                                                        0.50      1 D:x2-y2        11
    61      61       --         2.570 au  H             0.50      1 D:xy            6
                        (      69.925 eV)              -0.50      1 D:xy            7
                                                        0.50      1 D:xy           10
                                                       -0.50      1 D:xy           11
    62      62       --         2.570 au  H             0.50      1 D:xz            6
                        (      69.925 eV)               0.50      1 D:xz            7
                                                       -0.50      1 D:xz           10
                                                       -0.50      1 D:xz           11
    63      63       --         2.570 au  H             0.50      1 D:yz            6
                        (      69.925 eV)              -0.50      1 D:yz            7
                                                       -0.50      1 D:yz           10
                                                        0.50      1 D:yz           11
    64      64      1.000      -0.240 au  H             0.50      1 S               8
                        (      -6.532 eV)               0.50      1 S               9
                                                        0.50      1 S              12
                                                        0.50      1 S              13
    65      65       --         0.088 au  H             0.50      2 S               8
                        (       2.394 eV)               0.50      2 S               9
                                                        0.50      2 S              12
                                                        0.50      2 S              13
    66      66       --         1.502 au  H             0.50      3 S               8
                        (      40.877 eV)               0.50      3 S               9
                                                        0.50      3 S              12
                                                        0.50      3 S              13
    67      67       --         0.406 au  H             0.50      1 P:x             8
                        (      11.052 eV)               0.50      1 P:x             9
                                                       -0.50      1 P:x            12
                                                       -0.50      1 P:x            13
    68      68       --         0.406 au  H             0.50      1 P:y             8
                        (      11.052 eV)              -0.50      1 P:y             9
                                                        0.50      1 P:y            12
                                                       -0.50      1 P:y            13
    69      69       --         0.406 au  H             0.50      1 P:z             8
                        (      11.052 eV)               0.50      1 P:z             9
                                                        0.50      1 P:z            12
                                                        0.50      1 P:z            13
    70      70       --         2.570 au  H             0.50      1 D:z2            8
                        (      69.925 eV)               0.50      1 D:z2            9
                                                        0.50      1 D:z2           12
                                                        0.50      1 D:z2           13
    71      71       --         2.570 au  H             0.50      1 D:x2-y2         8
                        (      69.925 eV)               0.50      1 D:x2-y2         9
                                                        0.50      1 D:x2-y2        12
                                                        0.50      1 D:x2-y2        13
    72      72       --         2.570 au  H             0.50      1 D:xy            8
                        (      69.925 eV)              -0.50      1 D:xy            9
                                                       -0.50      1 D:xy           12
                                                        0.50      1 D:xy           13
    73      73       --         2.570 au  H             0.50      1 D:xz            8
                        (      69.925 eV)               0.50      1 D:xz            9
                                                       -0.50      1 D:xz           12
                                                       -0.50      1 D:xz           13
    74      74       --         2.570 au  H             0.50      1 D:yz            8
                        (      69.925 eV)              -0.50      1 D:yz            9
                                                        0.50      1 D:yz           12
                                                       -0.50      1 D:yz           13
    75      75      2.000    -100.762 au  Cl            0.71      1 S              14
                        (   -2741.872 eV)               0.71      1 S              15
    76      76      2.000      -9.217 au  Cl            0.71      2 S              14
                        (    -250.797 eV)               0.71      2 S              15
    77      77      2.000      -0.748 au  Cl            0.71      3 S              14
                        (     -20.362 eV)               0.71      3 S              15
    78      78       --         0.197 au  Cl            0.71      4 S              14
                        (       5.347 eV)               0.71      4 S              15
    79      79       --         2.011 au  Cl            0.71      5 S              14
                        (      54.709 eV)               0.71      5 S              15
    80      80       --        12.738 au  Cl            0.71      6 S              14
                        (     346.614 eV)               0.71      6 S              15
    81      81       --       214.675 au  Cl            0.71      7 S              14
                        (    5841.605 eV)               0.71      7 S              15
    82      82      2.000      -7.039 au  Cl            0.71      1 P:x            14
                        (    -191.541 eV)              -0.71      1 P:x            15
    83      83      1.667      -0.311 au  Cl            0.71      2 P:x            14
                        (      -8.456 eV)              -0.71      2 P:x            15
    84      84       --         0.226 au  Cl            0.71      3 P:x            14
                        (       6.147 eV)              -0.71      3 P:x            15
    85      85       --         2.102 au  Cl            0.71      4 P:x            14
                        (      57.209 eV)              -0.71      4 P:x            15
    86      86       --        18.828 au  Cl            0.71      5 P:x            14
                        (     512.342 eV)              -0.71      5 P:x            15
    87      87      2.000      -7.039 au  Cl            0.71      1 P:z            14
                        (    -191.541 eV)               0.71      1 P:z            15
    88      88      1.667      -0.311 au  Cl            0.71      2 P:z            14
                        (      -8.456 eV)               0.71      2 P:z            15
    89      89       --         0.226 au  Cl            0.71      3 P:z            14
                        (       6.147 eV)               0.71      3 P:z            15
    90      90       --         2.102 au  Cl            0.71      4 P:z            14
                        (      57.209 eV)               0.71      4 P:z            15
    91      91       --        18.828 au  Cl            0.71      5 P:z            14
                        (     512.342 eV)               0.71      5 P:z            15
    92      92       --         0.386 au  Cl            0.71      1 D:z2           14
                        (      10.511 eV)               0.71      1 D:z2           15
    93      93       --         0.386 au  Cl            0.71      1 D:x2-y2        14
                        (      10.511 eV)               0.71      1 D:x2-y2        15
    94      94       --         0.386 au  Cl            0.71      1 D:xz           14
                        (      10.511 eV)              -0.71      1 D:xz           15
    95      95       --         1.190 au  Cl            0.71      1 F:z3           14
                        (      32.371 eV)               0.71      1 F:z3           15
    96      96       --         1.190 au  Cl            0.71      1 F:z            14
                        (      32.371 eV)               0.71      1 F:z            15
    97      97       --         1.190 au  Cl            0.71      1 F:z2x          14
                        (      32.371 eV)              -0.71      1 F:z2x          15
    98      98       --         1.190 au  Cl            0.71      1 F:x            14
                        (      32.371 eV)              -0.71      1 F:x            15



                                       === A2 ===
 Nr. of SFOs :   50
 Cartesian basis functions that participate in this irrep (total number =   156) :
     24    33    45   105    48   108    51   111    57   117
     54   114    67   127    63   123    60    65   120   125
     75   135    78   138    81   141    87   147    84   144
     97   157    93   153    90    95   150   155   159   171
    207   219   160   172   208   220   161   173   209   221
    164   176   212   224   162   163   174   175   210   211
    222   223   170   182   218   230   167   169   179   181
    215   217   227   229   165   166   168   177   178   180
    213   214   216   225   226   228   183   195   231   243
    184   196   232   244   185   197   233   245   188   200
    236   248   186   187   198   199   234   235   246   247
    194   206   242   254   191   193   203   205   239   241
    251   253   189   190   192   201   202   204   237   238
    240   249   250   252   260   298   263   301   269   307
    272   310   275   313   281   319   278   316   291   329
    287   325   284   289   322   327

    SFO  (index         Fragment          Generating    Expansion in Fragment Orbitals
  indx  incl.CFs)   Occup   Orb.Energy   FragmentType  Coeff.   Orbital     on Fragment
 --------------------------------------------------------------------------------------
     1       1       --         0.431 au  S             1.00      1 D:xy            1
                        (      11.720 eV)
     2       2       --         1.276 au  S             1.00      1 F:xyz           1
                        (      34.724 eV)
     3       3      0.667      -0.193 au  C             0.71      1 P:y             2
                        (      -5.243 eV)              -0.71      1 P:y             4
     4       4       --         0.169 au  C             0.71      2 P:y             2
                        (       4.588 eV)              -0.71      2 P:y             4
     5       5       --         2.015 au  C             0.71      3 P:y             2
                        (      54.822 eV)              -0.71      3 P:y             4
     6       6       --         1.243 au  C             0.71      1 D:xy            2
                        (      33.823 eV)               0.71      1 D:xy            4
     7       7       --         1.243 au  C             0.71      1 D:yz            2
                        (      33.823 eV)              -0.71      1 D:yz            4
     8       8       --         4.016 au  C             0.71      1 F:xyz           2
                        (     109.288 eV)               0.71      1 F:xyz           4
     9       9       --         4.016 au  C             0.71      1 F:z2y           2
                        (     109.288 eV)              -0.71      1 F:z2y           4
    10      10       --         4.016 au  C             0.71      1 F:y             2
                        (     109.288 eV)              -0.71      1 F:y             4
    11      11      0.667      -0.193 au  C             0.71      1 P:y             3
                        (      -5.243 eV)              -0.71      1 P:y             5
    12      12       --         0.169 au  C             0.71      2 P:y             3
                        (       4.588 eV)              -0.71      2 P:y             5
    13      13       --         2.015 au  C             0.71      3 P:y             3
                        (      54.822 eV)              -0.71      3 P:y             5
    14      14       --         1.243 au  C             0.71      1 D:xy            3
                        (      33.823 eV)               0.71      1 D:xy            5
    15      15       --         1.243 au  C             0.71      1 D:yz            3
                        (      33.823 eV)              -0.71      1 D:yz            5
    16      16       --         4.016 au  C             0.71      1 F:xyz           3
                        (     109.288 eV)               0.71      1 F:xyz           5
    17      17       --         4.016 au  C             0.71      1 F:z2y           3
                        (     109.288 eV)              -0.71      1 F:z2y           5
    18      18       --         4.016 au  C             0.71      1 F:y             3
                        (     109.288 eV)              -0.71      1 F:y             5
    19      19      1.000      -0.240 au  H             0.50      1 S               6
                        (      -6.532 eV)              -0.50      1 S               7
                                                        0.50      1 S              10
                                                       -0.50      1 S              11
    20      20       --         0.088 au  H             0.50      2 S               6
                        (       2.394 eV)              -0.50      2 S               7
                                                        0.50      2 S              10
                                                       -0.50      2 S              11
    21      21       --         1.502 au  H             0.50      3 S               6
                        (      40.877 eV)              -0.50      3 S               7
                                                        0.50      3 S              10
                                                       -0.50      3 S              11
    22      22       --         0.406 au  H             0.50      1 P:x             6
                        (      11.052 eV)              -0.50      1 P:x             7
                                                       -0.50      1 P:x            10
                                                        0.50      1 P:x            11
    23      23       --         0.406 au  H             0.50      1 P:y             6
                        (      11.052 eV)               0.50      1 P:y             7
                                                       -0.50      1 P:y            10
                                                       -0.50      1 P:y            11
    24      24       --         0.406 au  H             0.50      1 P:z             6
                        (      11.052 eV)              -0.50      1 P:z             7
                                                        0.50      1 P:z            10
                                                       -0.50      1 P:z            11
    25      25       --         2.570 au  H             0.50      1 D:z2            6
                        (      69.925 eV)              -0.50      1 D:z2            7
                                                        0.50      1 D:z2           10
                                                       -0.50      1 D:z2           11
    26      26       --         2.570 au  H             0.50      1 D:x2-y2         6
                        (      69.925 eV)              -0.50      1 D:x2-y2         7
                                                        0.50      1 D:x2-y2        10
                                                       -0.50      1 D:x2-y2        11
    27      27       --         2.570 au  H             0.50      1 D:xy            6
                        (      69.925 eV)               0.50      1 D:xy            7
                                                        0.50      1 D:xy           10
                                                        0.50      1 D:xy           11
    28      28       --         2.570 au  H             0.50      1 D:xz            6
                        (      69.925 eV)              -0.50      1 D:xz            7
                                                       -0.50      1 D:xz           10
                                                        0.50      1 D:xz           11
    29      29       --         2.570 au  H             0.50      1 D:yz            6
                        (      69.925 eV)               0.50      1 D:yz            7
                                                       -0.50      1 D:yz           10
                                                       -0.50      1 D:yz           11
    30      30      1.000      -0.240 au  H             0.50      1 S               8
                        (      -6.532 eV)              -0.50      1 S               9
                                                       -0.50      1 S              12
                                                        0.50      1 S              13
    31      31       --         0.088 au  H             0.50      2 S               8
                        (       2.394 eV)              -0.50      2 S               9
                                                       -0.50      2 S              12
                                                        0.50      2 S              13
    32      32       --         1.502 au  H             0.50      3 S               8
                        (      40.877 eV)              -0.50      3 S               9
                                                       -0.50      3 S              12
                                                        0.50      3 S              13
    33      33       --         0.406 au  H             0.50      1 P:x             8
                        (      11.052 eV)              -0.50      1 P:x             9
                                                        0.50      1 P:x            12
                                                       -0.50      1 P:x            13
    34      34       --         0.406 au  H             0.50      1 P:y             8
                        (      11.052 eV)               0.50      1 P:y             9
                                                       -0.50      1 P:y            12
                                                       -0.50      1 P:y            13
    35      35       --         0.406 au  H             0.50      1 P:z             8
                        (      11.052 eV)              -0.50      1 P:z             9
                                                       -0.50      1 P:z            12
                                                        0.50      1 P:z            13
    36      36       --         2.570 au  H             0.50      1 D:z2            8
                        (      69.925 eV)              -0.50      1 D:z2            9
                                                       -0.50      1 D:z2           12
                                                        0.50      1 D:z2           13
    37      37       --         2.570 au  H             0.50      1 D:x2-y2         8
                        (      69.925 eV)              -0.50      1 D:x2-y2         9
                                                       -0.50      1 D:x2-y2        12
                                                        0.50      1 D:x2-y2        13
    38      38       --         2.570 au  H             0.50      1 D:xy            8
                        (      69.925 eV)               0.50      1 D:xy            9
                                                        0.50      1 D:xy           12
                                                        0.50      1 D:xy           13
    39      39       --         2.570 au  H             0.50      1 D:xz            8
                        (      69.925 eV)              -0.50      1 D:xz            9
                                                        0.50      1 D:xz           12
                                                       -0.50      1 D:xz           13
    40      40       --         2.570 au  H             0.50      1 D:yz            8
                        (      69.925 eV)               0.50      1 D:yz            9
                                                       -0.50      1 D:yz           12
                                                       -0.50      1 D:yz           13
    41      41      2.000      -7.039 au  Cl            0.71      1 P:y            14
                        (    -191.541 eV)              -0.71      1 P:y            15
    42      42      1.667      -0.311 au  Cl            0.71      2 P:y            14
                        (      -8.456 eV)              -0.71      2 P:y            15
    43      43       --         0.226 au  Cl            0.71      3 P:y            14
                        (       6.147 eV)              -0.71      3 P:y            15
    44      44       --         2.102 au  Cl            0.71      4 P:y            14
                        (      57.209 eV)              -0.71      4 P:y            15
    45      45       --        18.828 au  Cl            0.71      5 P:y            14
                        (     512.342 eV)              -0.71      5 P:y            15
    46      46       --         0.386 au  Cl            0.71      1 D:xy           14
                        (      10.511 eV)               0.71      1 D:xy           15
    47      47       --         0.386 au  Cl            0.71      1 D:yz           14
                        (      10.511 eV)              -0.71      1 D:yz           15
    48      48       --         1.190 au  Cl            0.71      1 F:xyz          14
                        (      32.371 eV)               0.71      1 F:xyz          15
    49      49       --         1.190 au  Cl            0.71      1 F:z2y          14
                        (      32.371 eV)              -0.71      1 F:z2y          15
    50      50       --         1.190 au  Cl            0.71      1 F:y            14
                        (      32.371 eV)              -0.71      1 F:y            15



                                       === B1 ===
 Nr. of SFOs :   90
 Cartesian basis functions that participate in this irrep (total number =   243) :
      5     8    14    17    20    25    34    29    32    39
     99    40   100    41   101    42   102    43   103    46
    106    49   109    52   112    44   104    47   107    50
    110    58   118    55   115    53    56   113   116    68
    128    64   124    61    66   121   126    59    62   119
    122    69   129    70   130    71   131    72   132    73
    133    76   136    79   139    82   142    74   134    77
    137    80   140    88   148    85   145    83    86   143
    146    98   158    94   154    91    96   151   156    89
     92   149   152   159   171   207   219   160   172   208
    220   161   173   209   221   164   176   212   224   162
    163   174   175   210   211   222   223   170   182   218
    230   167   169   179   181   215   217   227   229   165
    166   168   177   178   180   213   214   216   225   226
    228   183   195   231   243   184   196   232   244   185
    197   233   245   188   200   236   248   186   187   198
    199   234   235   246   247   194   206   242   254   191
    193   203   205   239   241   251   253   189   190   192
    201   202   204   237   238   240   249   250   252   255
    293   256   294   257   295   258   296   265   303   266
    304   267   305   261   299   264   302   270   308   273
    311   276   314   259   297   262   300   268   306   271
    309   274   312   282   320   279   317   277   280   315
    318   292   330   288   326   285   290   323   328   283
    286   321   324

    SFO  (index         Fragment          Generating    Expansion in Fragment Orbitals
  indx  incl.CFs)   Occup   Orb.Energy   FragmentType  Coeff.   Orbital     on Fragment
 --------------------------------------------------------------------------------------
     1       1      2.000      -5.745 au  S             1.00      1 P:x             1
                        (    -156.338 eV)
     2       2      1.333      -0.253 au  S             1.00      2 P:x             1
                        (      -6.872 eV)
     3       3       --         0.128 au  S             1.00      3 P:x             1
                        (       3.489 eV)
     4       4       --         1.204 au  S             1.00      4 P:x             1
                        (      32.751 eV)
     5       5       --        13.021 au  S             1.00      5 P:x             1
                        (     354.332 eV)
     6       6       --         0.431 au  S             1.00      1 D:xz            1
                        (      11.720 eV)
     7       7       --         1.276 au  S             1.00      1 F:z2x           1
                        (      34.724 eV)
     8       8       --         1.276 au  S             1.00      1 F:x             1
                        (      34.724 eV)
     9       9      2.000     -10.063 au  C             0.71      1 S               2
                        (    -273.823 eV)              -0.71      1 S               4
    10      10      2.000      -0.500 au  C             0.71      2 S               2
                        (     -13.609 eV)              -0.71      2 S               4
    11      11       --         0.374 au  C             0.71      3 S               2
                        (      10.173 eV)              -0.71      3 S               4
    12      12       --         5.411 au  C             0.71      4 S               2
                        (     147.253 eV)              -0.71      4 S               4
    13      13       --        50.155 au  C             0.71      5 S               2
                        (    1364.777 eV)              -0.71      5 S               4
    14      14      0.667      -0.193 au  C             0.71      1 P:x             2
                        (      -5.243 eV)               0.71      1 P:x             4
    15      15       --         0.169 au  C             0.71      2 P:x             2
                        (       4.588 eV)               0.71      2 P:x             4
    16      16       --         2.015 au  C             0.71      3 P:x             2
                        (      54.822 eV)               0.71      3 P:x             4
    17      17      0.667      -0.193 au  C             0.71      1 P:z             2
                        (      -5.243 eV)              -0.71      1 P:z             4
    18      18       --         0.169 au  C             0.71      2 P:z             2
                        (       4.588 eV)              -0.71      2 P:z             4
    19      19       --         2.015 au  C             0.71      3 P:z             2
                        (      54.822 eV)              -0.71      3 P:z             4
    20      20       --         1.243 au  C             0.71      1 D:z2            2
                        (      33.823 eV)              -0.71      1 D:z2            4
    21      21       --         1.243 au  C             0.71      1 D:x2-y2         2
                        (      33.823 eV)              -0.71      1 D:x2-y2         4
    22      22       --         1.243 au  C             0.71      1 D:xz            2
                        (      33.823 eV)               0.71      1 D:xz            4
    23      23       --         4.016 au  C             0.71      1 F:z3            2
                        (     109.288 eV)              -0.71      1 F:z3            4
    24      24       --         4.016 au  C             0.71      1 F:z             2
                        (     109.288 eV)              -0.71      1 F:z             4
    25      25       --         4.016 au  C             0.71      1 F:z2x           2
                        (     109.288 eV)               0.71      1 F:z2x           4
    26      26       --         4.016 au  C             0.71      1 F:x             2
                        (     109.288 eV)               0.71      1 F:x             4
    27      27      2.000     -10.063 au  C             0.71      1 S               3
                        (    -273.823 eV)              -0.71      1 S               5
    28      28      2.000      -0.500 au  C             0.71      2 S               3
                        (     -13.609 eV)              -0.71      2 S               5
    29      29       --         0.374 au  C             0.71      3 S               3
                        (      10.173 eV)              -0.71      3 S               5
    30      30       --         5.411 au  C             0.71      4 S               3
                        (     147.253 eV)              -0.71      4 S               5
    31      31       --        50.155 au  C             0.71      5 S               3
                        (    1364.777 eV)              -0.71      5 S               5
    32      32      0.667      -0.193 au  C             0.71      1 P:x             3
                        (      -5.243 eV)               0.71      1 P:x             5
    33      33       --         0.169 au  C             0.71      2 P:x             3
                        (       4.588 eV)               0.71      2 P:x             5
    34      34       --         2.015 au  C             0.71      3 P:x             3
                        (      54.822 eV)               0.71      3 P:x             5
    35      35      0.667      -0.193 au  C             0.71      1 P:z             3
                        (      -5.243 eV)              -0.71      1 P:z             5
    36      36       --         0.169 au  C             0.71      2 P:z             3
                        (       4.588 eV)              -0.71      2 P:z             5
    37      37       --         2.015 au  C             0.71      3 P:z             3
                        (      54.822 eV)              -0.71      3 P:z             5
    38      38       --         1.243 au  C             0.71      1 D:z2            3
                        (      33.823 eV)              -0.71      1 D:z2            5
    39      39       --         1.243 au  C             0.71      1 D:x2-y2         3
                        (      33.823 eV)              -0.71      1 D:x2-y2         5
    40      40       --         1.243 au  C             0.71      1 D:xz            3
                        (      33.823 eV)               0.71      1 D:xz            5
    41      41       --         4.016 au  C             0.71      1 F:z3            3
                        (     109.288 eV)              -0.71      1 F:z3            5
    42      42       --         4.016 au  C             0.71      1 F:z             3
                        (     109.288 eV)              -0.71      1 F:z             5
    43      43       --         4.016 au  C             0.71      1 F:z2x           3
                        (     109.288 eV)               0.71      1 F:z2x           5
    44      44       --         4.016 au  C             0.71      1 F:x             3
                        (     109.288 eV)               0.71      1 F:x             5
    45      45      1.000      -0.240 au  H             0.50      1 S               6
                        (      -6.532 eV)               0.50      1 S               7
                                                       -0.50      1 S              10
                                                       -0.50      1 S              11
    46      46       --         0.088 au  H             0.50      2 S               6
                        (       2.394 eV)               0.50      2 S               7
                                                       -0.50      2 S              10
                                                       -0.50      2 S              11
    47      47       --         1.502 au  H             0.50      3 S               6
                        (      40.877 eV)               0.50      3 S               7
                                                       -0.50      3 S              10
                                                       -0.50      3 S              11
    48      48       --         0.406 au  H             0.50      1 P:x             6
                        (      11.052 eV)               0.50      1 P:x             7
                                                        0.50      1 P:x            10
                                                        0.50      1 P:x            11
    49      49       --         0.406 au  H             0.50      1 P:y             6
                        (      11.052 eV)              -0.50      1 P:y             7
                                                        0.50      1 P:y            10
                                                       -0.50      1 P:y            11
    50      50       --         0.406 au  H             0.50      1 P:z             6
                        (      11.052 eV)               0.50      1 P:z             7
                                                       -0.50      1 P:z            10
                                                       -0.50      1 P:z            11
    51      51       --         2.570 au  H             0.50      1 D:z2            6
                        (      69.925 eV)               0.50      1 D:z2            7
                                                       -0.50      1 D:z2           10
                                                       -0.50      1 D:z2           11
    52      52       --         2.570 au  H             0.50      1 D:x2-y2         6
                        (      69.925 eV)               0.50      1 D:x2-y2         7
                                                       -0.50      1 D:x2-y2        10
                                                       -0.50      1 D:x2-y2        11
    53      53       --         2.570 au  H             0.50      1 D:xy            6
                        (      69.925 eV)              -0.50      1 D:xy            7
                                                       -0.50      1 D:xy           10
                                                        0.50      1 D:xy           11
    54      54       --         2.570 au  H             0.50      1 D:xz            6
                        (      69.925 eV)               0.50      1 D:xz            7
                                                        0.50      1 D:xz           10
                                                        0.50      1 D:xz           11
    55      55       --         2.570 au  H             0.50      1 D:yz            6
                        (      69.925 eV)              -0.50      1 D:yz            7
                                                        0.50      1 D:yz           10
                                                       -0.50      1 D:yz           11
    56      56      1.000      -0.240 au  H             0.50      1 S               8
                        (      -6.532 eV)               0.50      1 S               9
                                                       -0.50      1 S              12
                                                       -0.50      1 S              13
    57      57       --         0.088 au  H             0.50      2 S               8
                        (       2.394 eV)               0.50      2 S               9
                                                       -0.50      2 S              12
                                                       -0.50      2 S              13
    58      58       --         1.502 au  H             0.50      3 S               8
                        (      40.877 eV)               0.50      3 S               9
                                                       -0.50      3 S              12
                                                       -0.50      3 S              13
    59      59       --         0.406 au  H             0.50      1 P:x             8
                        (      11.052 eV)               0.50      1 P:x             9
                                                        0.50      1 P:x            12
                                                        0.50      1 P:x            13
    60      60       --         0.406 au  H             0.50      1 P:y             8
                        (      11.052 eV)              -0.50      1 P:y             9
                                                       -0.50      1 P:y            12
                                                        0.50      1 P:y            13
    61      61       --         0.406 au  H             0.50      1 P:z             8
                        (      11.052 eV)               0.50      1 P:z             9
                                                       -0.50      1 P:z            12
                                                       -0.50      1 P:z            13
    62      62       --         2.570 au  H             0.50      1 D:z2            8
                        (      69.925 eV)               0.50      1 D:z2            9
                                                       -0.50      1 D:z2           12
                                                       -0.50      1 D:z2           13
    63      63       --         2.570 au  H             0.50      1 D:x2-y2         8
                        (      69.925 eV)               0.50      1 D:x2-y2         9
                                                       -0.50      1 D:x2-y2        12
                                                       -0.50      1 D:x2-y2        13
    64      64       --         2.570 au  H             0.50      1 D:xy            8
                        (      69.925 eV)              -0.50      1 D:xy            9
                                                        0.50      1 D:xy           12
                                                       -0.50      1 D:xy           13
    65      65       --         2.570 au  H             0.50      1 D:xz            8
                        (      69.925 eV)               0.50      1 D:xz            9
                                                        0.50      1 D:xz           12
                                                        0.50      1 D:xz           13
    66      66       --         2.570 au  H             0.50      1 D:yz            8
                        (      69.925 eV)              -0.50      1 D:yz            9
                                                       -0.50      1 D:yz           12
                                                        0.50      1 D:yz           13
    67      67      2.000    -100.762 au  Cl            0.71      1 S              14
                        (   -2741.872 eV)              -0.71      1 S              15
    68      68      2.000      -9.217 au  Cl            0.71      2 S              14
                        (    -250.797 eV)              -0.71      2 S              15
    69      69      2.000      -0.748 au  Cl            0.71      3 S              14
                        (     -20.362 eV)              -0.71      3 S              15
    70      70       --         0.197 au  Cl            0.71      4 S              14
                        (       5.347 eV)              -0.71      4 S              15
    71      71       --         2.011 au  Cl            0.71      5 S              14
                        (      54.709 eV)              -0.71      5 S              15
    72      72       --        12.738 au  Cl            0.71      6 S              14
                        (     346.614 eV)              -0.71      6 S              15
    73      73       --       214.675 au  Cl            0.71      7 S              14
                        (    5841.605 eV)              -0.71      7 S              15
    74      74      2.000      -7.039 au  Cl            0.71      1 P:x            14
                        (    -191.541 eV)               0.71      1 P:x            15
    75      75      1.667      -0.311 au  Cl            0.71      2 P:x            14
                        (      -8.456 eV)               0.71      2 P:x            15
    76      76       --         0.226 au  Cl            0.71      3 P:x            14
                        (       6.147 eV)               0.71      3 P:x            15
    77      77       --         2.102 au  Cl            0.71      4 P:x            14
                        (      57.209 eV)               0.71      4 P:x            15
    78      78       --        18.828 au  Cl            0.71      5 P:x            14
                        (     512.342 eV)               0.71      5 P:x            15
    79      79      2.000      -7.039 au  Cl            0.71      1 P:z            14
                        (    -191.541 eV)              -0.71      1 P:z            15
    80      80      1.667      -0.311 au  Cl            0.71      2 P:z            14
                        (      -8.456 eV)              -0.71      2 P:z            15
    81      81       --         0.226 au  Cl            0.71      3 P:z            14
                        (       6.147 eV)              -0.71      3 P:z            15
    82      82       --         2.102 au  Cl            0.71      4 P:z            14
                        (      57.209 eV)              -0.71      4 P:z            15
    83      83       --        18.828 au  Cl            0.71      5 P:z            14
                        (     512.342 eV)              -0.71      5 P:z            15
    84      84       --         0.386 au  Cl            0.71      1 D:z2           14
                        (      10.511 eV)              -0.71      1 D:z2           15
    85      85       --         0.386 au  Cl            0.71      1 D:x2-y2        14
                        (      10.511 eV)              -0.71      1 D:x2-y2        15
    86      86       --         0.386 au  Cl            0.71      1 D:xz           14
                        (      10.511 eV)               0.71      1 D:xz           15
    87      87       --         1.190 au  Cl            0.71      1 F:z3           14
                        (      32.371 eV)              -0.71      1 F:z3           15
    88      88       --         1.190 au  Cl            0.71      1 F:z            14
                        (      32.371 eV)              -0.71      1 F:z            15
    89      89       --         1.190 au  Cl            0.71      1 F:z2x          14
                        (      32.371 eV)               0.71      1 F:z2x          15
    90      90       --         1.190 au  Cl            0.71      1 F:x            14
                        (      32.371 eV)               0.71      1 F:x            15



                                       === B2 ===
 Nr. of SFOs :   56
 Cartesian basis functions that participate in this irrep (total number =   163) :
      6     9    15    18    21    27    37    30    35    45
    105    48   108    51   111    57   117    54   114    67
    127    63   123    60    65   120   125    75   135    78
    138    81   141    87   147    84   144    97   157    93
    153    90    95   150   155   159   171   207   219   160
    172   208   220   161   173   209   221   164   176   212
    224   162   163   174   175   210   211   222   223   170
    182   218   230   167   169   179   181   215   217   227
    229   165   166   168   177   178   180   213   214   216
    225   226   228   183   195   231   243   184   196   232
    244   185   197   233   245   188   200   236   248   186
    187   198   199   234   235   246   247   194   206   242
    254   191   193   203   205   239   241   251   253   189
    190   192   201   202   204   237   238   240   249   250
    252   260   298   263   301   269   307   272   310   275
    313   281   319   278   316   291   329   287   325   284
    289   322   327

    SFO  (index         Fragment          Generating    Expansion in Fragment Orbitals
  indx  incl.CFs)   Occup   Orb.Energy   FragmentType  Coeff.   Orbital     on Fragment
 --------------------------------------------------------------------------------------
     1       1      2.000      -5.745 au  S             1.00      1 P:y             1
                        (    -156.338 eV)
     2       2      1.333      -0.253 au  S             1.00      2 P:y             1
                        (      -6.872 eV)
     3       3       --         0.128 au  S             1.00      3 P:y             1
                        (       3.489 eV)
     4       4       --         1.204 au  S             1.00      4 P:y             1
                        (      32.751 eV)
     5       5       --        13.021 au  S             1.00      5 P:y             1
                        (     354.332 eV)
     6       6       --         0.431 au  S             1.00      1 D:yz            1
                        (      11.720 eV)
     7       7       --         1.276 au  S             1.00      1 F:z2y           1
                        (      34.724 eV)
     8       8       --         1.276 au  S             1.00      1 F:y             1
                        (      34.724 eV)
     9       9      0.667      -0.193 au  C             0.71      1 P:y             2
                        (      -5.243 eV)               0.71      1 P:y             4
    10      10       --         0.169 au  C             0.71      2 P:y             2
                        (       4.588 eV)               0.71      2 P:y             4
    11      11       --         2.015 au  C             0.71      3 P:y             2
                        (      54.822 eV)               0.71      3 P:y             4
    12      12       --         1.243 au  C             0.71      1 D:xy            2
                        (      33.823 eV)              -0.71      1 D:xy            4
    13      13       --         1.243 au  C             0.71      1 D:yz            2
                        (      33.823 eV)               0.71      1 D:yz            4
    14      14       --         4.016 au  C             0.71      1 F:xyz           2
                        (     109.288 eV)              -0.71      1 F:xyz           4
    15      15       --         4.016 au  C             0.71      1 F:z2y           2
                        (     109.288 eV)               0.71      1 F:z2y           4
    16      16       --         4.016 au  C             0.71      1 F:y             2
                        (     109.288 eV)               0.71      1 F:y             4
    17      17      0.667      -0.193 au  C             0.71      1 P:y             3
                        (      -5.243 eV)               0.71      1 P:y             5
    18      18       --         0.169 au  C             0.71      2 P:y             3
                        (       4.588 eV)               0.71      2 P:y             5
    19      19       --         2.015 au  C             0.71      3 P:y             3
                        (      54.822 eV)               0.71      3 P:y             5
    20      20       --         1.243 au  C             0.71      1 D:xy            3
                        (      33.823 eV)              -0.71      1 D:xy            5
    21      21       --         1.243 au  C             0.71      1 D:yz            3
                        (      33.823 eV)               0.71      1 D:yz            5
    22      22       --         4.016 au  C             0.71      1 F:xyz           3
                        (     109.288 eV)              -0.71      1 F:xyz           5
    23      23       --         4.016 au  C             0.71      1 F:z2y           3
                        (     109.288 eV)               0.71      1 F:z2y           5
    24      24       --         4.016 au  C             0.71      1 F:y             3
                        (     109.288 eV)               0.71      1 F:y             5
    25      25      1.000      -0.240 au  H             0.50      1 S               6
                        (      -6.532 eV)              -0.50      1 S               7
                                                       -0.50      1 S              10
                                                        0.50      1 S              11
    26      26       --         0.088 au  H             0.50      2 S               6
                        (       2.394 eV)              -0.50      2 S               7
                                                       -0.50      2 S              10
                                                        0.50      2 S              11
    27      27       --         1.502 au  H             0.50      3 S               6
                        (      40.877 eV)              -0.50      3 S               7
                                                       -0.50      3 S              10
                                                        0.50      3 S              11
    28      28       --         0.406 au  H             0.50      1 P:x             6
                        (      11.052 eV)              -0.50      1 P:x             7
                                                        0.50      1 P:x            10
                                                       -0.50      1 P:x            11
    29      29       --         0.406 au  H             0.50      1 P:y             6
                        (      11.052 eV)               0.50      1 P:y             7
                                                        0.50      1 P:y            10
                                                        0.50      1 P:y            11
    30      30       --         0.406 au  H             0.50      1 P:z             6
                        (      11.052 eV)              -0.50      1 P:z             7
                                                       -0.50      1 P:z            10
                                                        0.50      1 P:z            11
    31      31       --         2.570 au  H             0.50      1 D:z2            6
                        (      69.925 eV)              -0.50      1 D:z2            7
                                                       -0.50      1 D:z2           10
                                                        0.50      1 D:z2           11
    32      32       --         2.570 au  H             0.50      1 D:x2-y2         6
                        (      69.925 eV)              -0.50      1 D:x2-y2         7
                                                       -0.50      1 D:x2-y2        10
                                                        0.50      1 D:x2-y2        11
    33      33       --         2.570 au  H             0.50      1 D:xy            6
                        (      69.925 eV)               0.50      1 D:xy            7
                                                       -0.50      1 D:xy           10
                                                       -0.50      1 D:xy           11
    34      34       --         2.570 au  H             0.50      1 D:xz            6
                        (      69.925 eV)              -0.50      1 D:xz            7
                                                        0.50      1 D:xz           10
                                                       -0.50      1 D:xz           11
    35      35       --         2.570 au  H             0.50      1 D:yz            6
                        (      69.925 eV)               0.50      1 D:yz            7
                                                        0.50      1 D:yz           10
                                                        0.50      1 D:yz           11
    36      36      1.000      -0.240 au  H             0.50      1 S               8
                        (      -6.532 eV)              -0.50      1 S               9
                                                        0.50      1 S              12
                                                       -0.50      1 S              13
    37      37       --         0.088 au  H             0.50      2 S               8
                        (       2.394 eV)              -0.50      2 S               9
[...]

                              -0.201     0.979    -0.019
                              -0.667    -0.151    -0.730
                               0.718     0.134    -0.683
                        -----------------------------------
 
================================================================================
 
 
===  TOTAL NMR SHIELDING TENSOR (ppm)
 
                        ***********************************
                        CARTESIAN AXIS REPRESENTATION

                        ==== total shielding tensor
                        -----------------------------------
                              29.660    -0.811     1.923
                              -0.811    25.481     4.679
                               1.923     4.679    28.434
                        -----------------------------------
                                  isotropic =     27.858

                        ***********************************
                        -----------------------------------
                        PRINCIPAL AXIS REPRESENTATION

                        ==== Principal components:

                              21.645    29.582    32.348
 
                        ==== Principal Axis System:

                              -0.221     0.885     0.410
                              -0.773    -0.415     0.480
                               0.595    -0.211     0.775
                        -----------------------------------
################################################################################
********************************************************************************
****  N U C L E U S : C(4)
 
 ADF-GUI atom: C(8)
 Internal NMR numbering of atoms: C(4)
 
 
================================================================================
 
 
===  PARAMAGNETIC NMR SHIELDING TENSORS (ppm)
 
    ===     paramagnetic b^(1) tensor       ===     paramagnetic u^(1) tensor
    -----------------------------------     -----------------------------------
           0.000     0.000     0.000            -228.037    -0.000    -4.742
           0.000     0.000     0.000              -0.000  -261.087     0.000
           0.000     0.000     0.000              -4.742     0.000  -219.844
    -----------------------------------     -----------------------------------
              isotropic =      0.000                  isotropic =   -236.322

    ===     paramagnetic s^(1) tensor       ===     paramagnetic gauge tensor
    -----------------------------------     -----------------------------------
         158.427    -0.000    -2.401              -4.847     0.000    -0.883
          -0.000   133.365    -0.000               0.000    -0.150     0.000
          -2.401    -0.000   127.146              -0.883     0.000     0.257
    -----------------------------------     -----------------------------------
              isotropic =    139.646                  isotropic =     -1.580

                        ***********************************
                        CARTESIAN AXIS REPRESENTATION

                        ==== total paramagnetic tensor
                        -----------------------------------
                             -74.457    -0.000    -8.026
                              -0.000  -127.872     0.000
                              -8.026     0.000   -92.441
                        -----------------------------------
                                  isotropic =    -98.256

                        ***********************************
                        -----------------------------------
                        PRINCIPAL AXIS REPRESENTATION

                        ==== Principal components:

                            -127.872   -95.502   -71.396
 
                        ==== Principal Axis System:

                               0.000     0.356     0.934
                               1.000     0.000    -0.000
                              -0.000     0.934    -0.356
                        -----------------------------------
 
================================================================================
 
 
===  DIAMAGNETIC NMR SHIELDING TENSORS (ppm)
 
    ===       diamagnetic core tensor       ===    diamagnetic valence tensor
    -----------------------------------     -----------------------------------
           0.000     0.000     0.000             236.929     0.000    -1.533
           0.000     0.000     0.000               0.000   226.535    -0.000
           0.000     0.000     0.000              -1.533    -0.000   230.119
    -----------------------------------     -----------------------------------
              isotropic =      0.000                  isotropic =    231.194

                        ***********************************
                        CARTESIAN AXIS REPRESENTATION

                        ==== total diamagnetic tensor
                        -----------------------------------
                             236.929     0.000    -1.533
                               0.000   226.535    -0.000
                              -1.533    -0.000   230.119
                        -----------------------------------
                                  isotropic =    231.194

                        ***********************************
                        -----------------------------------
                        PRINCIPAL AXIS REPRESENTATION

                        ==== Principal components:

                             226.535   229.790   237.258
 
                        ==== Principal Axis System:

                               0.000     0.210    -0.978
                              -1.000    -0.000    -0.000
                              -0.000     0.978     0.210
                        -----------------------------------
 
================================================================================
 
 
===  TOTAL NMR SHIELDING TENSOR (ppm)
 
                        ***********************************
                        CARTESIAN AXIS REPRESENTATION

                        ==== total shielding tensor
                        -----------------------------------
                             162.472    -0.000    -9.559
                              -0.000    98.663     0.000
                              -9.559     0.000   137.678
                        -----------------------------------
                                  isotropic =    132.938

                        ***********************************
                        -----------------------------------
                        PRINCIPAL AXIS REPRESENTATION

                        ==== Principal components:

                              98.663   134.421   165.729
 
                        ==== Principal Axis System:

                              -0.000     0.323     0.947
                               1.000     0.000    -0.000
                              -0.000     0.947    -0.323
                        -----------------------------------
################################################################################
********************************************************************************
****  N U C L E U S : H(10)
 
 ADF-GUI atom: H(9)
 Internal NMR numbering of atoms: H(10)
 
 
================================================================================
 
 
===  PARAMAGNETIC NMR SHIELDING TENSORS (ppm)
 
    ===     paramagnetic b^(1) tensor       ===     paramagnetic u^(1) tensor
    -----------------------------------     -----------------------------------
           0.000     0.000     0.000               1.189    -7.104     5.217
           0.000     0.000     0.000              -7.104   -28.124     5.403
           0.000     0.000     0.000               5.217     5.403   -15.324
    -----------------------------------     -----------------------------------
              isotropic =      0.000                  isotropic =    -14.086

    ===     paramagnetic s^(1) tensor       ===     paramagnetic gauge tensor
    -----------------------------------     -----------------------------------
          -0.177     6.963    -6.176              -0.318     0.475    -0.340
           6.963    23.137    -3.989               0.475     3.491     1.068
          -6.176    -3.989    13.174              -0.340     1.068     2.098
    -----------------------------------     -----------------------------------
              isotropic =     12.044                  isotropic =      1.757

                        ***********************************
                        CARTESIAN AXIS REPRESENTATION

                        ==== total paramagnetic tensor
                        -----------------------------------
                               0.693     0.334    -1.298
                               0.334    -1.497     2.483
                              -1.298     2.483    -0.052
                        -----------------------------------
                                  isotropic =     -0.285

                        ***********************************
                        -----------------------------------
                        PRINCIPAL AXIS REPRESENTATION

                        ==== Principal components:

                              -3.622     0.460     2.306
 
                        ==== Principal Axis System:

                               0.242     0.828    -0.506
                              -0.753     0.489     0.440
                               0.612     0.275     0.742
                        -----------------------------------
 
================================================================================
 
 
===  DIAMAGNETIC NMR SHIELDING TENSORS (ppm)
 
    ===       diamagnetic core tensor       ===    diamagnetic valence tensor
    -----------------------------------     -----------------------------------
           0.000     0.000     0.000              29.932    -0.355    -0.683
           0.000     0.000     0.000              -0.355    28.729    -6.073
           0.000     0.000     0.000              -0.683    -6.073    27.907
    -----------------------------------     -----------------------------------
              isotropic =      0.000                  isotropic =     28.856

                        ***********************************
                        CARTESIAN AXIS REPRESENTATION

                        ==== total diamagnetic tensor
                        -----------------------------------
                              29.932    -0.355    -0.683
                              -0.355    28.729    -6.073
                              -0.683    -6.073    27.907
                        -----------------------------------
                                  isotropic =     28.856

                        ***********************************
                        -----------------------------------
                        PRINCIPAL AXIS REPRESENTATION

                        ==== Principal components:

                              22.161    29.993    34.415
 
                        ==== Principal Axis System:

                               0.095     0.994    -0.047
                               0.679    -0.099    -0.728
                               0.728    -0.037     0.684
                        -----------------------------------
 
================================================================================
 
 
===  TOTAL NMR SHIELDING TENSOR (ppm)
 
                        ***********************************
                        CARTESIAN AXIS REPRESENTATION

                        ==== total shielding tensor
                        -----------------------------------
                              30.625    -0.021    -1.981
                              -0.021    27.233    -3.590
                              -1.981    -3.590    27.855
                        -----------------------------------
                                  isotropic =     28.571

                        ***********************************
                        -----------------------------------
                        PRINCIPAL AXIS REPRESENTATION

                        ==== Principal components:

                              23.666    29.599    32.448
 
                        ==== Principal Axis System:

                              -0.199     0.720    -0.665
                              -0.696    -0.581    -0.422
                              -0.690     0.379     0.616
                        -----------------------------------
################################################################################
********************************************************************************
****  N U C L E U S : H(11)
 
 ADF-GUI atom: H(10)
 Internal NMR numbering of atoms: H(11)
 
 
================================================================================
 
 
===  PARAMAGNETIC NMR SHIELDING TENSORS (ppm)
 
    ===     paramagnetic b^(1) tensor       ===     paramagnetic u^(1) tensor
    -----------------------------------     -----------------------------------
           0.000     0.000     0.000               1.189     7.104     5.217
           0.000     0.000     0.000               7.104   -28.124    -5.403
           0.000     0.000     0.000               5.217    -5.403   -15.324
    -----------------------------------     -----------------------------------
              isotropic =      0.000                  isotropic =    -14.086

    ===     paramagnetic s^(1) tensor       ===     paramagnetic gauge tensor
    -----------------------------------     -----------------------------------
          -0.178    -6.963    -6.176              -0.318    -0.475    -0.339
          -6.963    23.137     3.989              -0.475     3.491    -1.068
          -6.176     3.989    13.173              -0.339    -1.068     2.099
    -----------------------------------     -----------------------------------
              isotropic =     12.044                  isotropic =      1.757

                        ***********************************
                        CARTESIAN AXIS REPRESENTATION

                        ==== total paramagnetic tensor
                        -----------------------------------
                               0.693    -0.334    -1.299
                              -0.334    -1.497    -2.483
                              -1.299    -2.483    -0.052
                        -----------------------------------
                                  isotropic =     -0.285

                        ***********************************
                        -----------------------------------
                        PRINCIPAL AXIS REPRESENTATION

                        ==== Principal components:

                              -3.622     0.460     2.306
 
                        ==== Principal Axis System:

                              -0.242     0.828    -0.506
                              -0.753    -0.490    -0.440
                              -0.612     0.275     0.742
                        -----------------------------------
 
================================================================================
 
 
===  DIAMAGNETIC NMR SHIELDING TENSORS (ppm)
 
    ===       diamagnetic core tensor       ===    diamagnetic valence tensor
    -----------------------------------     -----------------------------------
           0.000     0.000     0.000              29.932     0.355    -0.683
           0.000     0.000     0.000               0.355    28.729     6.073
           0.000     0.000     0.000              -0.683     6.073    27.907
    -----------------------------------     -----------------------------------
              isotropic =      0.000                  isotropic =     28.856

                        ***********************************
                        CARTESIAN AXIS REPRESENTATION

                        ==== total diamagnetic tensor
                        -----------------------------------
                              29.932     0.355    -0.683
                               0.355    28.729     6.073
                              -0.683     6.073    27.907
                        -----------------------------------
                                  isotropic =     28.856

                        ***********************************
                        -----------------------------------
                        PRINCIPAL AXIS REPRESENTATION

                        ==== Principal components:

                              22.161    29.993    34.415
 
                        ==== Principal Axis System:

                               0.095     0.994     0.047
                              -0.679     0.099    -0.728
                               0.728    -0.037    -0.684
                        -----------------------------------
 
================================================================================
 
 
===  TOTAL NMR SHIELDING TENSOR (ppm)
 
                        ***********************************
                        CARTESIAN AXIS REPRESENTATION

                        ==== total shielding tensor
                        -----------------------------------
                              30.625     0.021    -1.981
                               0.021    27.233     3.590
                              -1.981     3.590    27.855
                        -----------------------------------
                                  isotropic =     28.571

                        ***********************************
                        -----------------------------------
                        PRINCIPAL AXIS REPRESENTATION

                        ==== Principal components:

                              23.666    29.599    32.448
 
                        ==== Principal Axis System:

                               0.199     0.720     0.665
                              -0.696     0.581    -0.422
                               0.690     0.379    -0.616
                        -----------------------------------
 *******************************************************************************

                             N M R   E X I T
 NORMAL TERMINATION



 =================
 Timing Statistics
 =================
  
 Total Used :                     CPU=       34.16      System=        0.11     Elapsed=       35.98

 Calls  Section                     ( Mean, Percentage )
 ---------------------------------------------------------------------------------------------------
     3  ><      ................      0.00    0.03             0.00    3.58             0.01    0.04
     1  INIT    ................      0.41    1.19             0.01    5.83             0.42    1.17
     1  RDEIGX  ................      0.03    0.09             0.00    3.69             0.04    0.11
     1  AOF1K   ................      1.62    4.73             0.01    7.43             1.64    4.57
    13  AOPKK   ................      0.33   12.53             0.00   22.37             0.37   13.27
    13  XSIGP   ................      0.01    0.24             0.00    0.08             0.01    0.23
    13  AODKKK  ................      2.13   81.13             0.00   56.97             2.23   80.56
    13  XDV     ................      0.00    0.05             0.00    0.05             0.00    0.05
    13  XSIGD   ................      0.00    0.00             0.00    0.00             0.00    0.00
     1  EXIT PROCEDURE .........      0.00    0.00             0.00    0.00             0.00    0.01


 Currently Open Files (EXIT00)
 ====================

 Unit    Access Format  Status   Type       Ident (file)
 -------------------------------------------------------
   3      SEQ    FORM   TRANSP  NORMAL      LOGFILE
                                          ( /home/milias/work/projects/open-collection/theoretical_chemistry/projects/nmr_diplomovky/HD/ams/nmr_shield/tz2p/HD.nmr_shield_blyp_tz2p.logfile )
