4
	Energy:       2.8927989
N         -1.71837        0.07081        0.00985
H         -0.67526        0.05321       -0.00072
H         -2.05639       -0.80098        0.47270
H         -2.05640        0.07031       -0.97718
