19
	Energy:     340.2501300
Ti        -1.81120       -0.99534        0.31281
O         -3.74417       -1.43415       -0.62959
H         -4.09048       -2.30549       -0.99060
H         -4.51202       -0.81255       -0.81102
O         -2.38665        1.09062        0.65379
H         -2.21902        1.89264        0.07237
H         -2.88396        1.49601        1.42787
O          0.13364       -0.62748        1.25050
H          0.89837       -1.26599        1.37587
H          0.49537        0.21361        1.66492
O         -1.15649       -3.06093       -0.05344
H         -1.22355       -3.86387        0.54672
H         -0.71459       -3.44666       -0.86929
O         -1.03018       -0.39763       -1.65046
H         -0.11220       -0.06969       -1.89403
H         -1.49817       -0.38784       -2.53909
O         -2.65904       -1.57270        2.24883
H         -2.22591       -1.58282        3.15609
H         -3.58526       -1.90091        2.45908
