

 Parallel Execution: Process Information
 ==============================================================================
 Rank   Node Name                              NodeID   MyNodeRank  NodeMaster
    0   ubuntu-kch                                0          0          0
    1   ubuntu-kch                                0          1         -1
    2   ubuntu-kch                                0          2         -1
    3   ubuntu-kch                                0          3         -1
 ==============================================================================


May use up to 7570MB of RAM as shared memory on node 0

 *******************************************************************************
 *                                                                             *
 *  --------------------------------                                           *
 *   Amsterdam Modeling Suite (AMS)              2020.202                      *
 *  --------------------------------                                           *
 *                                               r90167 2020-12-05             *
 *                                                                             *
 *                                                                             *
 *                              =================                              *
 *                              |               |                              *
 *                              |     A M S     |                              *
 *                              |               |                              *
 *                              =================                              *
 *                                                                             *
 *                                                                             *
 *   Online information and documentation:  https://www.scm.com/support/       *
 *   E-mail:  support@scm.com   info@scm.com                                   *
 *                                                                             *
 *   Scientific publications using AMS results must be properly referenced     *
 *   See the User Manuals (or the web site) for recommended citations          *
 *   The terms and conditions of the End User License Agreement apply to       *
 *   the use of AMS, https://www.scm.com/license-terms/                        *
 *                                                                             *
 **********************  x86_64_linux_intel / intelmpi  ************************
 
 Licensed to: Dr. Miroslav Ilias / Matej Bel University, Department Chemistry, Fac. Natural Sciences / Banska Bystrica / SLOVAKIA
 SCM User ID: u17848
  
 AMS 2020.202  RunTime: Feb08-2021 19:40:02  Nodes: 1  Procs: 4

 AMS jobname: ams
 AMS jobid  : 931278651

 Start   directory: /home/milias/work/projects/open-collection/theoretical_chemistry/projects/nmr_diplomovky/HD/ams/pbe0_tz2p_good/cosmo-acetone/tmp.milias.766961.0.noindex/
 Results directory: /home/milias/work/projects/open-collection/theoretical_chemistry/projects/nmr_diplomovky/HD/ams/pbe0_tz2p_good/cosmo-acetone/HD.geopt_freq_nmr_shield_pbe0_tz2p_good_cosmo-acetone.results/
 Scratch directory: /tmp/amstmp_ams_kid0.931278651/


 Communication costs MPI_COMM_WORLD:      0.219 usec per message,   0.0048 usec per 8-byte item
 Communication costs for intra-node:      0.338 usec per message,   0.0032 usec per 8-byte item

 RNG seed: -2047060831 1235407296 -1620649299 313121245 708897249 -1022677976 1278574187 -509119103



                        ********************************************************************
                        *  ADF 2020.202  RunTime: Feb08-2021 19:40:02  Nodes: 1  Procs: 4  *
                        ********************************************************************
  
       ***************************
       *  GEOMETRY OPTIMIZATION  *
       ***************************

Optimization Method                    Quasi Newton
Optimization Coordinates               Delocalized Coordinates
Optimize lattice                       F
 
 ------------------------------------------------------
 Convergence criteria (Hartree,Angstrom)
 ------------------------------------------------------
 Maximum gradient               0.001000000000
 Maximum rms gradient           0.000666666667
 Maximum step allowed           0.001000000000
 Maximum rms step allowed       0.000666666667
 Maximum energy change allowe   0.000150000000
 Maximum stress energy allowe   0.000500000000
 
Initial model Hessian                  Automatic Hessian
 
------------------------------------
Quasi-Newton Optimizer Parameters
------------------------------------
Hessian Update Method                  BFGS
Maximum number of steps                  250
First GDIIS cycle                          0
Maximum GDIIS vectors                      0
Trust radius (bohr)                        0.200000
Trust radius varies                        T
Constraints converged at all steps         T
Use projector                              T
 
 Rigid motions settings for: old optimizer
 Atomic rotations (x,y,z):     T T T
 Atomic translations (x,y,z):  T T T
 Tolerance:                   1.000000000000000E-006
 
--------
Geometry
--------
Atoms
  Index Symbol   x (angstrom)   y (angstrom)   z (angstrom)
      1      S     0.00000000    -0.00000000    -0.96270310       adf.R=1.792
      2      C     1.37539800    -0.00000000     0.21759479       adf.R=1.700
      3      H     1.30859250     0.88826987     0.84667183       adf.R=1.350
      4      H     1.30859250    -0.88826987     0.84667183       adf.R=1.350
      5      C     2.66969601    -0.00000000    -0.55831387       adf.R=1.700
      6      H     2.76938648     0.88788554    -1.17805410       adf.R=1.350
      7      H     2.76938648    -0.88788554    -1.17805410       adf.R=1.350
      8      C    -1.37539800     0.00000000     0.21759479       adf.R=1.700
      9      H    -1.30859250    -0.88826987     0.84667183       adf.R=1.350
     10      H    -1.30859250     0.88826987     0.84667183       adf.R=1.350
     11      C    -2.66969601     0.00000000    -0.55831387       adf.R=1.700
     12      H    -2.76938648     0.88788554    -1.17805410       adf.R=1.350
     13      H    -2.76938648    -0.88788554    -1.17805410       adf.R=1.350
     14     Cl     4.06608205    -0.00000000     0.56288473       adf.R=1.725
     15     Cl    -4.06608205     0.00000000     0.56288473       adf.R=1.725
 
Total System Charge             0.00000
Bonding info available!
 
 
----------------
ADF Engine Input
----------------
 
 Basis
 Type TZ2P
 Core None
 End
 Save TAPE10
 XC
 Hybrid PBE0
 End
 Relativity
 Level None
 End
 Solvation
 Surf Delley
 Solv name=Acetone cav0=0.0 cav1=0.0067639
 Charged method=CONJ
 C-Mat POT
 SCF VAR ALL
 CSMRSP
 End
 NumericalQuality Good
 

 Title: *** (NO TITLE) ***

Number of symmetry operators: 4
Schoenflies symbol:           C(2V)
 Using automatic Hessian for delocalized coordinates.
 *** GOStep1 ***

 SOLVATION
-------------------------------------------

  The Delley construction of COSMO surface surface is calculated

       Division Level for Surface Triangles (NDIV)                  3
       Final Division Level for Triangles (NFDIV)                   1
       Radius of the Solvent (RSOL)                           3.08000 angstr
  Dielectric Constant (EPSL)                                 20.70000

       COSMO equation is solved iteratively-               conjugate-gradient

       Maximun of Iterations for Charges (NCIX)                  1000
       Criterion for Charge convergence (CCNV)                1.0E-08

  COSMO charges included variationally in SCF

       COSMO included at every SCF cycle

  Geometry-dependent empirical factor                         0.00000

  C-Matrix calculated in cspmtx

  In cspmtx, C-Matrix calculated using fitted potential

-------------------------------------------



 -------------------------------------------
  COSMO surface
  Area             =          597.107
  Volume           =         1030.794
  Number of Points =         1357
 -------------------------------------------



 ======================
 RI Hartree-Fock Scheme
 ======================
  
 Fit Set Quality     : GOOD
 Integration Quality : GOOD
 Threshold Quality   : GOOD
 Response Quality    : DEFAULT
 Is Range Separated  :  F
 
 RIHartreeFock Dependency: number of modified vectors:          12
 cosmo_calcen: 0.5 (esolb+esolc) (Hartrees) =   -0.008752

 Solvation energy (screening term,uncorrected) =     -5.491680 kcal/mol

 Solvation energy (dispersion and cavitation terms) =      1.076335 kcal/mol
 Solvation Energy Contributions (Hartrees)
          esola   esolb+esolc
     0.00875155   -0.01750310
 esol last cycle   -0.00875155
  
 Hartree-Fock exchange energy:   -103.694150239975     
 cosmo_calcen: 0.5 (esolb+esolc) (Hartrees) =   -0.008752

 Solvation energy (screening term,uncorrected) =     -5.491680 kcal/mol

 Solvation energy (dispersion and cavitation terms) =      1.076335 kcal/mol
 Solvation Energy Contributions (Hartrees)
          esola   esolb+esolc
     0.00875155   -0.01750310
 esol last cycle   -0.00875155
  pauli hf:                              1.356138171689228         36.9024           850.99          3560.54
  elstat hf:                            -1.320656241504555        -35.9369          -828.72         -3467.38

 Energy gradients wrt nuclear displacements
 ==========================================

     Atom      Cartesian (a.u./angstrom)
                 X         Y         Z
 ----------------------------------------
     1 S     0.000000  0.000000 -0.000267
     2 C    -0.000620  0.000000 -0.000725
     3 H     0.000308  0.000022  0.000217
     4 H     0.000308 -0.000022  0.000217
     5 C     0.001147  0.000000  0.001325
     6 H    -0.000250  0.000072 -0.000206
     7 H    -0.000250 -0.000072 -0.000206
     8 C     0.000620 -0.000000 -0.000725
     9 H    -0.000308 -0.000022  0.000217
    10 H    -0.000308  0.000022  0.000217
    11 C    -0.001147  0.000000  0.001325
    12 H     0.000250  0.000072 -0.000206
    13 H     0.000250 -0.000072 -0.000206
    14 Cl   -0.000599  0.000000 -0.000489
    15 Cl    0.000599  0.000000 -0.000489
 ----------------------------------------
 Mulliken charges used for AMS results%charges...
 
----------------------------------------------------------------------
Geometry Convergence after Step   1       (Hartree/Angstrom,Angstrom)
----------------------------------------------------------------------
current energy                               -3.34998625 Hartree
energy change                      -3.34998625     0.00015000    F
constrained gradient max            0.00132465     0.00100000    F
constrained gradient rms            0.00047700     0.00066667    T
gradient max                        0.00132465
gradient rms                        0.00047700
cart. step max                      0.00150549     0.00100000    F
cart. step rms                      0.00068070     0.00066667    F
 
 
--------
Geometry
--------
Atoms
  Index Symbol   x (angstrom)   y (angstrom)   z (angstrom)
      1      S     0.00000000     0.00000000    -0.96305464       adf.R=1.792
      2      C     1.37516212    -0.00000000     0.21741316       adf.R=1.700
      3      H     1.30708701     0.88839015     0.84606310       adf.R=1.350
      4      H     1.30708701    -0.88839015     0.84606310       adf.R=1.350
      5      C     2.66954682    -0.00000000    -0.55853959       adf.R=1.700
      6      H     2.77051719     0.88798365    -1.17778132       adf.R=1.350
      7      H     2.77051719    -0.88798365    -1.17778132       adf.R=1.350
      8      C    -1.37516212     0.00000000     0.21741316       adf.R=1.700
      9      H    -1.30708701    -0.88839015     0.84606310       adf.R=1.350
     10      H    -1.30708701     0.88839015     0.84606310       adf.R=1.350
     11      C    -2.66954682     0.00000000    -0.55853959       adf.R=1.700
     12      H    -2.77051719     0.88798365    -1.17778132       adf.R=1.350
     13      H    -2.77051719    -0.88798365    -1.17778132       adf.R=1.350
     14     Cl     4.06530829    -0.00000000     0.56413975       adf.R=1.725
     15     Cl    -4.06530829     0.00000000     0.56413975       adf.R=1.725
 
Total System Charge             0.00000
Bonding info available!
 
 *** GOStep2 ***

 SOLVATION
-------------------------------------------

  The Delley construction of COSMO surface surface is calculated

       Division Level for Surface Triangles (NDIV)                  3
       Final Division Level for Triangles (NFDIV)                   1
       Radius of the Solvent (RSOL)                           3.08000 angstr
  Dielectric Constant (EPSL)                                 20.70000

       COSMO equation is solved iteratively-               conjugate-gradient

       Maximun of Iterations for Charges (NCIX)                  1000
       Criterion for Charge convergence (CCNV)                1.0E-08

  COSMO charges included variationally in SCF

       COSMO included at every SCF cycle

  Geometry-dependent empirical factor                         0.00000

  C-Matrix calculated in cspmtx

  In cspmtx, C-Matrix calculated using fitted potential

-------------------------------------------



 -------------------------------------------
  COSMO surface
  Area             =          597.095
  Volume           =         1030.744
  Number of Points =         1357
 -------------------------------------------



 ======================
 RI Hartree-Fock Scheme
 ======================
  
 Fit Set Quality     : GOOD
 Integration Quality : GOOD
 Threshold Quality   : GOOD
 Response Quality    : DEFAULT
 Is Range Separated  :  F
 
 RIHartreeFock Dependency: number of modified vectors:          12
 cosmo_calcen: 0.5 (esolb+esolc) (Hartrees) =   -0.008777

 Solvation energy (screening term,uncorrected) =     -5.507604 kcal/mol

 Solvation energy (dispersion and cavitation terms) =      1.076314 kcal/mol
 Solvation Energy Contributions (Hartrees)
          esola   esolb+esolc
     0.00877693   -0.01755385
 esol last cycle   -0.00877693
  
 Hartree-Fock exchange energy:   -103.694142129807     
 cosmo_calcen: 0.5 (esolb+esolc) (Hartrees) =   -0.008777

 Solvation energy (screening term,uncorrected) =     -5.507606 kcal/mol

 Solvation energy (dispersion and cavitation terms) =      1.076314 kcal/mol
 Solvation Energy Contributions (Hartrees)
          esola   esolb+esolc
     0.00877693   -0.01755385
 esol last cycle   -0.00877693
  pauli hf:                              1.355411604278792         36.8826           850.53          3558.63
  elstat hf:                            -1.320546843169065        -35.9339          -828.66         -3467.10

 Energy gradients wrt nuclear displacements
 ==========================================

     Atom      Cartesian (a.u./angstrom)
                 X         Y         Z
 ----------------------------------------
     1 S     0.000000  0.000000  0.000121
     2 C    -0.000367  0.000000 -0.000252
     3 H     0.000064  0.000014  0.000113
     4 H     0.000064 -0.000014  0.000113
     5 C     0.000822  0.000000  0.000619
     6 H    -0.000069  0.000035 -0.000123
     7 H    -0.000069 -0.000035 -0.000123
     8 C     0.000367 -0.000000 -0.000252
     9 H    -0.000064 -0.000014  0.000113
    10 H    -0.000064  0.000014  0.000113
    11 C    -0.000822 -0.000000  0.000619
    12 H     0.000069  0.000035 -0.000123
    13 H     0.000069 -0.000035 -0.000123
    14 Cl   -0.000580 -0.000000 -0.000407
    15 Cl    0.000580  0.000000 -0.000407
 ----------------------------------------
 Mulliken charges used for AMS results%charges...

 dE(predicted):    -0.21455E-05, dE(actual):    -0.35088E-05, Trust radius:    0.200000, all in a.u.
 
---------------------------------------------------------
Geometry Convergence after Step   2       ** CONVERGED **
---------------------------------------------------------
current energy                               -3.34998976 Hartree
energy change                      -0.00000351     0.00015000    T
constrained gradient max            0.00082154     0.00100000    T
constrained gradient rms            0.00028615     0.00066667    T
gradient max                        0.00082154
gradient rms                        0.00028615
cart. step max                      0.00094226     0.00100000    T
cart. step rms                      0.00049363     0.00066667    T
 
Geometry optimization converged

Optimized geometry:
 
--------
Geometry
--------
Atoms
  Index Symbol   x (angstrom)   y (angstrom)   z (angstrom)
      1      S     0.00000000     0.00000000    -0.96305464       adf.R=1.792
      2      C     1.37516212    -0.00000000     0.21741316       adf.R=1.700
      3      H     1.30708701     0.88839015     0.84606310       adf.R=1.350
      4      H     1.30708701    -0.88839015     0.84606310       adf.R=1.350
      5      C     2.66954682    -0.00000000    -0.55853959       adf.R=1.700
      6      H     2.77051719     0.88798365    -1.17778132       adf.R=1.350
      7      H     2.77051719    -0.88798365    -1.17778132       adf.R=1.350
      8      C    -1.37516212     0.00000000     0.21741316       adf.R=1.700
      9      H    -1.30708701    -0.88839015     0.84606310       adf.R=1.350
     10      H    -1.30708701     0.88839015     0.84606310       adf.R=1.350
     11      C    -2.66954682     0.00000000    -0.55853959       adf.R=1.700
     12      H    -2.77051719     0.88798365    -1.17778132       adf.R=1.350
     13      H    -2.77051719    -0.88798365    -1.17778132       adf.R=1.350
     14     Cl     4.06530829    -0.00000000     0.56413975       adf.R=1.725
     15     Cl    -4.06530829     0.00000000     0.56413975       adf.R=1.725
 
Total System Charge             0.00000
Bonding info available!
 
Performing a single point calculation on the final geometry ...

 *** adf ***



 ===========================
 A T T A C H E D   F I L E S
 ===========================
  
 Restart/tmp/amstmp_ams_kid0.931278651/GOStep2.rkf*** GOStep2 ***



 ===============================
 M O D E L   P A R A M E T E R S
 ===============================
  
 DENSITY FUNCTIONAL POTENTIAL (scf)
    Hybrid:                            PBE0                                    == Not Default ==

 SPIN  (restricted / unrestr.)
    Molecule:                          Restricted                               
    Fragments:                         Restricted                               

 OTHER ASPECTS
    Relativistic Corrections:          ---                                     == Not Default ==

    Nuclear Charge Density Model:      Point Charge Nuclei                      
    Core Treatment:                    Frozen Orbital(s)                        

    Hyperfine or Zeeman Interaction:   ---                                      

 SOLVATION
-------------------------------------------

  The Delley construction of COSMO surface surface is calculated

       Division Level for Surface Triangles (NDIV)                  3
       Final Division Level for Triangles (NFDIV)                   1
       Radius of the Solvent (RSOL)                           3.08000 angstr
  Dielectric Constant (EPSL)                                 20.70000

       COSMO equation is solved iteratively-               conjugate-gradient

       Maximun of Iterations for Charges (NCIX)                  1000
       Criterion for Charge convergence (CCNV)                1.0E-08

  COSMO charges included variationally in SCF

       COSMO included at every SCF cycle

  Geometry-dependent empirical factor                         0.00000

  C-Matrix calculated in cspmtx

  In cspmtx, C-Matrix calculated using fitted potential

-------------------------------------------




 ===============
 G E O M E T R Y  ***  3D  Molecule  ***
 ===============
  

 ATOMS
 =====                            X Y Z                    CHARGE                     RADIUS
                                (Angstrom)             Nucl     +Core       At.Mass (Angstrom)
                       --------------------------    ----------------       ------- ----------
    1  S               0.0000    0.0000   -0.9631     16.00     16.00       31.9721    1.7920
    2  C               1.3752   -0.0000    0.2174      6.00      6.00       12.0000    1.7000
    3  H               1.3071    0.8884    0.8461      1.00      1.00        1.0078    1.3500
    4  H               1.3071   -0.8884    0.8461      1.00      1.00        1.0078    1.3500
    5  C               2.6695   -0.0000   -0.5585      6.00      6.00       12.0000    1.7000
    6  H               2.7705    0.8880   -1.1778      1.00      1.00        1.0078    1.3500
    7  H               2.7705   -0.8880   -1.1778      1.00      1.00        1.0078    1.3500
    8  C              -1.3752    0.0000    0.2174      6.00      6.00       12.0000    1.7000
    9  H              -1.3071   -0.8884    0.8461      1.00      1.00        1.0078    1.3500
   10  H              -1.3071    0.8884    0.8461      1.00      1.00        1.0078    1.3500
   11  C              -2.6695    0.0000   -0.5585      6.00      6.00       12.0000    1.7000
   12  H              -2.7705    0.8880   -1.1778      1.00      1.00        1.0078    1.3500
   13  H              -2.7705   -0.8880   -1.1778      1.00      1.00        1.0078    1.3500
   14  Cl              4.0653   -0.0000    0.5641     17.00     17.00       34.9689    1.7250
   15  Cl             -4.0653    0.0000    0.5641     17.00     17.00       34.9689    1.7250


 FRAGMENTS
 =========                                     Atoms in this Fragment     Cart. coord.s (Angstrom)
                                               -------------------------------------------------------
    1  S                                                 1  S            0.0000    0.0000   -0.9631
    2  C                                                 2  C            1.3752   -0.0000    0.2174
    3  C                                                 5  C            2.6695   -0.0000   -0.5585
    4  C                                                 8  C           -1.3752    0.0000    0.2174
    5  C                                                11  C           -2.6695    0.0000   -0.5585
    6  H                                                 3  H            1.3071    0.8884    0.8461
    7  H                                                 4  H            1.3071   -0.8884    0.8461
    8  H                                                 6  H            2.7705    0.8880   -1.1778
    9  H                                                 7  H            2.7705   -0.8880   -1.1778
   10  H                                                 9  H           -1.3071   -0.8884    0.8461
   11  H                                                10  H           -1.3071    0.8884    0.8461
   12  H                                                12  H           -2.7705    0.8880   -1.1778
   13  H                                                13  H           -2.7705   -0.8880   -1.1778
   14  Cl                                               14  Cl           4.0653   -0.0000    0.5641
   15  Cl                                               15  Cl          -4.0653    0.0000    0.5641


 Interatomic Distance Matrix (Angstrom)
 --------------------------------------

   1)     0.000
   2)     1.812   0.000
   3)     2.402   1.090   0.000
   4)     2.402   1.090   1.777   0.000
   5)     2.700   1.509   2.149   2.149   0.000
   6)     2.917   2.164   2.498   3.065   1.087   0.000
   7)     2.917   2.164   3.065   2.498   1.087   1.776   0.000
   8)     1.812   2.750   2.895   2.895   4.118   4.463   4.463   0.000
   9)     2.402   2.895   3.161   2.614   4.310   4.887   4.552   1.090   0.000
  10)     2.402   2.895   2.614   3.161   4.310   4.552   4.887   1.090   1.777   0.000
  11)     2.700   4.118   4.310   4.310   5.339   5.547   5.547   1.509   2.149   2.149
          0.000
  12)     2.917   4.463   4.552   4.887   5.547   5.541   5.819   2.164   3.065   2.498
          1.087   0.000
  13)     2.917   4.463   4.887   4.552   5.547   5.819   5.541   2.164   2.498   3.065
          1.087   1.776   0.000
  14)     4.343   2.712   2.911   2.911   1.791   2.345   2.345   5.452   5.453   5.453
          6.828   7.110   7.110   0.000
  15)     4.343   5.452   5.453   5.453   6.828   7.110   7.110   2.712   2.911   2.911
          1.791   2.345   2.345   8.131   0.000

 Min. Distance =    1.0873
 Max. Distance =    8.1306



 =====================================
 S Y M M E T R Y ,   E L E C T R O N S
 =====================================
  
 Symmetry: C(2V)

 Irreducible Representations, including subspecies
 -------------------------------------------------
 A1
 A2
 B1
 B2

 Symmetry is NOT used when fitting density


 Configuration of Valence Electrons
 ==================================
 ( determined in the SCF procedure )

 Total:   82

 Net Charge: 0 (Nuclei minus Electrons)

 Aufbau principle for MO occupations will be applied through SCF cycle no.     150
 Thereafter, the program will assign electrons to MOs that are spatially
 similar to the occupied MOs in a "reference" cycle ("KeepOrbitals").
 The reference cycle is always the PREVIOUS cycle: it will evolve with
 the SCF procedure.
1
 ***************************************************************************************************



                                      ****************************************
                                      *  B U I L D : (Fragments, Functions)  *
                                      ****************************************
  



 =======
 S F O s  ***  (Symmetrized Fragment Orbitals)  ***
 =======
  
 SFOs are linear combinations of (valence) Fragment Orbitals (FOs), such that the SFOs transform as the
 irreducible representations of the (molecular) symmetry group. Each SFO is therefore characterized by
 an irrep of the molecule and by a few (or only one) generating FOs.
 The SFOs constitute a symmetry-adapted basis for the Fock matrix. The MO eigenvector coefficients in
 this basis provide a direct interpretation of the MOs in terms of Frontier Orbital Theory.

 The SFOs are combined with auxiliary Core Functions (CFs) to ensure orthogonalization on the (frozen)
 Core Orbitals (COs). The Core-orthogonalized SFOs (CSFOs) constitute the true Fock basis.

 The FOs, and hence also the (C)SFOs are combinations of the elementary basis functions (BAS). The basis
 functions that participate in the description of the SFOs depend on the irrep. The indices of the
 involved functions are printed below for each irrep.
 (The complete list of primitive basis functions is printed in another section)

 Total nr. of (C)SFOs (summation over all irreps) :   294

 NOTE: a (C)SFO that is defined as a combination of more than one FO is usually NOT normalized.



                                       === A1 ===
 Nr. of SFOs :   98
 Cartesian basis functions that participate in this irrep (total number =   252) :
      1     2     3     4    11    12    13     7    10    16
     19    22    28    23    26    38    31    36    39    99
     40   100    41   101    42   102    43   103    46   106
     49   109    52   112    44   104    47   107    50   110
     58   118    55   115    53    56   113   116    68   128
     64   124    61    66   121   126    59    62   119   122
     69   129    70   130    71   131    72   132    73   133
     76   136    79   139    82   142    74   134    77   137
     80   140    88   148    85   145    83    86   143   146
     98   158    94   154    91    96   151   156    89    92
    149   152   159   171   207   219   160   172   208   220
    161   173   209   221   164   176   212   224   162   163
    174   175   210   211   222   223   170   182   218   230
    167   169   179   181   215   217   227   229   165   166
    168   177   178   180   213   214   216   225   226   228
    183   195   231   243   184   196   232   244   185   197
    233   245   188   200   236   248   186   187   198   199
    234   235   246   247   194   206   242   254   191   193
    203   205   239   241   251   253   189   190   192   201
    202   204   237   238   240   249   250   252   255   293
    256   294   257   295   258   296   265   303   266   304
    267   305   261   299   264   302   270   308   273   311
    276   314   259   297   262   300   268   306   271   309
    274   312   282   320   279   317   277   280   315   318
    292   330   288   326   285   290   323   328   283   286
    321   324

    SFO  (index         Fragment          Generating    Expansion in Fragment Orbitals
  indx  incl.CFs)   Occup   Orb.Energy   FragmentType  Coeff.   Orbital     on Fragment
 --------------------------------------------------------------------------------------
     1       1      2.000     -89.098 au  S             1.00      1 S               1
                        (   -2424.489 eV)
     2       2      2.000      -8.072 au  S             1.00      2 S               1
                        (    -219.643 eV)
     3       3      2.000      -0.710 au  S             1.00      3 S               1
                        (     -19.307 eV)
     4       4       --         0.231 au  S             1.00      4 S               1
                        (       6.280 eV)
     5       5       --         2.125 au  S             1.00      5 S               1
                        (      57.822 eV)
     6       6       --        12.877 au  S             1.00      6 S               1
                        (     350.390 eV)
     7       7       --       200.702 au  S             1.00      7 S               1
                        (    5461.371 eV)
     8       8      2.000      -6.002 au  S             1.00      1 P:z             1
                        (    -163.314 eV)
     9       9      1.333      -0.279 au  S             1.00      2 P:z             1
                        (      -7.592 eV)
    10      10       --         0.156 au  S             1.00      3 P:z             1
                        (       4.258 eV)
    11      11       --         1.281 au  S             1.00      4 P:z             1
                        (      34.851 eV)
    12      12       --        13.316 au  S             1.00      5 P:z             1
                        (     362.345 eV)
    13      13       --         0.491 au  S             1.00      1 D:z2            1
                        (      13.368 eV)
    14      14       --         0.491 au  S             1.00      1 D:x2-y2         1
                        (      13.368 eV)
    15      15       --         1.336 au  S             1.00      1 F:z3            1
                        (      36.349 eV)
    16      16       --         1.336 au  S             1.00      1 F:z             1
                        (      36.349 eV)
    17      17      2.000     -10.406 au  C             0.71      1 S               2
                        (    -283.169 eV)               0.71      1 S               4
    18      18      2.000      -0.583 au  C             0.71      2 S               2
                        (     -15.858 eV)               0.71      2 S               4
    19      19       --         0.415 au  C             0.71      3 S               2
                        (      11.281 eV)               0.71      3 S               4
    20      20       --         5.555 au  C             0.71      4 S               2
                        (     151.157 eV)               0.71      4 S               4
    21      21       --        50.670 au  C             0.71      5 S               2
                        (    1378.798 eV)               0.71      5 S               4
    22      22      0.667      -0.186 au  C             0.71      1 P:x             2
                        (      -5.051 eV)              -0.71      1 P:x             4
    23      23       --         0.203 au  C             0.71      2 P:x             2
                        (       5.518 eV)              -0.71      2 P:x             4
    24      24       --         2.125 au  C             0.71      3 P:x             2
                        (      57.838 eV)              -0.71      3 P:x             4
    25      25      0.667      -0.186 au  C             0.71      1 P:z             2
                        (      -5.051 eV)               0.71      1 P:z             4
    26      26       --         0.203 au  C             0.71      2 P:z             2
                        (       5.518 eV)               0.71      2 P:z             4
    27      27       --         2.125 au  C             0.71      3 P:z             2
                        (      57.838 eV)               0.71      3 P:z             4
    28      28       --         1.300 au  C             0.71      1 D:z2            2
                        (      35.363 eV)               0.71      1 D:z2            4
    29      29       --         1.300 au  C             0.71      1 D:x2-y2         2
                        (      35.363 eV)               0.71      1 D:x2-y2         4
    30      30       --         1.300 au  C             0.71      1 D:xz            2
                        (      35.363 eV)              -0.71      1 D:xz            4
    31      31       --         4.097 au  C             0.71      1 F:z3            2
                        (     111.488 eV)               0.71      1 F:z3            4
    32      32       --         4.097 au  C             0.71      1 F:z             2
                        (     111.488 eV)               0.71      1 F:z             4
    33      33       --         4.097 au  C             0.71      1 F:z2x           2
                        (     111.488 eV)              -0.71      1 F:z2x           4
    34      34       --         4.097 au  C             0.71      1 F:x             2
                        (     111.488 eV)              -0.71      1 F:x             4
    35      35      2.000     -10.406 au  C             0.71      1 S               3
                        (    -283.169 eV)               0.71      1 S               5
    36      36      2.000      -0.583 au  C             0.71      2 S               3
                        (     -15.858 eV)               0.71      2 S               5
    37      37       --         0.415 au  C             0.71      3 S               3
                        (      11.281 eV)               0.71      3 S               5
    38      38       --         5.555 au  C             0.71      4 S               3
                        (     151.157 eV)               0.71      4 S               5
    39      39       --        50.670 au  C             0.71      5 S               3
                        (    1378.798 eV)               0.71      5 S               5
    40      40      0.667      -0.186 au  C             0.71      1 P:x             3
                        (      -5.051 eV)              -0.71      1 P:x             5
    41      41       --         0.203 au  C             0.71      2 P:x             3
                        (       5.518 eV)              -0.71      2 P:x             5
    42      42       --         2.125 au  C             0.71      3 P:x             3
                        (      57.838 eV)              -0.71      3 P:x             5
    43      43      0.667      -0.186 au  C             0.71      1 P:z             3
                        (      -5.051 eV)               0.71      1 P:z             5
    44      44       --         0.203 au  C             0.71      2 P:z             3
                        (       5.518 eV)               0.71      2 P:z             5
    45      45       --         2.125 au  C             0.71      3 P:z             3
                        (      57.838 eV)               0.71      3 P:z             5
    46      46       --         1.300 au  C             0.71      1 D:z2            3
                        (      35.363 eV)               0.71      1 D:z2            5
    47      47       --         1.300 au  C             0.71      1 D:x2-y2         3
                        (      35.363 eV)               0.71      1 D:x2-y2         5
    48      48       --         1.300 au  C             0.71      1 D:xz            3
                        (      35.363 eV)              -0.71      1 D:xz            5
    49      49       --         4.097 au  C             0.71      1 F:z3            3
                        (     111.488 eV)               0.71      1 F:z3            5
    50      50       --         4.097 au  C             0.71      1 F:z             3
                        (     111.488 eV)               0.71      1 F:z             5
    51      51       --         4.097 au  C             0.71      1 F:z2x           3
                        (     111.488 eV)              -0.71      1 F:z2x           5
    52      52       --         4.097 au  C             0.71      1 F:x             3
                        (     111.488 eV)              -0.71      1 F:x             5
    53      53      1.000      -0.242 au  H             0.50      1 S               6
                        (      -6.582 eV)               0.50      1 S               7
                                                        0.50      1 S              10
                                                        0.50      1 S              11
    54      54       --         0.113 au  H             0.50      2 S               6
                        (       3.073 eV)               0.50      2 S               7
                                                        0.50      2 S              10
                                                        0.50      2 S              11
    55      55       --         1.599 au  H             0.50      3 S               6
                        (      43.507 eV)               0.50      3 S               7
                                                        0.50      3 S              10
                                                        0.50      3 S              11
    56      56       --         0.445 au  H             0.50      1 P:x             6
                        (      12.103 eV)               0.50      1 P:x             7
                                                       -0.50      1 P:x            10
                                                       -0.50      1 P:x            11
    57      57       --         0.445 au  H             0.50      1 P:y             6
                        (      12.103 eV)              -0.50      1 P:y             7
                                                       -0.50      1 P:y            10
                                                        0.50      1 P:y            11
    58      58       --         0.445 au  H             0.50      1 P:z             6
                        (      12.103 eV)               0.50      1 P:z             7
                                                        0.50      1 P:z            10
                                                        0.50      1 P:z            11
    59      59       --         2.628 au  H             0.50      1 D:z2            6
                        (      71.513 eV)               0.50      1 D:z2            7
                                                        0.50      1 D:z2           10
                                                        0.50      1 D:z2           11
    60      60       --         2.628 au  H             0.50      1 D:x2-y2         6
                        (      71.513 eV)               0.50      1 D:x2-y2         7
                                                        0.50      1 D:x2-y2        10
                                                        0.50      1 D:x2-y2        11
    61      61       --         2.628 au  H             0.50      1 D:xy            6
                        (      71.513 eV)              -0.50      1 D:xy            7
                                                        0.50      1 D:xy           10
                                                       -0.50      1 D:xy           11
    62      62       --         2.628 au  H             0.50      1 D:xz            6
                        (      71.513 eV)               0.50      1 D:xz            7
                                                       -0.50      1 D:xz           10
                                                       -0.50      1 D:xz           11
    63      63       --         2.628 au  H             0.50      1 D:yz            6
                        (      71.513 eV)              -0.50      1 D:yz            7
                                                       -0.50      1 D:yz           10
                                                        0.50      1 D:yz           11
    64      64      1.000      -0.242 au  H             0.50      1 S               8
                        (      -6.582 eV)               0.50      1 S               9
                                                        0.50      1 S              12
                                                        0.50      1 S              13
    65      65       --         0.113 au  H             0.50      2 S               8
                        (       3.073 eV)               0.50      2 S               9
                                                        0.50      2 S              12
                                                        0.50      2 S              13
    66      66       --         1.599 au  H             0.50      3 S               8
                        (      43.507 eV)               0.50      3 S               9
                                                        0.50      3 S              12
                                                        0.50      3 S              13
    67      67       --         0.445 au  H             0.50      1 P:x             8
                        (      12.103 eV)               0.50      1 P:x             9
                                                       -0.50      1 P:x            12
                                                       -0.50      1 P:x            13
    68      68       --         0.445 au  H             0.50      1 P:y             8
                        (      12.103 eV)              -0.50      1 P:y             9
                                                        0.50      1 P:y            12
                                                       -0.50      1 P:y            13
    69      69       --         0.445 au  H             0.50      1 P:z             8
                        (      12.103 eV)               0.50      1 P:z             9
                                                        0.50      1 P:z            12
                                                        0.50      1 P:z            13
    70      70       --         2.628 au  H             0.50      1 D:z2            8
                        (      71.513 eV)               0.50      1 D:z2            9
                                                        0.50      1 D:z2           12
                                                        0.50      1 D:z2           13
    71      71       --         2.628 au  H             0.50      1 D:x2-y2         8
                        (      71.513 eV)               0.50      1 D:x2-y2         9
                                                        0.50      1 D:x2-y2        12
                                                        0.50      1 D:x2-y2        13
    72      72       --         2.628 au  H             0.50      1 D:xy            8
                        (      71.513 eV)              -0.50      1 D:xy            9
                                                       -0.50      1 D:xy           12
                                                        0.50      1 D:xy           13
    73      73       --         2.628 au  H             0.50      1 D:xz            8
                        (      71.513 eV)               0.50      1 D:xz            9
                                                       -0.50      1 D:xz           12
                                                       -0.50      1 D:xz           13
    74      74       --         2.628 au  H             0.50      1 D:yz            8
                        (      71.513 eV)              -0.50      1 D:yz            9
                                                        0.50      1 D:yz           12
                                                       -0.50      1 D:yz           13
    75      75      2.000    -101.760 au  Cl            0.71      1 S              14
                        (   -2769.023 eV)               0.71      1 S              15
    76      76      2.000      -9.584 au  Cl            0.71      2 S              14
                        (    -260.807 eV)               0.71      2 S              15
    77      77      2.000      -0.848 au  Cl            0.71      3 S              14
                        (     -23.065 eV)               0.71      3 S              15
    78      78       --         0.237 au  Cl            0.71      4 S              14
                        (       6.461 eV)               0.71      4 S              15
    79      79       --         2.095 au  Cl            0.71      5 S              14
                        (      57.011 eV)               0.71      5 S              15
    80      80       --        12.974 au  Cl            0.71      6 S              14
                        (     353.034 eV)               0.71      6 S              15
    81      81       --       215.823 au  Cl            0.71      7 S              14
                        (    5872.843 eV)               0.71      7 S              15
    82      82      2.000      -7.312 au  Cl            0.71      1 P:x            14
                        (    -198.964 eV)              -0.71      1 P:x            15
    83      83      1.667      -0.356 au  Cl            0.71      2 P:x            14
                        (      -9.692 eV)              -0.71      2 P:x            15
    84      84       --         0.265 au  Cl            0.71      3 P:x            14
                        (       7.201 eV)              -0.71      3 P:x            15
    85      85       --         2.209 au  Cl            0.71      4 P:x            14
                        (      60.097 eV)              -0.71      4 P:x            15
    86      86       --        19.178 au  Cl            0.71      5 P:x            14
                        (     521.872 eV)              -0.71      5 P:x            15
    87      87      2.000      -7.312 au  Cl            0.71      1 P:z            14
                        (    -198.964 eV)               0.71      1 P:z            15
    88      88      1.667      -0.356 au  Cl            0.71      2 P:z            14
                        (      -9.692 eV)               0.71      2 P:z            15
    89      89       --         0.265 au  Cl            0.71      3 P:z            14
                        (       7.201 eV)               0.71      3 P:z            15
    90      90       --         2.209 au  Cl            0.71      4 P:z            14
                        (      60.097 eV)               0.71      4 P:z            15
    91      91       --        19.178 au  Cl            0.71      5 P:z            14
                        (     521.872 eV)               0.71      5 P:z            15
    92      92       --         0.442 au  Cl            0.71      1 D:z2           14
                        (      12.026 eV)               0.71      1 D:z2           15
    93      93       --         0.442 au  Cl            0.71      1 D:x2-y2        14
                        (      12.026 eV)               0.71      1 D:x2-y2        15
    94      94       --         0.442 au  Cl            0.71      1 D:xz           14
                        (      12.026 eV)              -0.71      1 D:xz           15
    95      95       --         1.250 au  Cl            0.71      1 F:z3           14
                        (      34.015 eV)               0.71      1 F:z3           15
    96      96       --         1.250 au  Cl            0.71      1 F:z            14
                        (      34.015 eV)               0.71      1 F:z            15
    97      97       --         1.250 au  Cl            0.71      1 F:z2x          14
                        (      34.015 eV)              -0.71      1 F:z2x          15
    98      98       --         1.250 au  Cl            0.71      1 F:x            14
                        (      34.015 eV)              -0.71      1 F:x            15



                                       === A2 ===
 Nr. of SFOs :   50
 Cartesian basis functions that participate in this irrep (total number =   156) :
     24    33    45   105    48   108    51   111    57   117
     54   114    67   127    63   123    60    65   120   125
     75   135    78   138    81   141    87   147    84   144
     97   157    93   153    90    95   150   155   159   171
    207   219   160   172   208   220   161   173   209   221
    164   176   212   224   162   163   174   175   210   211
    222   223   170   182   218   230   167   169   179   181
    215   217   227   229   165   166   168   177   178   180
    213   214   216   225   226   228   183   195   231   243
    184   196   232   244   185   197   233   245   188   200
    236   248   186   187   198   199   234   235   246   247
    194   206   242   254   191   193   203   205   239   241
    251   253   189   190   192   201   202   204   237   238
    240   249   250   252   260   298   263   301   269   307
    272   310   275   313   281   319   278   316   291   329
    287   325   284   289   322   327

    SFO  (index         Fragment          Generating    Expansion in Fragment Orbitals
  indx  incl.CFs)   Occup   Orb.Energy   FragmentType  Coeff.   Orbital     on Fragment
 --------------------------------------------------------------------------------------
     1       1       --         0.491 au  S             1.00      1 D:xy            1
                        (      13.368 eV)
     2       2       --         1.336 au  S             1.00      1 F:xyz           1
                        (      36.349 eV)
     3       3      0.667      -0.186 au  C             0.71      1 P:y             2
                        (      -5.051 eV)              -0.71      1 P:y             4
     4       4       --         0.203 au  C             0.71      2 P:y             2
                        (       5.518 eV)              -0.71      2 P:y             4
     5       5       --         2.125 au  C             0.71      3 P:y             2
                        (      57.838 eV)              -0.71      3 P:y             4
     6       6       --         1.300 au  C             0.71      1 D:xy            2
                        (      35.363 eV)               0.71      1 D:xy            4
     7       7       --         1.300 au  C             0.71      1 D:yz            2
                        (      35.363 eV)              -0.71      1 D:yz            4
     8       8       --         4.097 au  C             0.71      1 F:xyz           2
                        (     111.488 eV)               0.71      1 F:xyz           4
     9       9       --         4.097 au  C             0.71      1 F:z2y           2
                        (     111.488 eV)              -0.71      1 F:z2y           4
    10      10       --         4.097 au  C             0.71      1 F:y             2
                        (     111.488 eV)              -0.71      1 F:y             4
    11      11      0.667      -0.186 au  C             0.71      1 P:y             3
                        (      -5.051 eV)              -0.71      1 P:y             5
    12      12       --         0.203 au  C             0.71      2 P:y             3
                        (       5.518 eV)              -0.71      2 P:y             5
    13      13       --         2.125 au  C             0.71      3 P:y             3
                        (      57.838 eV)              -0.71      3 P:y             5
    14      14       --         1.300 au  C             0.71      1 D:xy            3
                        (      35.363 eV)               0.71      1 D:xy            5
    15      15       --         1.300 au  C             0.71      1 D:yz            3
                        (      35.363 eV)              -0.71      1 D:yz            5
    16      16       --         4.097 au  C             0.71      1 F:xyz           3
                        (     111.488 eV)               0.71      1 F:xyz           5
    17      17       --         4.097 au  C             0.71      1 F:z2y           3
                        (     111.488 eV)              -0.71      1 F:z2y           5
    18      18       --         4.097 au  C             0.71      1 F:y             3
                        (     111.488 eV)              -0.71      1 F:y             5
    19      19      1.000      -0.242 au  H             0.50      1 S               6
                        (      -6.582 eV)              -0.50      1 S               7
                                                        0.50      1 S              10
                                                       -0.50      1 S              11
    20      20       --         0.113 au  H             0.50      2 S               6
                        (       3.073 eV)              -0.50      2 S               7
                                                        0.50      2 S              10
                                                       -0.50      2 S              11
    21      21       --         1.599 au  H             0.50      3 S               6
                        (      43.507 eV)              -0.50      3 S               7
                                                        0.50      3 S              10
                                                       -0.50      3 S              11
    22      22       --         0.445 au  H             0.50      1 P:x             6
                        (      12.103 eV)              -0.50      1 P:x             7
                                                       -0.50      1 P:x            10
                                                        0.50      1 P:x            11
    23      23       --         0.445 au  H             0.50      1 P:y             6
                        (      12.103 eV)               0.50      1 P:y             7
                                                       -0.50      1 P:y            10
                                                       -0.50      1 P:y            11
    24      24       --         0.445 au  H             0.50      1 P:z             6
                        (      12.103 eV)              -0.50      1 P:z             7
                                                        0.50      1 P:z            10
                                                       -0.50      1 P:z            11
    25      25       --         2.628 au  H             0.50      1 D:z2            6
                        (      71.513 eV)              -0.50      1 D:z2            7
                                                        0.50      1 D:z2           10
                                                       -0.50      1 D:z2           11
    26      26       --         2.628 au  H             0.50      1 D:x2-y2         6
                        (      71.513 eV)              -0.50      1 D:x2-y2         7
                                                        0.50      1 D:x2-y2        10
                                                       -0.50      1 D:x2-y2        11
    27      27       --         2.628 au  H             0.50      1 D:xy            6
                        (      71.513 eV)               0.50      1 D:xy            7
                                                        0.50      1 D:xy           10
                                                        0.50      1 D:xy           11
    28      28       --         2.628 au  H             0.50      1 D:xz            6
                        (      71.513 eV)              -0.50      1 D:xz            7
                                                       -0.50      1 D:xz           10
                                                        0.50      1 D:xz           11
    29      29       --         2.628 au  H             0.50      1 D:yz            6
                        (      71.513 eV)               0.50      1 D:yz            7
                                                       -0.50      1 D:yz           10
                                                       -0.50      1 D:yz           11
    30      30      1.000      -0.242 au  H             0.50      1 S               8
                        (      -6.582 eV)              -0.50      1 S               9
                                                       -0.50      1 S              12
                                                        0.50      1 S              13
    31      31       --         0.113 au  H             0.50      2 S               8
                        (       3.073 eV)              -0.50      2 S               9
                                                       -0.50      2 S              12
                                                        0.50      2 S              13
    32      32       --         1.599 au  H             0.50      3 S               8
                        (      43.507 eV)              -0.50      3 S               9
                                                       -0.50      3 S              12
                                                        0.50      3 S              13
    33      33       --         0.445 au  H             0.50      1 P:x             8
                        (      12.103 eV)              -0.50      1 P:x             9
                                                        0.50      1 P:x            12
                                                       -0.50      1 P:x            13
    34      34       --         0.445 au  H             0.50      1 P:y             8
                        (      12.103 eV)               0.50      1 P:y             9
                                                       -0.50      1 P:y            12
                                                       -0.50      1 P:y            13
    35      35       --         0.445 au  H             0.50      1 P:z             8
                        (      12.103 eV)              -0.50      1 P:z             9
                                                       -0.50      1 P:z            12
                                                        0.50      1 P:z            13
    36      36       --         2.628 au  H             0.50      1 D:z2            8
                        (      71.513 eV)              -0.50      1 D:z2            9
                                                       -0.50      1 D:z2           12
                                                        0.50      1 D:z2           13
    37      37       --         2.628 au  H             0.50      1 D:x2-y2         8
                        (      71.513 eV)              -0.50      1 D:x2-y2         9
                                                       -0.50      1 D:x2-y2        12
                                                        0.50      1 D:x2-y2        13
    38      38       --         2.628 au  H             0.50      1 D:xy            8
                        (      71.513 eV)               0.50      1 D:xy            9
                                                        0.50      1 D:xy           12
                                                        0.50      1 D:xy           13
    39      39       --         2.628 au  H             0.50      1 D:xz            8
                        (      71.513 eV)              -0.50      1 D:xz            9
                                                        0.50      1 D:xz           12
                                                       -0.50      1 D:xz           13
    40      40       --         2.628 au  H             0.50      1 D:yz            8
                        (      71.513 eV)               0.50      1 D:yz            9
                                                       -0.50      1 D:yz           12
                                                       -0.50      1 D:yz           13
    41      41      2.000      -7.312 au  Cl            0.71      1 P:y            14
                        (    -198.964 eV)              -0.71      1 P:y            15
    42      42      1.667      -0.356 au  Cl            0.71      2 P:y            14
                        (      -9.692 eV)              -0.71      2 P:y            15
    43      43       --         0.265 au  Cl            0.71      3 P:y            14
                        (       7.201 eV)              -0.71      3 P:y            15
    44      44       --         2.209 au  Cl            0.71      4 P:y            14
                        (      60.097 eV)              -0.71      4 P:y            15
    45      45       --        19.178 au  Cl            0.71      5 P:y            14
                        (     521.872 eV)              -0.71      5 P:y            15
    46      46       --         0.442 au  Cl            0.71      1 D:xy           14
                        (      12.026 eV)               0.71      1 D:xy           15
    47      47       --         0.442 au  Cl            0.71      1 D:yz           14
                        (      12.026 eV)              -0.71      1 D:yz           15
    48      48       --         1.250 au  Cl            0.71      1 F:xyz          14
                        (      34.015 eV)               0.71      1 F:xyz          15
    49      49       --         1.250 au  Cl            0.71      1 F:z2y          14
                        (      34.015 eV)              -0.71      1 F:z2y          15
    50      50       --         1.250 au  Cl            0.71      1 F:y            14
                        (      34.015 eV)              -0.71      1 F:y            15



                                       === B1 ===
 Nr. of SFOs :   90
 Cartesian basis functions that participate in this irrep (total number =   243) :
      5     8    14    17    20    25    34    29    32    39
     99    40   100    41   101    42   102    43   103    46
    106    49   109    52   112    44   104    47   107    50
    110    58   118    55   115    53    56   113   116    68
    128    64   124    61    66   121   126    59    62   119
    122    69   129    70   130    71   131    72   132    73
    133    76   136    79   139    82   142    74   134    77
    137    80   140    88   148    85   145    83    86   143
    146    98   158    94   154    91    96   151   156    89
     92   149   152   159   171   207   219   160   172   208
    220   161   173   209   221   164   176   212   224   162
    163   174   175   210   211   222   223   170   182   218
    230   167   169   179   181   215   217   227   229   165
    166   168   177   178   180   213   214   216   225   226
    228   183   195   231   243   184   196   232   244   185
    197   233   245   188   200   236   248   186   187   198
    199   234   235   246   247   194   206   242   254   191
    193   203   205   239   241   251   253   189   190   192
    201   202   204   237   238   240   249   250   252   255
    293   256   294   257   295   258   296   265   303   266
    304   267   305   261   299   264   302   270   308   273
    311   276   314   259   297   262   300   268   306   271
    309   274   312   282   320   279   317   277   280   315
    318   292   330   288   326   285   290   323   328   283
    286   321   324

    SFO  (index         Fragment          Generating    Expansion in Fragment Orbitals
  indx  incl.CFs)   Occup   Orb.Energy   FragmentType  Coeff.   Orbital     on Fragment
 --------------------------------------------------------------------------------------
     1       1      2.000      -6.002 au  S             1.00      1 P:x             1
                        (    -163.314 eV)
     2       2      1.333      -0.279 au  S             1.00      2 P:x             1
                        (      -7.592 eV)
     3       3       --         0.156 au  S             1.00      3 P:x             1
                        (       4.258 eV)
     4       4       --         1.281 au  S             1.00      4 P:x             1
                        (      34.851 eV)
     5       5       --        13.316 au  S             1.00      5 P:x             1
                        (     362.345 eV)
     6       6       --         0.491 au  S             1.00      1 D:xz            1
                        (      13.368 eV)
     7       7       --         1.336 au  S             1.00      1 F:z2x           1
                        (      36.349 eV)
     8       8       --         1.336 au  S             1.00      1 F:x             1
                        (      36.349 eV)
     9       9      2.000     -10.406 au  C             0.71      1 S               2
                        (    -283.169 eV)              -0.71      1 S               4
    10      10      2.000      -0.583 au  C             0.71      2 S               2
                        (     -15.858 eV)              -0.71      2 S               4
    11      11       --         0.415 au  C             0.71      3 S               2
                        (      11.281 eV)              -0.71      3 S               4
    12      12       --         5.555 au  C             0.71      4 S               2
                        (     151.157 eV)              -0.71      4 S               4
    13      13       --        50.670 au  C             0.71      5 S               2
                        (    1378.798 eV)              -0.71      5 S               4
    14      14      0.667      -0.186 au  C             0.71      1 P:x             2
                        (      -5.051 eV)               0.71      1 P:x             4
    15      15       --         0.203 au  C             0.71      2 P:x             2
                        (       5.518 eV)               0.71      2 P:x             4
    16      16       --         2.125 au  C             0.71      3 P:x             2
                        (      57.838 eV)               0.71      3 P:x             4
    17      17      0.667      -0.186 au  C             0.71      1 P:z             2
                        (      -5.051 eV)              -0.71      1 P:z             4
    18      18       --         0.203 au  C             0.71      2 P:z             2
                        (       5.518 eV)              -0.71      2 P:z             4
    19      19       --         2.125 au  C             0.71      3 P:z             2
                        (      57.838 eV)              -0.71      3 P:z             4
    20      20       --         1.300 au  C             0.71      1 D:z2            2
                        (      35.363 eV)              -0.71      1 D:z2            4
    21      21       --         1.300 au  C             0.71      1 D:x2-y2         2
                        (      35.363 eV)              -0.71      1 D:x2-y2         4
    22      22       --         1.300 au  C             0.71      1 D:xz            2
                        (      35.363 eV)               0.71      1 D:xz            4
    23      23       --         4.097 au  C             0.71      1 F:z3            2
                        (     111.488 eV)              -0.71      1 F:z3            4
    24      24       --         4.097 au  C             0.71      1 F:z             2
                        (     111.488 eV)              -0.71      1 F:z             4
    25      25       --         4.097 au  C             0.71      1 F:z2x           2
                        (     111.488 eV)               0.71      1 F:z2x           4
    26      26       --         4.097 au  C             0.71      1 F:x             2
                        (     111.488 eV)               0.71      1 F:x             4
    27      27      2.000     -10.406 au  C             0.71      1 S               3
                        (    -283.169 eV)              -0.71      1 S               5
    28      28      2.000      -0.583 au  C             0.71      2 S               3
                        (     -15.858 eV)              -0.71      2 S               5
    29      29       --         0.415 au  C             0.71      3 S               3
                        (      11.281 eV)              -0.71      3 S               5
    30      30       --         5.555 au  C             0.71      4 S               3
                        (     151.157 eV)              -0.71      4 S               5
    31      31       --        50.670 au  C             0.71      5 S               3
                        (    1378.798 eV)              -0.71      5 S               5
    32      32      0.667      -0.186 au  C             0.71      1 P:x             3
                        (      -5.051 eV)               0.71      1 P:x             5
    33      33       --         0.203 au  C             0.71      2 P:x             3
                        (       5.518 eV)               0.71      2 P:x             5
    34      34       --         2.125 au  C             0.71      3 P:x             3
                        (      57.838 eV)               0.71      3 P:x             5
    35      35      0.667      -0.186 au  C             0.71      1 P:z             3
                        (      -5.051 eV)              -0.71      1 P:z             5
    36      36       --         0.203 au  C             0.71      2 P:z             3
                        (       5.518 eV)              -0.71      2 P:z             5
    37      37       --         2.125 au  C             0.71      3 P:z             3
                        (      57.838 eV)              -0.71      3 P:z             5
    38      38       --         1.300 au  C             0.71      1 D:z2            3
                        (      35.363 eV)              -0.71      1 D:z2            5
    39      39       --         1.300 au  C             0.71      1 D:x2-y2         3
                        (      35.363 eV)              -0.71      1 D:x2-y2         5
    40      40       --         1.300 au  C             0.71      1 D:xz            3
                        (      35.363 eV)               0.71      1 D:xz            5
    41      41       --         4.097 au  C             0.71      1 F:z3            3
                        (     111.488 eV)              -0.71      1 F:z3            5
    42      42       --         4.097 au  C             0.71      1 F:z             3
                        (     111.488 eV)              -0.71      1 F:z             5
    43      43       --         4.097 au  C             0.71      1 F:z2x           3
                        (     111.488 eV)               0.71      1 F:z2x           5
    44      44       --         4.097 au  C             0.71      1 F:x             3
                        (     111.488 eV)               0.71      1 F:x             5
    45      45      1.000      -0.242 au  H             0.50      1 S               6
                        (      -6.582 eV)               0.50      1 S               7
                                                       -0.50      1 S              10
                                                       -0.50      1 S              11
    46      46       --         0.113 au  H             0.50      2 S               6
                        (       3.073 eV)               0.50      2 S               7
                                                       -0.50      2 S              10
                                                       -0.50      2 S              11
    47      47       --         1.599 au  H             0.50      3 S               6
                        (      43.507 eV)               0.50      3 S               7
                                                       -0.50      3 S              10
                                                       -0.50      3 S              11
    48      48       --         0.445 au  H             0.50      1 P:x             6
                        (      12.103 eV)               0.50      1 P:x             7
                                                        0.50      1 P:x            10
                                                        0.50      1 P:x            11
    49      49       --         0.445 au  H             0.50      1 P:y             6
                        (      12.103 eV)              -0.50      1 P:y             7
                                                        0.50      1 P:y            10
                                                       -0.50      1 P:y            11
    50      50       --         0.445 au  H             0.50      1 P:z             6
                        (      12.103 eV)               0.50      1 P:z             7
                                                       -0.50      1 P:z            10
                                                       -0.50      1 P:z            11
    51      51       --         2.628 au  H             0.50      1 D:z2            6
                        (      71.513 eV)               0.50      1 D:z2            7
                                                       -0.50      1 D:z2           10
                                                       -0.50      1 D:z2           11
    52      52       --         2.628 au  H             0.50      1 D:x2-y2         6
                        (      71.513 eV)               0.50      1 D:x2-y2         7
                                                       -0.50      1 D:x2-y2        10
                                                       -0.50      1 D:x2-y2        11
    53      53       --         2.628 au  H             0.50      1 D:xy            6
                        (      71.513 eV)              -0.50      1 D:xy            7
                                                       -0.50      1 D:xy           10
                                                        0.50      1 D:xy           11
    54      54       --         2.628 au  H             0.50      1 D:xz            6
                        (      71.513 eV)               0.50      1 D:xz            7
                                                        0.50      1 D:xz           10
                                                        0.50      1 D:xz           11
    55      55       --         2.628 au  H             0.50      1 D:yz            6
                        (      71.513 eV)              -0.50      1 D:yz            7
                                                        0.50      1 D:yz           10
                                                       -0.50      1 D:yz           11
    56      56      1.000      -0.242 au  H             0.50      1 S               8
                        (      -6.582 eV)               0.50      1 S               9
                                                       -0.50      1 S              12
                                                       -0.50      1 S              13
    57      57       --         0.113 au  H             0.50      2 S               8
                        (       3.073 eV)               0.50      2 S               9
                                                       -0.50      2 S              12
                                                       -0.50      2 S              13
    58      58       --         1.599 au  H             0.50      3 S               8
                        (      43.507 eV)               0.50      3 S               9
                                                       -0.50      3 S              12
                                                       -0.50      3 S              13
    59      59       --         0.445 au  H             0.50      1 P:x             8
                        (      12.103 eV)               0.50      1 P:x             9
                                                        0.50      1 P:x            12
                                                        0.50      1 P:x            13
    60      60       --         0.445 au  H             0.50      1 P:y             8
                        (      12.103 eV)              -0.50      1 P:y             9
                                                       -0.50      1 P:y            12
                                                        0.50      1 P:y            13
    61      61       --         0.445 au  H             0.50      1 P:z             8
                        (      12.103 eV)               0.50      1 P:z             9
                                                       -0.50      1 P:z            12
                                                       -0.50      1 P:z            13
    62      62       --         2.628 au  H             0.50      1 D:z2            8
                        (      71.513 eV)               0.50      1 D:z2            9
                                                       -0.50      1 D:z2           12
                                                       -0.50      1 D:z2           13
    63      63       --         2.628 au  H             0.50      1 D:x2-y2         8
                        (      71.513 eV)               0.50      1 D:x2-y2         9
                                                       -0.50      1 D:x2-y2        12
                                                       -0.50      1 D:x2-y2        13
    64      64       --         2.628 au  H             0.50      1 D:xy            8
                        (      71.513 eV)              -0.50      1 D:xy            9
                                                        0.50      1 D:xy           12
                                                       -0.50      1 D:xy           13
    65      65       --         2.628 au  H             0.50      1 D:xz            8
                        (      71.513 eV)               0.50      1 D:xz            9
                                                        0.50      1 D:xz           12
                                                        0.50      1 D:xz           13
    66      66       --         2.628 au  H             0.50      1 D:yz            8
                        (      71.513 eV)              -0.50      1 D:yz            9
                                                       -0.50      1 D:yz           12
                                                        0.50      1 D:yz           13
    67      67      2.000    -101.760 au  Cl            0.71      1 S              14
                        (   -2769.023 eV)              -0.71      1 S              15
    68      68      2.000      -9.584 au  Cl            0.71      2 S              14
                        (    -260.807 eV)              -0.71      2 S              15
    69      69      2.000      -0.848 au  Cl            0.71      3 S              14
                        (     -23.065 eV)              -0.71      3 S              15
    70      70       --         0.237 au  Cl            0.71      4 S              14
[...]
                               0.672    -0.164    -0.722
                               0.715    -0.110     0.690
                        -----------------------------------
 
================================================================================
 
 
===  TOTAL NMR SHIELDING TENSOR (ppm)
 
                        ***********************************
                        CARTESIAN AXIS REPRESENTATION

                        ==== total shielding tensor
                        -----------------------------------
                              29.575    -0.993    -1.663
                              -0.993    26.003    -5.453
                              -1.663    -5.453    28.406
                        -----------------------------------
                                  isotropic =     27.994

                        ***********************************
                        -----------------------------------
                        PRINCIPAL AXIS REPRESENTATION

                        ==== Principal components:

                              21.224    29.823    32.936
 
                        ==== Principal Axis System:

                              -0.213     0.953    -0.214
                              -0.754    -0.300    -0.585
                              -0.622     0.037     0.782
                        -----------------------------------
################################################################################
********************************************************************************
****  N U C L E U S : H(13)
 
 ADF-GUI atom: H(13)
 Internal NMR numbering of atoms: H(13)
 
 
================================================================================
 
 
===  PARAMAGNETIC NMR SHIELDING TENSORS (ppm)
 
    ===     paramagnetic b^(1) tensor       ===     paramagnetic u^(1) tensor
    -----------------------------------     -----------------------------------
           0.000     0.000     0.000               4.471   -14.044    -9.999
           0.000     0.000     0.000             -14.044     3.429   -10.089
           0.000     0.000     0.000              -9.999   -10.089     1.068
    -----------------------------------     -----------------------------------
              isotropic =      0.000                  isotropic =      2.990

    ===     paramagnetic s^(1) tensor       ===     paramagnetic gauge tensor
    -----------------------------------     -----------------------------------
          -3.102    15.076     9.651              -0.331    -0.604    -0.299
          15.076    -4.852     9.675              -0.604    -2.043    -0.243
           9.651     9.675    -1.616              -0.299    -0.243     0.122
    -----------------------------------     -----------------------------------
              isotropic =     -3.190                  isotropic =     -0.751

                        ***********************************
                        CARTESIAN AXIS REPRESENTATION

                        ==== total paramagnetic tensor
                        -----------------------------------
                               1.038     0.428    -0.647
                               0.428    -3.466    -0.656
                              -0.647    -0.656    -0.426
                        -----------------------------------
                                  isotropic =     -0.951

                        ***********************************
                        -----------------------------------
                        PRINCIPAL AXIS REPRESENTATION

                        ==== Principal components:

                              -3.620    -0.602     1.368
 
                        ==== Principal Axis System:

                               0.064     0.396    -0.916
                              -0.980    -0.148    -0.133
                              -0.188     0.906     0.379
                        -----------------------------------
 
================================================================================
 
 
===  DIAMAGNETIC NMR SHIELDING TENSORS (ppm)
 
    ===       diamagnetic core tensor       ===    diamagnetic valence tensor
    -----------------------------------     -----------------------------------
           0.000     0.000     0.000              28.536     0.562    -1.012
           0.000     0.000     0.000               0.562    29.467     6.100
           0.000     0.000     0.000              -1.012     6.100    28.823
    -----------------------------------     -----------------------------------
              isotropic =      0.000                  isotropic =     28.942

                        ***********************************
                        CARTESIAN AXIS REPRESENTATION

                        ==== total diamagnetic tensor
                        -----------------------------------
                              28.536     0.562    -1.012
                               0.562    29.467     6.100
                              -1.012     6.100    28.823
                        -----------------------------------
                                  isotropic =     28.942

                        ***********************************
                        -----------------------------------
                        PRINCIPAL AXIS REPRESENTATION

                        ==== Principal components:

                              22.816    28.743    35.267
 
                        ==== Principal Axis System:

                               0.193     0.980     0.044
                              -0.672     0.164    -0.722
                               0.715    -0.110    -0.690
                        -----------------------------------
 
================================================================================
 
 
===  TOTAL NMR SHIELDING TENSOR (ppm)
 
                        ***********************************
                        CARTESIAN AXIS REPRESENTATION

                        ==== total shielding tensor
                        -----------------------------------
                              29.574     0.991    -1.659
                               0.991    26.001     5.444
                              -1.659     5.444    28.397
                        -----------------------------------
                                  isotropic =     27.991

                        ***********************************
                        -----------------------------------
                        PRINCIPAL AXIS REPRESENTATION

                        ==== Principal components:

                              21.229    29.821    32.922
 
                        ==== Principal Axis System:

                               0.213     0.953    -0.215
                              -0.754     0.300     0.585
                               0.622     0.037     0.782
                        -----------------------------------
################################################################################
********************************************************************************
****  N U C L E U S : Cl(14)
 
 ADF-GUI atom: Cl(14)
 Internal NMR numbering of atoms: Cl(14)
 
 
================================================================================
 
 
===  PARAMAGNETIC NMR SHIELDING TENSORS (ppm)
 
    ===     paramagnetic b^(1) tensor       ===     paramagnetic u^(1) tensor
    -----------------------------------     -----------------------------------
           0.000     0.000     0.000            -196.684    72.098   265.560
           0.000     0.000     0.000              72.098  -528.735  -189.644
           0.000     0.000     0.000             265.560  -189.644  -280.976
    -----------------------------------     -----------------------------------
              isotropic =      0.000                  isotropic =   -335.465

    ===     paramagnetic s^(1) tensor       ===     paramagnetic gauge tensor
    -----------------------------------     -----------------------------------
          54.762   -55.017  -130.419              -0.680     2.122     1.154
         -55.017    63.432    71.369               2.122    -2.520    -4.388
        -130.419    71.369     7.055               1.154    -4.388    -2.962
    -----------------------------------     -----------------------------------
              isotropic =     41.750                  isotropic =     -2.054

                        ***********************************
                        CARTESIAN AXIS REPRESENTATION

                        ==== total paramagnetic tensor
                        -----------------------------------
                            -142.603    19.203   136.295
                              19.203  -467.823  -122.663
                             136.295  -122.663  -276.883
                        -----------------------------------
                                  isotropic =   -295.770

                        ***********************************
                        -----------------------------------
                        PRINCIPAL AXIS REPRESENTATION

                        ==== Principal components:

                            -544.221  -291.564   -51.524
 
                        ==== Principal Axis System:

                               0.208     0.539     0.816
                              -0.845     0.520    -0.128
                              -0.493    -0.663     0.563
                        -----------------------------------
 
================================================================================
 
 
===  DIAMAGNETIC NMR SHIELDING TENSORS (ppm)
 
    ===       diamagnetic core tensor       ===    diamagnetic valence tensor
    -----------------------------------     -----------------------------------
           0.000     0.000     0.000            1150.817    -0.000     4.574
           0.000     0.000     0.000              -0.000  1141.832     0.001
           0.000     0.000     0.000               4.574     0.001  1147.053
    -----------------------------------     -----------------------------------
              isotropic =      0.000                  isotropic =   1146.568

                        ***********************************
                        CARTESIAN AXIS REPRESENTATION

                        ==== total diamagnetic tensor
                        -----------------------------------
                            1150.817    -0.000     4.574
                              -0.000  1141.832     0.001
                               4.574     0.001  1147.053
                        -----------------------------------
                                  isotropic =   1146.568

                        ***********************************
                        -----------------------------------
                        PRINCIPAL AXIS REPRESENTATION

                        ==== Principal components:

                            1141.832  1143.990  1153.881
 
                        ==== Principal Axis System:

                              -0.000    -0.557    -0.831
                              -1.000     0.000    -0.000
                               0.000     0.831    -0.557
                        -----------------------------------
 
================================================================================
 
 
===  TOTAL NMR SHIELDING TENSOR (ppm)
 
                        ***********************************
                        CARTESIAN AXIS REPRESENTATION

                        ==== total shielding tensor
                        -----------------------------------
                            1008.214    19.203   140.869
                              19.203   674.010  -122.662
                             140.869  -122.662   870.170
                        -----------------------------------
                                  isotropic =    850.798

                        ***********************************
                        -----------------------------------
                        PRINCIPAL AXIS REPRESENTATION

                        ==== Principal components:

                             598.327   851.904  1102.163
 
                        ==== Principal Axis System:

                               0.208     0.537     0.818
                              -0.847     0.517    -0.124
                              -0.490    -0.666     0.562
                        -----------------------------------
################################################################################
********************************************************************************
****  N U C L E U S : Cl(15)
 
 ADF-GUI atom: Cl(15)
 Internal NMR numbering of atoms: Cl(15)
 
 
================================================================================
 
 
===  PARAMAGNETIC NMR SHIELDING TENSORS (ppm)
 
    ===     paramagnetic b^(1) tensor       ===     paramagnetic u^(1) tensor
    -----------------------------------     -----------------------------------
           0.000     0.000     0.000            -196.654     0.004  -265.709
           0.000     0.000     0.000               0.004  -528.984     0.005
           0.000     0.000     0.000            -265.709     0.005  -281.220
    -----------------------------------     -----------------------------------
              isotropic =      0.000                  isotropic =   -335.620

    ===     paramagnetic s^(1) tensor       ===     paramagnetic gauge tensor
    -----------------------------------     -----------------------------------
          54.735    -0.000   130.383              -0.681     0.000    -1.154
          -0.000    63.449    -0.000               0.000    -2.520     0.000
         130.383    -0.000     7.056              -1.154     0.000    -2.962
    -----------------------------------     -----------------------------------
              isotropic =     41.747                  isotropic =     -2.054

                        ***********************************
                        CARTESIAN AXIS REPRESENTATION

                        ==== total paramagnetic tensor
                        -----------------------------------
                            -142.600     0.004  -136.480
                               0.004  -468.055     0.005
                            -136.480     0.005  -277.126
                        -----------------------------------
                                  isotropic =   -295.927

                        ***********************************
                        -----------------------------------
                        PRINCIPAL AXIS REPRESENTATION

                        ==== Principal components:

                            -468.055  -362.017   -57.708
 
                        ==== Principal Axis System:

                              -0.000     0.528     0.849
                               1.000     0.000     0.000
                              -0.000     0.849    -0.528
                        -----------------------------------
 
================================================================================
 
 
===  DIAMAGNETIC NMR SHIELDING TENSORS (ppm)
 
    ===       diamagnetic core tensor       ===    diamagnetic valence tensor
    -----------------------------------     -----------------------------------
           0.000     0.000     0.000            1149.960    -0.000    -4.574
           0.000     0.000     0.000              -0.000  1142.542     0.000
           0.000     0.000     0.000              -4.574     0.000  1146.196
    -----------------------------------     -----------------------------------
              isotropic =      0.000                  isotropic =   1146.232

                        ***********************************
                        CARTESIAN AXIS REPRESENTATION

                        ==== total diamagnetic tensor
                        -----------------------------------
                            1149.960    -0.000    -4.574
                              -0.000  1142.542     0.000
                              -4.574     0.000  1146.196
                        -----------------------------------
                                  isotropic =   1146.232

                        ***********************************
                        -----------------------------------
                        PRINCIPAL AXIS REPRESENTATION

                        ==== Principal components:

                            1142.542  1143.132  1153.024
 
                        ==== Principal Axis System:

                              -0.000     0.557     0.831
                               1.000     0.000    -0.000
                              -0.000     0.831    -0.557
                        -----------------------------------
 
================================================================================
 
 
===  TOTAL NMR SHIELDING TENSOR (ppm)
 
                        ***********************************
                        CARTESIAN AXIS REPRESENTATION

                        ==== total shielding tensor
                        -----------------------------------
                            1007.359     0.004  -141.054
                               0.004   674.487     0.005
                            -141.054     0.005   869.070
                        -----------------------------------
                                  isotropic =    850.305

                        ***********************************
                        -----------------------------------
                        PRINCIPAL AXIS REPRESENTATION

                        ==== Principal components:

                             674.487   781.125  1095.304
 
                        ==== Principal Axis System:

                              -0.000     0.529     0.849
                               1.000     0.000     0.000
                              -0.000     0.849    -0.529
                        -----------------------------------
 *******************************************************************************

                             N M R   E X I T
 NORMAL TERMINATION



 =================
 Timing Statistics
 =================
  
 Total Used :                     CPU=      185.83      System=        2.64     Elapsed=      199.77

 Calls  Section                     ( Mean, Percentage )
 ---------------------------------------------------------------------------------------------------
     3  ><      ................      0.01    0.01             0.00    0.00             0.01    0.01
     1  INIT    ................      0.60    0.32             0.01    0.31             0.64    0.32
     1  RDEIGX  ................     46.46   25.00             0.43   16.49            49.72   24.89
     1  AOF1K   ................      3.24    1.75             0.00    0.02             3.53    1.77
    15  AOPKK   ................      4.46   36.02             0.12   65.77             4.95   37.18
    15  XSIGP   ................      0.01    0.06             0.00    0.27             0.01    0.06
    15  AODKKK  ................      4.56   36.84             0.03   16.48             4.76   35.75
    15  XDV     ................      0.00    0.01             0.00    0.06             0.00    0.01
    15  XSIGD   ................      0.00    0.00             0.00    0.00             0.00    0.00
     1  EXIT PROCEDURE .........      0.00    0.00             0.02    0.60             0.02    0.01


 Currently Open Files (EXIT00)
 ====================

 Unit    Access Format  Status   Type       Ident (file)
 -------------------------------------------------------
   3      SEQ    FORM   TRANSP  NORMAL      LOGFILE
                                          ( /home/milias/work/projects/open-collection/theoretical_chemistry/projects/nmr_diplomovky/HD/ams/pbe0_tz2p_good/cosmo-acetone/HD.geopt_freq_nmr_shield_pbe0_tz2p_good_cosmo-acetone.logfile )
