

 Parallel Execution: Process Information
 ==============================================================================
 Rank   Node Name                              NodeID   MyNodeRank  NodeMaster
    0   MiroPhenomII-X6                           0          0          0
    1   MiroPhenomII-X6                           0          1         -1
    2   MiroPhenomII-X6                           0          2         -1
    3   MiroPhenomII-X6                           0          3         -1
    4   MiroPhenomII-X6                           0          4         -1
    5   MiroPhenomII-X6                           0          5         -1
 ==============================================================================


May use up to 4096MB of RAM as shared memory on node 0

 *******************************************************************************
 *                                                                             *
 *  --------------------------------                                           *
 *   Amsterdam Modeling Suite (AMS)              2023.105                      *
 *  --------------------------------                                           *
 *                                               r116758 2023-11-10            *
 *                                                                             *
 *                                                                             *
 *                              =================                              *
 *                              |               |                              *
 *                              |     A M S     |                              *
 *                              |               |                              *
 *                              =================                              *
 *                                                                             *
 *                                                                             *
 *   Online information and documentation:  https://www.scm.com/support/       *
 *   E-mail:  support@scm.com   info@scm.com                                   *
 *                                                                             *
 *   Scientific publications using AMS results must be properly referenced     *
 *   See the User Manuals (or the web site) for recommended citations          *
 *   The terms and conditions of the End User License Agreement apply to       *
 *   the use of AMS, https://www.scm.com/license-terms/                        *
 *                                                                             *
 ***********************  x86_64_windows_intel / msmpi  ************************
 
 Licensed to: Dr. Miroslav Ilias / Matej Bel University, Department Chemistry, Fac. Natural Sciences / Banska Bystrica / SLOVAKIA 2023-11-22 16:32:13
 SCM User ID: u17848
  
 AMS 2023.105  RunTime: Nov27-2023 20:33:25  ShM Nodes: 1  Procs: 6

 AMS jobname: ams
 AMS jobid  : 1060302955

 Start   directory: C:/Users/miroi/Desktop/Git-projects/open-collection/theoretical_chemistry/projects/adsorbate_on_surface/on_quartz/quartz/ams-ff/Bi_on_Q-G/Bi_atom/tmp..5504.0.noindex/
 Results directory: C:/Users/miroi/Desktop/Git-projects/open-collection/theoretical_chemistry/projects/adsorbate_on_surface/on_quartz/quartz/ams-ff/Bi_on_Q-G/Bi_atom/Bi.amsff_0d_uff.results/
 Scratch directory: C:/SCMTMP/amstmp_ams_kid0.1060302955/


 Communication costs MPI_COMM_WORLD:      3.935 usec per message,   0.0515 usec per 8-byte item
 Communication costs for intra-node:      1.949 usec per message,   0.0583 usec per 8-byte item

 RNG seed: -2072257668 -954892601 1718021746 -1473699681 116184405 330693263 -871376084 902352263

       ***************************
       *  GEOMETRY OPTIMIZATION  *
       ***************************

FIRE optimizer config
       nMin:  5 steps
    dtStart:  0.2500 fs
      dtMax:  1.0000 fs
       fInc:  1.1000
       fDec:  0.5000
 alphaStart:  0.1000
     fAlpha:  0.9900
 Opt. latt.:  F
Convergence criteria:
       Energy:  0.000010 Ha per atom
    Gradients:  0.001000 Ha/Angstrom
         Step:  0.010000 Angstrom
Stress energy:  0.000500 Ha per atom
 
--------
Geometry
--------
Formula: Bi
Atoms
  Index Symbol   x (angstrom)   y (angstrom)   z (angstrom)
      1     Bi    -2.01415069    -1.23478551    -9.98958911
 
Total System Charge             0.00000
 
 
------------------------
MM Engine configuration
------------------------
Force field type             UFF
 
 
------------------------
UFF Engine configuration
------------------------
UFF Parameters file          general_db
UFF Elements file            elements_db
UFF MMAtomTypes file         mmatomtypes_db
 
  atom type UFF index
          1       108
-----------------------
Assumed Input Structure
-----------------------
Atoms [Angstrom]
      Bi      -2.0141506894   -1.2347855085   -9.9895891060       Bi3+3   0.000000000000
End

Bonds
End

Performing a single point calculation on the final geometry ...

-----------------------
Assumed Input Structure
-----------------------
Atoms [Angstrom]
      Bi      -2.0141506894   -1.2347855085   -9.9895891060       Bi3+3   0.000000000000
End

Bonds
End

Scanning modes in range provided by user.


    =====================
     CALCULATION RESULTS
    =====================

Energy (hartree)             0.00000000

Gradients (hartree/bohr)
  Index   Atom            d/dx            d/dy            d/dz
      1     Bi    0.0000000000    0.0000000000    0.0000000000

 -----------------------
 Normal Mode Frequencies
 -----------------------

 Index   Frequency (cm-1)   Red. mass (u)  F const (Ha/Bohr^2)   Intensity (km/mol)

 Zero-point energy (Hartree):     0.0000

 ------------
 Normal Modes
 ------------

 Number of removed rigid normal modes: 3

 Vibrational polarizability tensor (a.u.):
                  X                   Y                   Z
 X               0.00000             0.00000             0.00000
 Y               0.00000             0.00000             0.00000
 Z               0.00000             0.00000             0.00000

 Isotropic =      0.0000    atomic units

PES point character: Geometry corresponds to a local minimum on the PES.




 ============================
 Statistical Thermal Analysis  ***  ideal gas assumed  ***
 ============================
  
 Pressure:                  1.000000 atm.
 Temperature:             298.150000 K



 Moments of Inertia [amu*bohr^2] and principal axis
 ==================================================

           0.0000          0.0000          0.0000
 ------------------------------------------------
           1.0000          0.0000          0.0000
           0.0000          1.0000          0.0000
           0.0000          0.0000          1.0000
 Contributions from frequencies below 20 1/cm are not included in vibrational sums.
 Their contributions, if any, are reported separately.


     Temp                                                        Transl      Rotat     Vibrat     Total
     ----                                                        ------      -----     ------     -----

     298.15   Entropy (cal/mol-K):                               41.915      0.000      0.000     41.915
              Nuclear Internal Energy (kcal/mol):                 0.889      0.000      0.000      0.889
              Constant Volume Heat Capacity (cal/mol-K):          2.981      0.000      0.000      2.981
          (c) Constant Volume Heat Capacity (cal/mol-K):          2.981      0.000      0.000      2.981

       Summary of energy terms
                                                   hartree              eV         kcal/mol           kJ/mol
                                      --------------------     -----------       ----------      -----------
      Energy from Engine:                0.000000000000000          0.0000             0.00             0.00
      Nuclear Internal Energy:           0.001416279020229          0.0385             0.89             3.72
  (c) Nuclear Internal Energy:           0.001416279020229          0.0385             0.89             3.72
      Internal Energy U:                 0.001416279020229          0.0385             0.89             3.72
      pV/n = RT:                         0.000944186013486          0.0257             0.59             2.48
      Enthalpy H:                        0.002360465033714          0.0642             1.48             6.20
      -T*S:                             -0.019915230248913         -0.5419           -12.50           -52.29
  (c) -T*S:                             -0.019915230248913         -0.5419           -12.50           -52.29
      Gibbs free energy:                -0.017554765215199         -0.4777           -11.02           -46.09
 
 
 
  (c) The properties marked with this symbol have been corrected using 'low vibrational frequency free rotor
      interpolation corrections'. For those terms all positive frequencies are used (also ones below 20 1/cm),
      but the contribution to the partition function of small vibrational frequencies is modified as described
      in the following paper:
      S. Grimme, 'Supramolecular Binding Thermodynamics by Dispersion-Corrected Density Functional Theory'
      (Chem. Eur. J. 2012, 18, 9955-9964)
      Configuration: Dampener Frequency          :   100.000 1/cm
                     Dampener Alpha              :     4.000
                     Averaging Moment of Inertia : 1.000E-44 kg m2
-----------
Bond orders
-----------

Description: Unknown
Only bonds with bond orders > 0.200 are printed.

 Index  Atom    Index  Atom    BondOrder


--------------
Atomic charges
--------------
  Index   Atom    Charge
      1     Bi    0.0000


Dipole moment vector    (Debye):     0.00000000    0.00000000    0.00000000
              magnitude (Debye):     0.00000000

 
--------------------
Energy Decomposition
--------------------
Total Energy (hartree)                 0.00000000
Total Energy (eV)                      0.00000000
Bond bending (hartree)                 0.00000000
Bond stretching (hartree)              0.00000000
Bond torsion (hartree)                 0.00000000
Bond inversion (hartree)               0.00000000
Van Der Waals (hartree)                0.00000000
Coulomb (hartree)                      0.00000000
Embedding (hartree)                    0.00000000
Total Bonded (hartree)                 0.00000000
Total NonBonded (hartree)              0.00000000
 

Final PES point is a local minimum. Geometry optimization successful!


AMS application finished. Exiting.
NORMAL TERMINATION
     Total cpu time:       1.27
  Total system time:       0.09
 Total elapsed time:       1.94
