

 Parallel Execution: Process Information
 ==============================================================================
 Rank   Node Name                              NodeID   MyNodeRank  NodeMaster
    0   adf1                                      0          0          0
    1   adf1                                      0          1         -1
    2   adf1                                      0          2         -1
    3   adf1                                      0          3         -1
    4   adf1                                      0          4         -1
    5   adf1                                      0          5         -1
    6   adf1                                      1          0          1
    7   adf1                                      1          1         -1
    8   adf1                                      1          2         -1
    9   adf1                                      1          3         -1
   10   adf1                                      1          4         -1
   11   adf1                                      1          5         -1
 ==============================================================================


May use up to 11697MB of RAM as shared memory on node 0
May use up to 11718MB of RAM as shared memory on node 1

 *******************************************************************************
 *                                                                             *
 *  --------------------------------                                           *
 *   Amsterdam Modeling Suite (AMS)              2021.102                      *
 *  --------------------------------                                           *
 *                                               r95042 2021-06-07             *
 *                                                                             *
 *                                                                             *
 *                              =================                              *
 *                              |               |                              *
 *                              |     A M S     |                              *
 *                              |               |                              *
 *                              =================                              *
 *                                                                             *
 *                                                                             *
 *   Online information and documentation:  https://www.scm.com/support/       *
 *   E-mail:  support@scm.com   info@scm.com                                   *
 *                                                                             *
 *   Scientific publications using AMS results must be properly referenced     *
 *   See the User Manuals (or the web site) for recommended citations          *
 *   The terms and conditions of the End User License Agreement apply to       *
 *   the use of AMS, https://www.scm.com/license-terms/                        *
 *                                                                             *
 **********************  x86_64_linux_intel / intelmpi  ************************
 
 Licensed to: Dr. Miroslav Ilias / Matej Bel University, Department Chemistry, Fac. Natural Sciences / Banska Bystrica / SLOVAKIA
 SCM User ID: u17848
  
 AMS 2021.102  RunTime: Sep06-2021 10:12:39  ShM Nodes: 2  Procs: 12

 AMS jobname: ams
 AMS jobid  : 323743832

 Start   directory: /home/milias/Work/projects/open-collection/theoretical_chemistry/projects/nmr_diplomovky/derivaty_markerov/derivative_2/ams/srzora/tmp.milias.24383.0.noindex/
 Results directory: /home/milias/Work/projects/open-collection/theoretical_chemistry/projects/nmr_diplomovky/derivaty_markerov/derivative_2/ams/srzora/der2.nmr_opbe_srzora_gnuc_tz2p-j_good_cosmo-chcl3.results/
 Scratch directory: /tmp/amstmp_ams_kid0.323743832/


 Communication costs MPI_COMM_WORLD:      2.871 usec per message,   0.0272 usec per 8-byte item
 Communication costs for intra-node:      1.561 usec per message,   0.0129 usec per 8-byte item

 RNG seed: 421189431 -1740385659 -673302432 -1387700406 -629061864 -1605372284 -1833983652 1519268083



                     *************************************************************************
                     *  ADF 2021.102  RunTime: Sep06-2021 10:12:40  ShM Nodes: 2  Procs: 12  *
                     *************************************************************************
  
       ****************************
       * SINGLE POINT CALCULATION *
       ****************************
 
--------
Geometry
--------
Formula: C10H22NO3P
Atoms
  Index Symbol   x (angstrom)   y (angstrom)   z (angstrom)
      1      O     3.33194247     0.30076433     0.18997980       adf.R=1.517
      2      P     2.23021383    -0.17635009    -0.93134389       adf.R=1.850
      3      O     1.15541769     1.06054126    -1.02098848       adf.R=1.517
      4      O     1.28509071    -1.06367367     0.07655904       adf.R=1.517
      5      C     0.15386593     1.01230917     0.02556898       adf.R=1.700
      6      C    -0.04223155    -0.51587632     0.24191159       adf.R=1.700
      7      C     0.68996167     1.73050668     1.25612097       adf.R=1.700
      8      C    -1.07612091     1.72591223    -0.49879944       adf.R=1.700
      9      C    -0.93499380    -1.15443879    -0.81287378       adf.R=1.700
     10      C    -0.51951450    -0.88725938     1.63161892       adf.R=1.700
     11      H    -0.08611529     1.82662045     2.01796006       adf.R=1.350
     12      H     1.54872397     1.21389552     1.68228365       adf.R=1.350
     13      H     1.00690871     2.73257092     0.96345763       adf.R=1.350
     14      H    -1.38368287     1.33381637    -1.46683745       adf.R=1.350
     15      H    -1.90585789     1.62331790     0.20470993       adf.R=1.350
     16      H    -0.86006089     2.78906502    -0.61328307       adf.R=1.350
     17      H    -1.98060346    -0.87460462    -0.67392119       adf.R=1.350
     18      H    -0.62647710    -0.86686817    -1.81930413       adf.R=1.350
     19      H    -0.85435993    -2.23871336    -0.72763229       adf.R=1.350
     20      H    -1.49062997    -0.43003096     1.83620009       adf.R=1.350
     21      H    -0.63327131    -1.96982229     1.70217078       adf.R=1.350
     22      H     0.18934080    -0.56755742     2.39344924       adf.R=1.350
     23      C     4.63858536     0.63682575    -0.27581703       adf.R=1.700
     24      C     5.65910744    -0.04189931     0.61758736       adf.R=1.700
     25      N     7.01982260     0.31706240     0.26427138       adf.R=1.608
     26      C     7.37756692     1.63632439     0.74348147       adf.R=1.700
     27      H     7.72804477    -1.64758561     0.33878490       adf.R=1.350
     28      H     8.38576129     1.88714931     0.40860091       adf.R=1.350
     29      C     7.96417428    -0.66562242     0.75210192       adf.R=1.700
     30      H     4.77932917     0.31184336    -1.31232696       adf.R=1.350
     31      H     4.74176987     1.72438453    -0.24810683       adf.R=1.350
     32      H     5.54094432    -1.12140816     0.49865019       adf.R=1.350
     33      H     5.42773015     0.18977270     1.67238575       adf.R=1.350
     34      H     7.96883506    -0.74599892     1.85392689       adf.R=1.350
     35      H     7.35414508     1.70410721     1.84618401       adf.R=1.350
     36      H     6.70072305     2.39160952     0.34350965       adf.R=1.350
     37      H     8.97249936    -0.39674612     0.43094178       adf.R=1.350
 
Total System Charge             0.00000
Bonding info available!
 
 
----------------
ADF Engine Input
----------------
 
 Basis
 Type TZ2P-J
 Core None
 End
 Save TAPE10
 XC
 GGA OPBE
 End
 Symmetry NOSYM
 Solvation
 Surf Delley
 Solv name=Chloroform cav0=0.0 cav1=0.0067639
 Charged method=CONJ
 C-Mat POT
 SCF VAR ALL
 CSMRSP
 End
 NumericalQuality Good
 NuclearModel Gaussian
 

 Title: *** (NO TITLE) ***

 *** adf ***



 ===========================
 A T T A C H E D   F I L E S
 ===========================
  



 ===============================
 M O D E L   P A R A M E T E R S
 ===============================
  
 DENSITY FUNCTIONAL POTENTIAL (scf)
    LDA:                               VWN                                      
    Gradient Corrections:              OPTX PBEc                               == Not Default ==

 SPIN  (restricted / unrestr.)
    Molecule:                          Restricted                               
    Fragments:                         Restricted                               

 OTHER ASPECTS
    Relativistic Corrections:          scalar (ZORA,MAPA)                       

    Nuclear Charge Density Model:      Gaussian Charge Distributions            *** SPECIAL ***
    Core Treatment:                    Frozen Orbital(s)                        

    Hyperfine or Zeeman Interaction:   ---                                      

 SOLVATION
-------------------------------------------

  The Delley construction of COSMO surface surface is calculated

       Division Level for Surface Triangles (NDIV)                  3
       Final Division Level for Triangles (NFDIV)                   1
       Radius of the Solvent (RSOL)                           3.17000 angstr
  Dielectric Constant (EPSL)                                  4.80000

       COSMO equation is solved iteratively-               conjugate-gradient

       Maximun of Iterations for Charges (NCIX)                  1000
       Criterion for Charge convergence (CCNV)                1.0E-08

  COSMO charges included variationally in SCF

       COSMO included at every SCF cycle

  Geometry-dependent empirical factor                         0.00000

  C-Matrix calculated in cspmtx

  In cspmtx, C-Matrix calculated using fitted potential

-------------------------------------------



 Fragment File(s)
 ----------------
 O:
         file : /home/milias/Work/projects/open-collection/theoretical_chemistry/projects/nmr_diplomovky/derivaty_markerov/derivative_2/ams/srzora/der2.nmr_opbe_srzora_gnuc_tz2p-j_good_cosmo-chcl3.results/t21.17BE94A0.O
         jobid: 0
         title: Oxygen (TZ2P-J)
 P:
         file : /home/milias/Work/projects/open-collection/theoretical_chemistry/projects/nmr_diplomovky/derivaty_markerov/derivative_2/ams/srzora/der2.nmr_opbe_srzora_gnuc_tz2p-j_good_cosmo-chcl3.results/t21.59F99ABC.P
         jobid: 0
         title: Phosphorus (TZ2P-J)
 C:
         file : /home/milias/Work/projects/open-collection/theoretical_chemistry/projects/nmr_diplomovky/derivaty_markerov/derivative_2/ams/srzora/der2.nmr_opbe_srzora_gnuc_tz2p-j_good_cosmo-chcl3.results/t21.3F289A3B.C
         jobid: 0
         title: Carbon (TZ2P-J)
 H:
         file : /home/milias/Work/projects/open-collection/theoretical_chemistry/projects/nmr_diplomovky/derivaty_markerov/derivative_2/ams/srzora/der2.nmr_opbe_srzora_gnuc_tz2p-j_good_cosmo-chcl3.results/t21.1888F0DB.H
         jobid: 0
         title: Hydrogen (TZ2P-J)
 N:
         file : /home/milias/Work/projects/open-collection/theoretical_chemistry/projects/nmr_diplomovky/derivaty_markerov/derivative_2/ams/srzora/der2.nmr_opbe_srzora_gnuc_tz2p-j_good_cosmo-chcl3.results/t21.45ACDD67.N
         jobid: 0
         title: Nitrogen (TZ2P-J)



 ===============
 G E O M E T R Y  ***  3D  Molecule  ***
 ===============
  

 ATOMS
 =====                            X Y Z                    CHARGE                     RADIUS
                                (Angstrom)             Nucl     +Core       At.Mass (Angstrom)
                       --------------------------    ----------------       ------- ----------
    1  O               3.3319    0.3008    0.1900      8.00      8.00       15.9949    1.5170
    2  P               2.2302   -0.1764   -0.9313     15.00     15.00       30.9738    1.8500
    3  O               1.1554    1.0605   -1.0210      8.00      8.00       15.9949    1.5170
    4  O               1.2851   -1.0637    0.0766      8.00      8.00       15.9949    1.5170
    5  C               0.1539    1.0123    0.0256      6.00      6.00       12.0000    1.7000
    6  C              -0.0422   -0.5159    0.2419      6.00      6.00       12.0000    1.7000
    7  C               0.6900    1.7305    1.2561      6.00      6.00       12.0000    1.7000
    8  C              -1.0761    1.7259   -0.4988      6.00      6.00       12.0000    1.7000
    9  C              -0.9350   -1.1544   -0.8129      6.00      6.00       12.0000    1.7000
   10  C              -0.5195   -0.8873    1.6316      6.00      6.00       12.0000    1.7000
   11  H              -0.0861    1.8266    2.0180      1.00      1.00        1.0078    1.3500
   12  H               1.5487    1.2139    1.6823      1.00      1.00        1.0078    1.3500
   13  H               1.0069    2.7326    0.9635      1.00      1.00        1.0078    1.3500
   14  H              -1.3837    1.3338   -1.4668      1.00      1.00        1.0078    1.3500
   15  H              -1.9059    1.6233    0.2047      1.00      1.00        1.0078    1.3500
   16  H              -0.8601    2.7891   -0.6133      1.00      1.00        1.0078    1.3500
   17  H              -1.9806   -0.8746   -0.6739      1.00      1.00        1.0078    1.3500
   18  H              -0.6265   -0.8669   -1.8193      1.00      1.00        1.0078    1.3500
   19  H              -0.8544   -2.2387   -0.7276      1.00      1.00        1.0078    1.3500
   20  H              -1.4906   -0.4300    1.8362      1.00      1.00        1.0078    1.3500
   21  H              -0.6333   -1.9698    1.7022      1.00      1.00        1.0078    1.3500
   22  H               0.1893   -0.5676    2.3934      1.00      1.00        1.0078    1.3500
   23  C               4.6386    0.6368   -0.2758      6.00      6.00       12.0000    1.7000
   24  C               5.6591   -0.0419    0.6176      6.00      6.00       12.0000    1.7000
   25  N               7.0198    0.3171    0.2643      7.00      7.00       14.0031    1.6080
   26  C               7.3776    1.6363    0.7435      6.00      6.00       12.0000    1.7000
   27  H               7.7280   -1.6476    0.3388      1.00      1.00        1.0078    1.3500
   28  H               8.3858    1.8871    0.4086      1.00      1.00        1.0078    1.3500
   29  C               7.9642   -0.6656    0.7521      6.00      6.00       12.0000    1.7000
   30  H               4.7793    0.3118   -1.3123      1.00      1.00        1.0078    1.3500
   31  H               4.7418    1.7244   -0.2481      1.00      1.00        1.0078    1.3500
   32  H               5.5409   -1.1214    0.4987      1.00      1.00        1.0078    1.3500
   33  H               5.4277    0.1898    1.6724      1.00      1.00        1.0078    1.3500
   34  H               7.9688   -0.7460    1.8539      1.00      1.00        1.0078    1.3500
   35  H               7.3541    1.7041    1.8462      1.00      1.00        1.0078    1.3500
   36  H               6.7007    2.3916    0.3435      1.00      1.00        1.0078    1.3500
   37  H               8.9725   -0.3967    0.4309      1.00      1.00        1.0078    1.3500


 FRAGMENTS
 =========                                     Atoms in this Fragment     Cart. coord.s (Angstrom)
                                               -------------------------------------------------------
    1  O                                                 1  O            3.3319    0.3008    0.1900
    2  O                                                 3  O            1.1554    1.0605   -1.0210
    3  O                                                 4  O            1.2851   -1.0637    0.0766
    4  P                                                 2  P            2.2302   -0.1764   -0.9313
    5  C                                                 5  C            0.1539    1.0123    0.0256
    6  C                                                 6  C           -0.0422   -0.5159    0.2419
    7  C                                                 7  C            0.6900    1.7305    1.2561
    8  C                                                 8  C           -1.0761    1.7259   -0.4988
    9  C                                                 9  C           -0.9350   -1.1544   -0.8129
   10  C                                                10  C           -0.5195   -0.8873    1.6316
   11  C                                                23  C            4.6386    0.6368   -0.2758
   12  C                                                24  C            5.6591   -0.0419    0.6176
   13  C                                                26  C            7.3776    1.6363    0.7435
   14  C                                                29  C            7.9642   -0.6656    0.7521
   15  H                                                11  H           -0.0861    1.8266    2.0180
   16  H                                                12  H            1.5487    1.2139    1.6823
   17  H                                                13  H            1.0069    2.7326    0.9635
   18  H                                                14  H           -1.3837    1.3338   -1.4668
   19  H                                                15  H           -1.9059    1.6233    0.2047
   20  H                                                16  H           -0.8601    2.7891   -0.6133
   21  H                                                17  H           -1.9806   -0.8746   -0.6739
   22  H                                                18  H           -0.6265   -0.8669   -1.8193
   23  H                                                19  H           -0.8544   -2.2387   -0.7276
   24  H                                                20  H           -1.4906   -0.4300    1.8362
   25  H                                                21  H           -0.6333   -1.9698    1.7022
   26  H                                                22  H            0.1893   -0.5676    2.3934
   27  H                                                27  H            7.7280   -1.6476    0.3388
   28  H                                                28  H            8.3858    1.8871    0.4086
   29  H                                                30  H            4.7793    0.3118   -1.3123
   30  H                                                31  H            4.7418    1.7244   -0.2481
   31  H                                                32  H            5.5409   -1.1214    0.4987
   32  H                                                33  H            5.4277    0.1898    1.6724
   33  H                                                34  H            7.9688   -0.7460    1.8539
   34  H                                                35  H            7.3541    1.7041    1.8462
   35  H                                                36  H            6.7007    2.3916    0.3435
   36  H                                                37  H            8.9725   -0.3967    0.4309
   37  N                                                25  N            7.0198    0.3171    0.2643



 =====================================
 S Y M M E T R Y ,   E L E C T R O N S
 =====================================
  
 Symmetry: NOSYM

 Irreducible Representations, including subspecies
 -------------------------------------------------
 A


 Configuration of Valence Electrons
 ==================================
 ( determined in the SCF procedure )

 Total:   128

 Net Charge: 0 (Nuclei minus Electrons)

 Aufbau principle for MO occupations will be applied through SCF cycle no.     150
 Thereafter, the program will assign electrons to MOs that are spatially
 similar to the occupied MOs in a "reference" cycle ("KeepOrbitals").
 The reference cycle is always the PREVIOUS cycle: it will evolve with
 the SCF procedure.
1
 ***************************************************************************************************



                                      ****************************************
                                      *  B U I L D : (Fragments, Functions)  *
                                      ****************************************
  



 =======
 S F O s  ***  (Symmetrized Fragment Orbitals)  ***
 =======
  
 SFOs are linear combinations of (valence) Fragment Orbitals (FOs), such that the SFOs transform as the
 irreducible representations of the (molecular) symmetry group. Each SFO is therefore characterized by
 an irrep of the molecule and by a few (or only one) generating FOs.
 The SFOs constitute a symmetry-adapted basis for the Fock matrix. The MO eigenvector coefficients in
 this basis provide a direct interpretation of the MOs in terms of Frontier Orbital Theory.

 The SFOs are combined with auxiliary Core Functions (CFs) to ensure orthogonalization on the (frozen)
 Core Orbitals (COs). The Core-orthogonalized SFOs (CSFOs) constitute the true Fock basis.

 The FOs, and hence also the (C)SFOs are combinations of the elementary basis functions (BAS). The basis
 functions that participate in the description of the SFOs depend on the irrep. The indices of the
 involved functions are printed below for each irrep.
 (The complete list of primitive basis functions is printed in another section)

 Total nr. of (C)SFOs (summation over all irreps) :   833

 NOTE: a (C)SFO that is defined as a combination of more than one FO is usually NOT normalized.



                                       === A ===
 Nr. of SFOs :  833
 Cartesian basis functions that participate in this irrep (total number =   915) :
      1     2     3     4     5     6     7     8     9    10
     13    16    19    11    14    17    20    12    15    18
     21    22    23    24    25    26    27    28    29    30
     31    32    33    34    35    36    37    38    39    40
     41    42    43    44    45    46    47    50    53    56
     48    51    54    57    49    52    55    58    59    60
     61    62    63    64    65    66    67    68    69    70
     71    72    73    74    75    76    77    78    79    80
     81    82    83    84    87    90    93    85    88    91
     94    86    89    92    95    96    97    98    99   100
    101   102   103   104   105   106   107   108   109   110
    111   112   113   114   115   116   117   118   119   129
    130   131   120   123   126   132   135   138   121   124
    127   133   136   139   122   125   128   134   137   140
    141   142   143   144   145   146   147   148   149   150
    151   152   153   154   155   156   157   158   159   160
    161   162   163   164   165   166   169   172   175   167
    170   173   176   168   171   174   177   178   179   180
    181   182   183   184   185   186   187   188   189   190
    191   192   193   194   195   196   197   198   199   200
    201   202   203   206   209   212   204   207   210   213
    205   208   211   214   215   216   217   218   219   220
    221   222   223   224   225   226   227   228   229   230
    231   232   233   234   235   236   237   238   239   240
    243   246   249   241   244   247   250   242   245   248
    251   252   253   254   255   256   257   258   259   260
    261   262   263   264   265   266   267   268   269   270
    271   272   273   274   275   276   277   280   283   286
    278   281   284   287   279   282   285   288   289   290
    291   292   293   294   295   296   297   298   299   300
    301   302   303   304   305   306   307   308   309   310
    311   312   313   314   317   320   323   315   318   321
    324   316   319   322   325   326   327   328   329   330
    331   332   333   334   335   336   337   338   339   340
    341   342   343   344   345   346   347   348   349   350
    351   354   357   360   352   355   358   361   353   356
    359   362   363   364   365   366   367   368   369   370
    371   372   373   374   375   376   377   378   379   380
    381   382   383   384   385   386   387   388   391   394
    397   389   392   395   398   390   393   396   399   400
    401   402   403   404   405   406   407   408   409   410
    411   412   413   414   415   416   417   418   419   420
    421   422   423   424   425   428   431   434   426   429
    432   435   427   430   433   436   437   438   439   440
    441   442   443   444   445   446   447   448   449   450
    451   452   453   454   455   456   457   458   459   460
    461   462   465   468   471   463   466   469   472   464
    467   470   473   474   475   476   477   478   479   480
    481   482   483   484   485   486   487   488   489   490
    491   492   493   494   495   496   497   498   499   502
    505   508   500   503   506   509   501   504   507   510
    511   512   513   514   515   516   517   518   519   520
    521   522   523   524   525   526   527   528   529   530
    531   532   533   534   535   536   537   538   539   540
    541   542   543   544   545   546   547   548   549   550
    551   552   553   554   555   556   557   558   559   560
    561   562   563   564   565   566   567   568   569   570
    571   572   573   574   575   576   577   578   579   580
    581   582   583   584   585   586   587   588   589   590
    591   592   593   594   595   596   597   598   599   600
    601   602   603   604   605   606   607   608   609   610
    611   612   613   614   615   616   617   618   619   620
    621   622   623   624   625   626   627   628   629   630
    631   632   633   634   635   636   637   638   639   640
    641   642   643   644   645   646   647   648   649   650
    651   652   653   654   655   656   657   658   659   660
    661   662   663   664   665   666   667   668   669   670
    671   672   673   674   675   676   677   678   679   680
    681   682   683   684   685   686   687   688   689   690
    691   692   693   694   695   696   697   698   699   700
    701   702   703   704   705   706   707   708   709   710
    711   712   713   714   715   716   717   718   719   720
    721   722   723   724   725   726   727   728   729   730
    731   732   733   734   735   736   737   738   739   740
    741   742   743   744   745   746   747   748   749   750
    751   752   753   754   755   756   757   758   759   760
    761   762   763   764   765   766   767   768   769   770
    771   772   773   774   775   776   777   778   779   780
    781   782   783   784   785   786   787   788   789   790
    791   792   793   794   795   796   797   798   799   800
    801   802   803   804   805   806   807   808   809   810
    811   812   813   814   815   816   817   818   819   820
    821   822   823   824   825   826   827   828   829   830
    831   832   833   834   835   836   837   838   839   840
    841   842   843   844   845   846   847   848   849   850
    851   852   853   854   855   856   857   858   859   860
    861   862   863   864   865   866   867   868   869   870
    871   872   873   874   875   876   877   878   879   880
    881   882   883   884   885   886   887   888   891   894
    897   889   892   895   898   890   893   896   899   900
    901   902   903   904   905   906   907   908   909   910
    911   912   913   914   915

    SFO  (index         Fragment          Generating    Expansion in Fragment Orbitals
  indx  incl.CFs)   Occup   Orb.Energy   FragmentType  Coeff.   Orbital     on Fragment
 --------------------------------------------------------------------------------------
     1       1      2.000     -18.907 au  O             1.00      1 S               1
                        (    -514.492 eV)
     2       2      2.000      -0.890 au  O             1.00      2 S               1
                        (     -24.229 eV)
     3       3       --         0.741 au  O             1.00      3 S               1
                        (      20.151 eV)
     4       4       --         9.202 au  O             1.00      4 S               1
                        (     250.392 eV)
     5       5       --        47.321 au  O             1.00      5 S               1
                        (    1287.672 eV)
     6       6       --       209.891 au  O             1.00      6 S               1
                        (    5711.414 eV)
     7       7       --      1209.840 au  O             1.00      7 S               1
                        (   32921.419 eV)
     8       8       --     10323.761 au  O             1.00      8 S               1
                        (  280923.827 eV)
     9       9       --     37361.506 au  O             1.00      9 S               1
                        ( 1016658.317 eV)
    10      10      1.333      -0.328 au  O             1.00      1 P:x             1
                        (      -8.927 eV)
    11      11       --         0.352 au  O             1.00      2 P:x             1
                        (       9.565 eV)
    12      12       --         3.468 au  O             1.00      3 P:x             1
                        (      94.358 eV)
    13      13       --        37.192 au  O             1.00      4 P:x             1
                        (    1012.054 eV)
    14      14      1.333      -0.328 au  O             1.00      1 P:y             1
                        (      -8.927 eV)
    15      15       --         0.352 au  O             1.00      2 P:y             1
                        (       9.565 eV)
    16      16       --         3.468 au  O             1.00      3 P:y             1
                        (      94.358 eV)
    17      17       --        37.192 au  O             1.00      4 P:y             1
                        (    1012.054 eV)
    18      18      1.333      -0.328 au  O             1.00      1 P:z             1
                        (      -8.927 eV)
    19      19       --         0.352 au  O             1.00      2 P:z             1
                        (       9.565 eV)
    20      20       --         3.468 au  O             1.00      3 P:z             1
                        (      94.358 eV)
    21      21       --        37.192 au  O             1.00      4 P:z             1
                        (    1012.054 eV)
    22      22       --         1.071 au  O             1.00      1 D:z2            1
                        (      29.131 eV)
    23      23       --         1.071 au  O             1.00      1 D:x2-y2         1
                        (      29.131 eV)
    24      24       --         1.071 au  O             1.00      1 D:xy            1
                        (      29.131 eV)
    25      25       --         1.071 au  O             1.00      1 D:xz            1
                        (      29.131 eV)
    26      26       --         1.071 au  O             1.00      1 D:yz            1
                        (      29.131 eV)
    27      27       --         3.346 au  O             1.00      1 F:z3            1
                        (      91.057 eV)
    28      28       --         3.346 au  O             1.00      1 F:z             1
                        (      91.057 eV)
    29      29       --         3.346 au  O             1.00      1 F:xyz           1
                        (      91.057 eV)
    30      30       --         3.346 au  O             1.00      1 F:z2x           1
                        (      91.057 eV)
    31      31       --         3.346 au  O             1.00      1 F:z2y           1
                        (      91.057 eV)
    32      32       --         3.346 au  O             1.00      1 F:x             1
                        (      91.057 eV)
    33      33       --         3.346 au  O             1.00      1 F:y             1
                        (      91.057 eV)
    34      34      2.000     -18.907 au  O             1.00      1 S               2
                        (    -514.492 eV)
    35      35      2.000      -0.890 au  O             1.00      2 S               2
                        (     -24.229 eV)
    36      36       --         0.741 au  O             1.00      3 S               2
                        (      20.151 eV)
    37      37       --         9.202 au  O             1.00      4 S               2
                        (     250.392 eV)
    38      38       --        47.321 au  O             1.00      5 S               2
                        (    1287.672 eV)
    39      39       --       209.891 au  O             1.00      6 S               2
                        (    5711.414 eV)
    40      40       --      1209.840 au  O             1.00      7 S               2
                        (   32921.419 eV)
    41      41       --     10323.761 au  O             1.00      8 S               2
                        (  280923.827 eV)
    42      42       --     37361.506 au  O             1.00      9 S               2
                        ( 1016658.317 eV)
    43      43      1.333      -0.328 au  O             1.00      1 P:x             2
                        (      -8.927 eV)
    44      44       --         0.352 au  O             1.00      2 P:x             2
                        (       9.565 eV)
    45      45       --         3.468 au  O             1.00      3 P:x             2
                        (      94.358 eV)
    46      46       --        37.192 au  O             1.00      4 P:x             2
                        (    1012.054 eV)
    47      47      1.333      -0.328 au  O             1.00      1 P:y             2
                        (      -8.927 eV)
    48      48       --         0.352 au  O             1.00      2 P:y             2
                        (       9.565 eV)
    49      49       --         3.468 au  O             1.00      3 P:y             2
                        (      94.358 eV)
    50      50       --        37.192 au  O             1.00      4 P:y             2
                        (    1012.054 eV)
    51      51      1.333      -0.328 au  O             1.00      1 P:z             2
                        (      -8.927 eV)
    52      52       --         0.352 au  O             1.00      2 P:z             2
                        (       9.565 eV)
    53      53       --         3.468 au  O             1.00      3 P:z             2
                        (      94.358 eV)
    54      54       --        37.192 au  O             1.00      4 P:z             2
                        (    1012.054 eV)
    55      55       --         1.071 au  O             1.00      1 D:z2            2
                        (      29.131 eV)
    56      56       --         1.071 au  O             1.00      1 D:x2-y2         2
                        (      29.131 eV)
    57      57       --         1.071 au  O             1.00      1 D:xy            2
                        (      29.131 eV)
    58      58       --         1.071 au  O             1.00      1 D:xz            2
                        (      29.131 eV)
    59      59       --         1.071 au  O             1.00      1 D:yz            2
                        (      29.131 eV)
    60      60       --         3.346 au  O             1.00      1 F:z3            2
                        (      91.057 eV)
    61      61       --         3.346 au  O             1.00      1 F:z             2
                        (      91.057 eV)
    62      62       --         3.346 au  O             1.00      1 F:xyz           2
                        (      91.057 eV)
    63      63       --         3.346 au  O             1.00      1 F:z2x           2
                        (      91.057 eV)
    64      64       --         3.346 au  O             1.00      1 F:z2y           2
                        (      91.057 eV)
    65      65       --         3.346 au  O             1.00      1 F:x             2
                        (      91.057 eV)
    66      66       --         3.346 au  O             1.00      1 F:y             2
                        (      91.057 eV)
    67      67      2.000     -18.907 au  O             1.00      1 S               3
                        (    -514.492 eV)
    68      68      2.000      -0.890 au  O             1.00      2 S               3
                        (     -24.229 eV)
    69      69       --         0.741 au  O             1.00      3 S               3
                        (      20.151 eV)
    70      70       --         9.202 au  O             1.00      4 S               3
                        (     250.392 eV)
    71      71       --        47.321 au  O             1.00      5 S               3
                        (    1287.672 eV)
    72      72       --       209.891 au  O             1.00      6 S               3
                        (    5711.414 eV)
    73      73       --      1209.840 au  O             1.00      7 S               3
                        (   32921.419 eV)
    74      74       --     10323.761 au  O             1.00      8 S               3
                        (  280923.827 eV)
    75      75       --     37361.506 au  O             1.00      9 S               3
                        ( 1016658.317 eV)
    76      76      1.333      -0.328 au  O             1.00      1 P:x             3
                        (      -8.927 eV)
    77      77       --         0.352 au  O             1.00      2 P:x             3
                        (       9.565 eV)
    78      78       --         3.468 au  O             1.00      3 P:x             3
                        (      94.358 eV)
    79      79       --        37.192 au  O             1.00      4 P:x             3
                        (    1012.054 eV)
    80      80      1.333      -0.328 au  O             1.00      1 P:y             3
                        (      -8.927 eV)
    81      81       --         0.352 au  O             1.00      2 P:y             3
                        (       9.565 eV)
    82      82       --         3.468 au  O             1.00      3 P:y             3
                        (      94.358 eV)
    83      83       --        37.192 au  O             1.00      4 P:y             3
                        (    1012.054 eV)
    84      84      1.333      -0.328 au  O             1.00      1 P:z             3
                        (      -8.927 eV)
    85      85       --         0.352 au  O             1.00      2 P:z             3
                        (       9.565 eV)
    86      86       --         3.468 au  O             1.00      3 P:z             3
                        (      94.358 eV)
    87      87       --        37.192 au  O             1.00      4 P:z             3
                        (    1012.054 eV)
    88      88       --         1.071 au  O             1.00      1 D:z2            3
                        (      29.131 eV)
    89      89       --         1.071 au  O             1.00      1 D:x2-y2         3
                        (      29.131 eV)
    90      90       --         1.071 au  O             1.00      1 D:xy            3
                        (      29.131 eV)
    91      91       --         1.071 au  O             1.00      1 D:xz            3
                        (      29.131 eV)
    92      92       --         1.071 au  O             1.00      1 D:yz            3
                        (      29.131 eV)
    93      93       --         3.346 au  O             1.00      1 F:z3            3
                        (      91.057 eV)
    94      94       --         3.346 au  O             1.00      1 F:z             3
                        (      91.057 eV)
    95      95       --         3.346 au  O             1.00      1 F:xyz           3
                        (      91.057 eV)
    96      96       --         3.346 au  O             1.00      1 F:z2x           3
                        (      91.057 eV)
    97      97       --         3.346 au  O             1.00      1 F:z2y           3
                        (      91.057 eV)
    98      98       --         3.346 au  O             1.00      1 F:x             3
                        (      91.057 eV)
    99      99       --         3.346 au  O             1.00      1 F:y             3
                        (      91.057 eV)
   100     100      2.000     -76.553 au  P             1.00      1 S               4
                        (   -2083.124 eV)
   101     101      2.000      -6.438 au  P             1.00      2 S               4
                        (    -175.198 eV)
   102     102      2.000      -0.514 au  P             1.00      3 S               4
                        (     -13.994 eV)
   103     103       --         0.126 au  P             1.00      4 S               4
                        (       3.416 eV)
   104     104       --         1.307 au  P             1.00      5 S               4
                        (      35.563 eV)
   105     105       --         8.213 au  P             1.00      6 S               4
                        (     223.486 eV)
   106     106       --        71.365 au  P             1.00      7 S               4
                        (    1941.946 eV)
   107     107       --       472.706 au  P             1.00      8 S               4
                        (   12862.983 eV)
   108     108       --      3228.227 au  P             1.00      9 S               4
                        (   87844.522 eV)
   109     109       --     20622.625 au  P             1.00     10 S               4
                        (  561170.183 eV)
   110     110       --     50058.361 au  P             1.00     11 S               4
                        ( 1362157.301 eV)
   111     111      2.000      -4.606 au  P             1.00      1 P:x             4
                        (    -125.335 eV)
   112     112      1.000      -0.203 au  P             1.00      2 P:x             4
                        (      -5.528 eV)
   113     113       --         0.085 au  P             1.00      3 P:x             4
                        (       2.325 eV)
   114     114       --         0.871 au  P             1.00      4 P:x             4
                        (      23.690 eV)
   115     115       --         9.150 au  P             1.00      5 P:x             4
                        (     248.992 eV)
   116     116       --       118.238 au  P             1.00      6 P:x             4
                        (    3217.426 eV)
   117     117      2.000      -4.606 au  P             1.00      1 P:y             4
                        (    -125.335 eV)
   118     118      1.000      -0.203 au  P             1.00      2 P:y             4
                        (      -5.528 eV)
   119     119       --         0.085 au  P             1.00      3 P:y             4
                        (       2.325 eV)
   120     120       --         0.871 au  P             1.00      4 P:y             4
                        (      23.690 eV)
   121     121       --         9.150 au  P             1.00      5 P:y             4
                        (     248.992 eV)
   122     122       --       118.238 au  P             1.00      6 P:y             4
                        (    3217.426 eV)
   123     123      2.000      -4.606 au  P             1.00      1 P:z             4
                        (    -125.335 eV)
   124     124      1.000      -0.203 au  P             1.00      2 P:z             4
                        (      -5.528 eV)
   125     125       --         0.085 au  P             1.00      3 P:z             4
                        (       2.325 eV)
   126     126       --         0.871 au  P             1.00      4 P:z             4
                        (      23.690 eV)
   127     127       --         9.150 au  P             1.00      5 P:z             4
                        (     248.992 eV)
   128     128       --       118.238 au  P             1.00      6 P:z             4
                        (    3217.426 eV)
   129     129       --         0.388 au  P             1.00      1 D:z2            4
                        (      10.545 eV)
   130     130       --         0.388 au  P             1.00      1 D:x2-y2         4
                        (      10.545 eV)
   131     131       --         0.388 au  P             1.00      1 D:xy            4
                        (      10.545 eV)
   132     132       --         0.388 au  P             1.00      1 D:xz            4
                        (      10.545 eV)
   133     133       --         0.388 au  P             1.00      1 D:yz            4
                        (      10.545 eV)
   134     134       --         1.146 au  P             1.00      1 F:z3            4
                        (      31.188 eV)
   135     135       --         1.146 au  P             1.00      1 F:z             4
                        (      31.188 eV)
   136     136       --         1.146 au  P             1.00      1 F:xyz           4
                        (      31.188 eV)
   137     137       --         1.146 au  P             1.00      1 F:z2x           4
                        (      31.188 eV)
   138     138       --         1.146 au  P             1.00      1 F:z2y           4
                        (      31.188 eV)
   139     139       --         1.146 au  P             1.00      1 F:x             4
                        (      31.188 eV)
   140     140       --         1.146 au  P             1.00      1 F:y             4
                        (      31.188 eV)
   141     141      2.000     -10.052 au  C             1.00      1 S               5
                        (    -273.517 eV)
   142     142      2.000      -0.512 au  C             1.00      2 S               5
                        (     -13.926 eV)
   143     143       --         0.351 au  C             1.00      3 S               5
                        (       9.540 eV)
   144     144       --         3.928 au  C             1.00      4 S               5
                        (     106.873 eV)
   145     145       --        20.643 au  C             1.00      5 S               5
                        (     561.715 eV)
   146     146       --       100.258 au  C             1.00      6 S               5
                        (    2728.157 eV)
   147     147       --       641.383 au  C             1.00      7 S               5
                        (   17452.917 eV)
   148     148       --      6595.649 au  C             1.00      8 S               5
                        (  179476.738 eV)
   149     149       --     33131.053 au  C             1.00      9 S               5
                        (  901541.821 eV)
   150     150      0.667      -0.189 au  C             1.00      1 P:x             5
                        (      -5.152 eV)
   151     151       --         0.171 au  C             1.00      2 P:x             5
                        (       4.640 eV)
   152     152       --         1.898 au  C             1.00      3 P:x             5
                        (      51.653 eV)
   153     153       --        22.249 au  C             1.00      4 P:x             5
                        (     605.420 eV)
   154     154      0.667      -0.189 au  C             1.00      1 P:y             5
                        (      -5.152 eV)
   155     155       --         0.171 au  C             1.00      2 P:y             5
                        (       4.640 eV)
   156     156       --         1.898 au  C             1.00      3 P:y             5
                        (      51.653 eV)
   157     157       --        22.249 au  C             1.00      4 P:y             5
                        (     605.420 eV)
   158     158      0.667      -0.189 au  C             1.00      1 P:z             5
                        (      -5.152 eV)
   159     159       --         0.171 au  C             1.00      2 P:z             5
                        (       4.640 eV)
   160     160       --         1.898 au  C             1.00      3 P:z             5
                        (      51.653 eV)
   161     161       --        22.249 au  C             1.00      4 P:z             5
                        (     605.420 eV)
   162     162       --         1.228 au  C             1.00      1 D:z2            5
                        (      33.426 eV)
   163     163       --         1.228 au  C             1.00      1 D:x2-y2         5
                        (      33.426 eV)
   164     164       --         1.228 au  C             1.00      1 D:xy            5
                        (      33.426 eV)
   165     165       --         1.228 au  C             1.00      1 D:xz            5
                        (      33.426 eV)
   166     166       --         1.228 au  C             1.00      1 D:yz            5
                        (      33.426 eV)
   167     167       --         3.999 au  C             1.00      1 F:z3            5
                        (     108.813 eV)
   168     168       --         3.999 au  C             1.00      1 F:z             5
                        (     108.813 eV)
   169     169       --         3.999 au  C             1.00      1 F:xyz           5
                        (     108.813 eV)
   170     170       --         3.999 au  C             1.00      1 F:z2x           5
                        (     108.813 eV)
   171     171       --         3.999 au  C             1.00      1 F:z2y           5
                        (     108.813 eV)
   172     172       --         3.999 au  C             1.00      1 F:x             5
                        (     108.813 eV)
   173     173       --         3.999 au  C             1.00      1 F:y             5
                        (     108.813 eV)
   174     174      2.000     -10.052 au  C             1.00      1 S               6
                        (    -273.517 eV)
   175     175      2.000      -0.512 au  C             1.00      2 S               6
                        (     -13.926 eV)
   176     176       --         0.351 au  C             1.00      3 S               6
                        (       9.540 eV)
   177     177       --         3.928 au  C             1.00      4 S               6
                        (     106.873 eV)
   178     178       --        20.643 au  C             1.00      5 S               6
                        (     561.715 eV)
   179     179       --       100.258 au  C             1.00      6 S               6
                        (    2728.157 eV)
   180     180       --       641.383 au  C             1.00      7 S               6
                        (   17452.917 eV)
   181     181       --      6595.649 au  C             1.00      8 S               6
                        (  179476.738 eV)
   182     182       --     33131.053 au  C             1.00      9 S               6
                        (  901541.821 eV)
   183     183      0.667      -0.189 au  C             1.00      1 P:x             6
                        (      -5.152 eV)
   184     184       --         0.171 au  C             1.00      2 P:x             6
                        (       4.640 eV)
   185     185       --         1.898 au  C             1.00      3 P:x             6
                        (      51.653 eV)
   186     186       --        22.249 au  C             1.00      4 P:x             6
                        (     605.420 eV)
   187     187      0.667      -0.189 au  C             1.00      1 P:y             6
                        (      -5.152 eV)
   188     188       --         0.171 au  C             1.00      2 P:y             6
                        (       4.640 eV)
   189     189       --         1.898 au  C             1.00      3 P:y             6
                        (      51.653 eV)
   190     190       --        22.249 au  C             1.00      4 P:y             6
                        (     605.420 eV)
   191     191      0.667      -0.189 au  C             1.00      1 P:z             6
                        (      -5.152 eV)
   192     192       --         0.171 au  C             1.00      2 P:z             6
                        (       4.640 eV)
   193     193       --         1.898 au  C             1.00      3 P:z             6
                        (      51.653 eV)
   194     194       --        22.249 au  C             1.00      4 P:z             6
                        (     605.420 eV)
   195     195       --         1.228 au  C             1.00      1 D:z2            6
                        (      33.426 eV)
   196     196       --         1.228 au  C             1.00      1 D:x2-y2         6
                        (      33.426 eV)
   197     197       --         1.228 au  C             1.00      1 D:xy            6
                        (      33.426 eV)
   198     198       --         1.228 au  C             1.00      1 D:xz            6
                        (      33.426 eV)
   199     199       --         1.228 au  C             1.00      1 D:yz            6
                        (      33.426 eV)
   200     200       --         3.999 au  C             1.00      1 F:z3            6
                        (     108.813 eV)
   201     201       --         3.999 au  C             1.00      1 F:z             6
                        (     108.813 eV)
   202     202       --         3.999 au  C             1.00      1 F:xyz           6
                        (     108.813 eV)
   203     203       --         3.999 au  C             1.00      1 F:z2x           6
                        (     108.813 eV)
   204     204       --         3.999 au  C             1.00      1 F:z2y           6
                        (     108.813 eV)
   205     205       --         3.999 au  C             1.00      1 F:x             6
                        (     108.813 eV)
   206     206       --         3.999 au  C             1.00      1 F:y             6
                        (     108.813 eV)
   207     207      2.000     -10.052 au  C             1.00      1 S               7
                        (    -273.517 eV)
   208     208      2.000      -0.512 au  C             1.00      2 S               7
                        (     -13.926 eV)
   209     209       --         0.351 au  C             1.00      3 S               7
                        (       9.540 eV)
   210     210       --         3.928 au  C             1.00      4 S               7
                        (     106.873 eV)
   211     211       --        20.643 au  C             1.00      5 S               7
                        (     561.715 eV)
   212     212       --       100.258 au  C             1.00      6 S               7
                        (    2728.157 eV)
   213     213       --       641.383 au  C             1.00      7 S               7
                        (   17452.917 eV)
   214     214       --      6595.649 au  C             1.00      8 S               7
                        (  179476.738 eV)
   215     215       --     33131.053 au  C             1.00      9 S               7
                        (  901541.821 eV)
   216     216      0.667      -0.189 au  C             1.00      1 P:x             7
                        (      -5.152 eV)
   217     217       --         0.171 au  C             1.00      2 P:x             7
                        (       4.640 eV)
   218     218       --         1.898 au  C             1.00      3 P:x             7
                        (      51.653 eV)
   219     219       --        22.249 au  C             1.00      4 P:x             7
                        (     605.420 eV)
   220     220      0.667      -0.189 au  C             1.00      1 P:y             7
                        (      -5.152 eV)
   221     221       --         0.171 au  C             1.00      2 P:y             7
                        (       4.640 eV)
   222     222       --         1.898 au  C             1.00      3 P:y             7
                        (      51.653 eV)
   223     223       --        22.249 au  C             1.00      4 P:y             7
                        (     605.420 eV)
   224     224      0.667      -0.189 au  C             1.00      1 P:z             7
                        (      -5.152 eV)
   225     225       --         0.171 au  C             1.00      2 P:z             7
                        (       4.640 eV)
   226     226       --         1.898 au  C             1.00      3 P:z             7
                        (      51.653 eV)
   227     227       --        22.249 au  C             1.00      4 P:z             7
                        (     605.420 eV)
   228     228       --         1.228 au  C             1.00      1 D:z2            7
                        (      33.426 eV)
   229     229       --         1.228 au  C             1.00      1 D:x2-y2         7
                        (      33.426 eV)
   230     230       --         1.228 au  C             1.00      1 D:xy            7
                        (      33.426 eV)
   231     231       --         1.228 au  C             1.00      1 D:xz            7
                        (      33.426 eV)
   232     232       --         1.228 au  C             1.00      1 D:yz            7
                        (      33.426 eV)
   233     233       --         3.999 au  C             1.00      1 F:z3            7
                        (     108.813 eV)
   234     234       --         3.999 au  C             1.00      1 F:z             7
                        (     108.813 eV)
   235     235       --         3.999 au  C             1.00      1 F:xyz           7
                        (     108.813 eV)
   236     236       --         3.999 au  C             1.00      1 F:z2x           7
                        (     108.813 eV)
   237     237       --         3.999 au  C             1.00      1 F:z2y           7
                        (     108.813 eV)
   238     238       --         3.999 au  C             1.00      1 F:x             7
                        (     108.813 eV)
   239     239       --         3.999 au  C             1.00      1 F:y             7
                        (     108.813 eV)
   240     240      2.000     -10.052 au  C             1.00      1 S               8
                        (    -273.517 eV)
   241     241      2.000      -0.512 au  C             1.00      2 S               8
                        (     -13.926 eV)
   242     242       --         0.351 au  C             1.00      3 S               8
                        (       9.540 eV)
   243     243       --         3.928 au  C             1.00      4 S               8
                        (     106.873 eV)
   244     244       --        20.643 au  C             1.00      5 S               8
                        (     561.715 eV)
   245     245       --       100.258 au  C             1.00      6 S               8
                        (    2728.157 eV)
   246     246       --       641.383 au  C             1.00      7 S               8
                        (   17452.917 eV)
   247     247       --      6595.649 au  C             1.00      8 S               8
                        (  179476.738 eV)
   248     248       --     33131.053 au  C             1.00      9 S               8
                        (  901541.821 eV)
   249     249      0.667      -0.189 au  C             1.00      1 P:x             8
                        (      -5.152 eV)
   250     250       --         0.171 au  C             1.00      2 P:x             8
                        (       4.640 eV)
   251     251       --         1.898 au  C             1.00      3 P:x             8
                        (      51.653 eV)
   252     252       --        22.249 au  C             1.00      4 P:x             8
                        (     605.420 eV)
   253     253      0.667      -0.189 au  C             1.00      1 P:y             8
                        (      -5.152 eV)
   254     254       --         0.171 au  C             1.00      2 P:y             8
                        (       4.640 eV)
   255     255       --         1.898 au  C             1.00      3 P:y             8
                        (      51.653 eV)
   256     256       --        22.249 au  C             1.00      4 P:y             8
                        (     605.420 eV)
   257     257      0.667      -0.189 au  C             1.00      1 P:z             8
                        (      -5.152 eV)
   258     258       --         0.171 au  C             1.00      2 P:z             8
                        (       4.640 eV)
   259     259       --         1.898 au  C             1.00      3 P:z             8
                        (      51.653 eV)
   260     260       --        22.249 au  C             1.00      4 P:z             8
                        (     605.420 eV)
   261     261       --         1.228 au  C             1.00      1 D:z2            8
                        (      33.426 eV)
   262     262       --         1.228 au  C             1.00      1 D:x2-y2         8
                        (      33.426 eV)
   263     263       --         1.228 au  C             1.00      1 D:xy            8
                        (      33.426 eV)
   264     264       --         1.228 au  C             1.00      1 D:xz            8
                        (      33.426 eV)
   265     265       --         1.228 au  C             1.00      1 D:yz            8
                        (      33.426 eV)
   266     266       --         3.999 au  C             1.00      1 F:z3            8
                        (     108.813 eV)
   267     267       --         3.999 au  C             1.00      1 F:z             8
                        (     108.813 eV)
   268     268       --         3.999 au  C             1.00      1 F:xyz           8
                        (     108.813 eV)
   269     269       --         3.999 au  C             1.00      1 F:z2x           8
                        (     108.813 eV)
   270     270       --         3.999 au  C             1.00      1 F:z2y           8
                        (     108.813 eV)
   271     271       --         3.999 au  C             1.00      1 F:x             8
                        (     108.813 eV)
   272     272       --         3.999 au  C             1.00      1 F:y             8
                        (     108.813 eV)
   273     273      2.000     -10.052 au  C             1.00      1 S               9
                        (    -273.517 eV)
   274     274      2.000      -0.512 au  C             1.00      2 S               9
                        (     -13.926 eV)
   275     275       --         0.351 au  C             1.00      3 S               9
                        (       9.540 eV)
   276     276       --         3.928 au  C             1.00      4 S               9
                        (     106.873 eV)
   277     277       --        20.643 au  C             1.00      5 S               9
                        (     561.715 eV)
   278     278       --       100.258 au  C             1.00      6 S               9
                        (    2728.157 eV)
   279     279       --       641.383 au  C             1.00      7 S               9
                        (   17452.917 eV)
   280     280       --      6595.649 au  C             1.00      8 S               9
                        (  179476.738 eV)
   281     281       --     33131.053 au  C             1.00      9 S               9
                        (  901541.821 eV)
   282     282      0.667      -0.189 au  C             1.00      1 P:x             9
                        (      -5.152 eV)
   283     283       --         0.171 au  C             1.00      2 P:x             9
                        (       4.640 eV)
   284     284       --         1.898 au  C             1.00      3 P:x             9
                        (      51.653 eV)
   285     285       --        22.249 au  C             1.00      4 P:x             9
                        (     605.420 eV)
   286     286      0.667      -0.189 au  C             1.00      1 P:y             9
                        (      -5.152 eV)
   287     287       --         0.171 au  C             1.00      2 P:y             9
                        (       4.640 eV)
   288     288       --         1.898 au  C             1.00      3 P:y             9
                        (      51.653 eV)
   289     289       --        22.249 au  C             1.00      4 P:y             9
                        (     605.420 eV)
   290     290      0.667      -0.189 au  C             1.00      1 P:z             9
                        (      -5.152 eV)
   291     291       --         0.171 au  C             1.00      2 P:z             9
                        (       4.640 eV)
   292     292       --         1.898 au  C             1.00      3 P:z             9
                        (      51.653 eV)
   293     293       --        22.249 au  C             1.00      4 P:z             9
                        (     605.420 eV)
   294     294       --         1.228 au  C             1.00      1 D:z2            9
                        (      33.426 eV)
   295     295       --         1.228 au  C             1.00      1 D:x2-y2         9
                        (      33.426 eV)
   296     296       --         1.228 au  C             1.00      1 D:xy            9
                        (      33.426 eV)
   297     297       --         1.228 au  C             1.00      1 D:xz            9
                        (      33.426 eV)
   298     298       --         1.228 au  C             1.00      1 D:yz            9
                        (      33.426 eV)
   299     299       --         3.999 au  C             1.00      1 F:z3            9
                        (     108.813 eV)
   300     300       --         3.999 au  C             1.00      1 F:z             9
                        (     108.813 eV)
   301     301       --         3.999 au  C             1.00      1 F:xyz           9
                        (     108.813 eV)
   302     302       --         3.999 au  C             1.00      1 F:z2x           9
                        (     108.813 eV)
   303     303       --         3.999 au  C             1.00      1 F:z2y           9
                        (     108.813 eV)
   304     304       --         3.999 au  C             1.00      1 F:x             9
                        (     108.813 eV)
   305     305       --         3.999 au  C             1.00      1 F:y             9
                        (     108.813 eV)
   306     306      2.000     -10.052 au  C             1.00      1 S              10
                        (    -273.517 eV)
   307     307      2.000      -0.512 au  C             1.00      2 S              10
                        (     -13.926 eV)
   308     308       --         0.351 au  C             1.00      3 S              10
                        (       9.540 eV)
   309     309       --         3.928 au  C             1.00      4 S              10
                        (     106.873 eV)
   310     310       --        20.643 au  C             1.00      5 S              10
                        (     561.715 eV)
   311     311       --       100.258 au  C             1.00      6 S              10
                        (    2728.157 eV)
   312     312       --       641.383 au  C             1.00      7 S              10
                        (   17452.917 eV)
   313     313       --      6595.649 au  C             1.00      8 S              10
                        (  179476.738 eV)
   314     314       --     33131.053 au  C             1.00      9 S              10
                        (  901541.821 eV)
   315     315      0.667      -0.189 au  C             1.00      1 P:x            10
                        (      -5.152 eV)
   316     316       --         0.171 au  C             1.00      2 P:x            10
                        (       4.640 eV)
   317     317       --         1.898 au  C             1.00      3 P:x            10
                        (      51.653 eV)
   318     318       --        22.249 au  C             1.00      4 P:x            10
                        (     605.420 eV)
   319     319      0.667      -0.189 au  C             1.00      1 P:y            10
                        (      -5.152 eV)
   320     320       --         0.171 au  C             1.00      2 P:y            10
                        (       4.640 eV)
   321     321       --         1.898 au  C             1.00      3 P:y            10
                        (      51.653 eV)
   322     322       --        22.249 au  C             1.00      4 P:y            10
                        (     605.420 eV)
   323     323      0.667      -0.189 au  C             1.00      1 P:z            10
                        (      -5.152 eV)
   324     324       --         0.171 au  C             1.00      2 P:z            10
                        (       4.640 eV)
   325     325       --         1.898 au  C             1.00      3 P:z            10
                        (      51.653 eV)
   326     326       --        22.249 au  C             1.00      4 P:z            10
                        (     605.420 eV)
   327     327       --         1.228 au  C             1.00      1 D:z2           10
                        (      33.426 eV)
   328     328       --         1.228 au  C             1.00      1 D:x2-y2        10
                        (      33.426 eV)
   329     329       --         1.228 au  C             1.00      1 D:xy           10
                        (      33.426 eV)
   330     330       --         1.228 au  C             1.00      1 D:xz           10
                        (      33.426 eV)
   331     331       --         1.228 au  C             1.00      1 D:yz           10
                        (      33.426 eV)
   332     332       --         3.999 au  C             1.00      1 F:z3           10
                        (     108.813 eV)
   333     333       --         3.999 au  C             1.00      1 F:z            10
                        (     108.813 eV)
   334     334       --         3.999 au  C             1.00      1 F:xyz          10
                        (     108.813 eV)
   335     335       --         3.999 au  C             1.00      1 F:z2x          10
                        (     108.813 eV)
   336     336       --         3.999 au  C             1.00      1 F:z2y          10
                        (     108.813 eV)
   337     337       --         3.999 au  C             1.00      1 F:x            10
                        (     108.813 eV)
   338     338       --         3.999 au  C             1.00      1 F:y            10
                        (     108.813 eV)
   339     339      2.000     -10.052 au  C             1.00      1 S              11
                        (    -273.517 eV)
   340     340      2.000      -0.512 au  C             1.00      2 S              11
                        (     -13.926 eV)
   341     341       --         0.351 au  C             1.00      3 S              11
                        (       9.540 eV)
   342     342       --         3.928 au  C             1.00      4 S              11
                        (     106.873 eV)
   343     343       --        20.643 au  C             1.00      5 S              11
                        (     561.715 eV)
   344     344       --       100.258 au  C             1.00      6 S              11
                        (    2728.157 eV)
   345     345       --       641.383 au  C             1.00      7 S              11
                        (   17452.917 eV)
   346     346       --      6595.649 au  C             1.00      8 S              11
                        (  179476.738 eV)
   347     347       --     33131.053 au  C             1.00      9 S              11
                        (  901541.821 eV)
   348     348      0.667      -0.189 au  C             1.00      1 P:x            11
                        (      -5.152 eV)
   349     349       --         0.171 au  C             1.00      2 P:x            11
                        (       4.640 eV)
   350     350       --         1.898 au  C             1.00      3 P:x            11
                        (      51.653 eV)
   351     351       --        22.249 au  C             1.00      4 P:x            11
                        (     605.420 eV)
   352     352      0.667      -0.189 au  C             1.00      1 P:y            11
                        (      -5.152 eV)
   353     353       --         0.171 au  C             1.00      2 P:y            11
                        (       4.640 eV)
   354     354       --         1.898 au  C             1.00      3 P:y            11
                        (      51.653 eV)
   355     355       --        22.249 au  C             1.00      4 P:y            11
                        (     605.420 eV)
   356     356      0.667      -0.189 au  C             1.00      1 P:z            11
                        (      -5.152 eV)
   357     357       --         0.171 au  C             1.00      2 P:z            11
                        (       4.640 eV)
   358     358       --         1.898 au  C             1.00      3 P:z            11
                        (      51.653 eV)
   359     359       --        22.249 au  C             1.00      4 P:z            11
                        (     605.420 eV)
   360     360       --         1.228 au  C             1.00      1 D:z2           11
                        (      33.426 eV)
   361     361       --         1.228 au  C             1.00      1 D:x2-y2        11
                        (      33.426 eV)
   362     362       --         1.228 au  C             1.00      1 D:xy           11
                        (      33.426 eV)
   363     363       --         1.228 au  C             1.00      1 D:xz           11
                        (      33.426 eV)
   364     364       --         1.228 au  C             1.00      1 D:yz           11
                        (      33.426 eV)
   365     365       --         3.999 au  C             1.00      1 F:z3           11
                        (     108.813 eV)
   366     366       --         3.999 au  C             1.00      1 F:z            11
                        (     108.813 eV)
   367     367       --         3.999 au  C             1.00      1 F:xyz          11
                        (     108.813 eV)
   368     368       --         3.999 au  C             1.00      1 F:z2x          11
                        (     108.813 eV)
   369     369       --         3.999 au  C             1.00      1 F:z2y          11
                        (     108.813 eV)
   370     370       --         3.999 au  C             1.00      1 F:x            11
                        (     108.813 eV)
   371     371       --         3.999 au  C             1.00      1 F:y            11
                        (     108.813 eV)
   372     372      2.000     -10.052 au  C             1.00      1 S              12
                        (    -273.517 eV)
   373     373      2.000      -0.512 au  C             1.00      2 S              12
                        (     -13.926 eV)
   374     374       --         0.351 au  C             1.00      3 S              12
                        (       9.540 eV)
   375     375       --         3.928 au  C             1.00      4 S              12
                        (     106.873 eV)
   376     376       --        20.643 au  C             1.00      5 S              12
                        (     561.715 eV)
   377     377       --       100.258 au  C             1.00      6 S              12
                        (    2728.157 eV)
   378     378       --       641.383 au  C             1.00      7 S              12
                        (   17452.917 eV)
   379     379       --      6595.649 au  C             1.00      8 S              12
                        (  179476.738 eV)
   380     380       --     33131.053 au  C             1.00      9 S              12
                        (  901541.821 eV)
   381     381      0.667      -0.189 au  C             1.00      1 P:x            12
                        (      -5.152 eV)
   382     382       --         0.171 au  C             1.00      2 P:x            12
                        (       4.640 eV)
   383     383       --         1.898 au  C             1.00      3 P:x            12
                        (      51.653 eV)
   384     384       --        22.249 au  C             1.00      4 P:x            12
                        (     605.420 eV)
   385     385      0.667      -0.189 au  C             1.00      1 P:y            12
                        (      -5.152 eV)
   386     386       --         0.171 au  C             1.00      2 P:y            12
                        (       4.640 eV)
   387     387       --         1.898 au  C             1.00      3 P:y            12
                        (      51.653 eV)
   388     388       --        22.249 au  C             1.00      4 P:y            12
                        (     605.420 eV)
   389     389      0.667      -0.189 au  C             1.00      1 P:z            12
                        (      -5.152 eV)
   390     390       --         0.171 au  C             1.00      2 P:z            12
                        (       4.640 eV)
   391     391       --         1.898 au  C             1.00      3 P:z            12
                        (      51.653 eV)
   392     392       --        22.249 au  C             1.00      4 P:z            12
                        (     605.420 eV)
   393     393       --         1.228 au  C             1.00      1 D:z2           12
                        (      33.426 eV)
   394     394       --         1.228 au  C             1.00      1 D:x2-y2        12
                        (      33.426 eV)
   395     395       --         1.228 au  C             1.00      1 D:xy           12
                        (      33.426 eV)
   396     396       --         1.228 au  C             1.00      1 D:xz           12
                        (      33.426 eV)
   397     397       --         1.228 au  C             1.00      1 D:yz           12
                        (      33.426 eV)
   398     398       --         3.999 au  C             1.00      1 F:z3           12
                        (     108.813 eV)
   399     399       --         3.999 au  C             1.00      1 F:z            12
                        (     108.813 eV)
   400     400       --         3.999 au  C             1.00      1 F:xyz          12
                        (     108.813 eV)
   401     401       --         3.999 au  C             1.00      1 F:z2x          12
                        (     108.813 eV)
   402     402       --         3.999 au  C             1.00      1 F:z2y          12
                        (     108.813 eV)
   403     403       --         3.999 au  C             1.00      1 F:x            12
                        (     108.813 eV)
   404     404       --         3.999 au  C             1.00      1 F:y            12
                        (     108.813 eV)
   405     405      2.000     -10.052 au  C             1.00      1 S              13
                        (    -273.517 eV)
   406     406      2.000      -0.512 au  C             1.00      2 S              13
                        (     -13.926 eV)
   407     407       --         0.351 au  C             1.00      3 S              13
                        (       9.540 eV)
   408     408       --         3.928 au  C             1.00      4 S              13
                        (     106.873 eV)
   409     409       --        20.643 au  C             1.00      5 S              13
                        (     561.715 eV)
   410     410       --       100.258 au  C             1.00      6 S              13
[...]
    1S   14.00     VALENCE
    1S    8.74     VALENCE
    1S    5.90     VALENCE
    2S    5.15     VALENCE
    2S    2.50     VALENCE
    2S    1.50     VALENCE
    2P    8.74     VALENCE
    2P    3.68     VALENCE
    2P    1.88     VALENCE
    2P    1.00     VALENCE
    3D    2.20     VALENCE
    4F    3.30     VALENCE



 =================================
 TAPE10 info, TAPE21 compatibility
 =================================
  
  ---> TAPE10 will be created by CPL
 
  ---> TAPE21 present
 
  ---> Potential is already on TAPE10.
       It will not be re-calculated.



 ==========================================
 Settings for the NMR couplings computation
 ==========================================
  
  Compute...
  FC  Term    YES             (*     default *)
  SD  Term     NO             (*     default *)
  PSO Term     NO             (*     default *)
  DSO Term     NO             (*     default *)
 
  Max. no. of SCF iterations:                25
  Convergence criterion for SCF cycle:       0.000100000

  Nuclei numbering in the output refers to the
  INTERNAL atom ordering of ADF.
  This ordering is usually different from the order
  that has been specified in the ADF input that pro-
  duced the TAPE21 being used here.



 ===========================
 L I N E A R   S C A L I N G
 ===========================
  

 Overlap cut-off criterion AO matrix elements:     0.1000000000E-07





                                  ***********************************************
                                  *  NMR spin spin coupling tensor calculation  *
                                  ***********************************************
  

 Nuclear magnetogyric ratios / 1E7 radians/(s T):
 O  (  1):    -3.628
 O  (  2):    -3.628
 O  (  3):    -3.628
 P  (  4):    10.841
 C  (  5):     6.728
 C  (  6):     6.728
 C  (  7):     6.728
 C  (  8):     6.728
 C  (  9):     6.728
 C  ( 10):     6.728
 C  ( 11):     6.728
 C  ( 12):     6.728
 C  ( 13):     6.728
 C  ( 14):     6.728
 H  ( 15):    26.752
 H  ( 16):    26.752
 H  ( 17):    26.752
 H  ( 18):    26.752
 H  ( 19):    26.752
 H  ( 20):    26.752
 H  ( 21):    26.752
 H  ( 22):    26.752
 H  ( 23):    26.752
 H  ( 24):    26.752
 H  ( 25):    26.752
 H  ( 26):    26.752
 H  ( 27):    26.752
 H  ( 28):    26.752
 H  ( 29):    26.752
 H  ( 30):    26.752
 H  ( 31):    26.752
 H  ( 32):    26.752
 H  ( 33):    26.752
 H  ( 34):    26.752
 H  ( 35):    26.752
 H  ( 36):    26.752
 N  ( 37):     1.934

 Performing the following coupling computations:
 Nucleus   4 (P ) perturbing 
          11 (C ) responding
          12 (C ) responding
          29 (H ) responding
          30 (H ) responding
          31 (H ) responding
          32 (H ) responding



 =============================================
 Computation for perturbing ADF-GUI atom: P(2)
 =============================================
  
 
 *** running FC calculation
     computing
     ... matrix elements for perturbing nucleus   4
     ... matrix elements for responding nucleus  11
     ... matrix elements for responding nucleus  12
     ... matrix elements for responding nucleus  29
     ... matrix elements for responding nucleus  30
     ... matrix elements for responding nucleus  31
     ... matrix elements for responding nucleus  32
     ... ZSO / Fermi contact coupling constant(s) 



 ===================================
 CPKS routine for spin-spin coupling  ***  Version 05/08 (scalar)  ***
 ===================================
  
 Using new AO based algorithms for CPKS
    running CPKS for TRIPLET Operator
    using first order VWN potential for LDA perturbation
    Will use LDA kernel
 
 iter.  1 V(1) measure  0.5270588938746E+00
 iter.  2 V(1) measure  0.8006166364293E+00
        2        delta  0.2735577425547E+00
 iter.  3 V(1) measure  0.8021704018899E+00
        3        delta  0.1553765460534E-02
 iter.  4 V(1) measure  0.8021741616431E+00
        4        delta  0.3759753198662E-05
 *** convergence reached



                                                *******************
                                                *  R E S U L T S  *
                                                *******************
  



 ========================================
  Nucleus 4 (P) perturbing nucleus 11 (C)
 ========================================
  
 Internal CPL numbering of atoms:  P(4) perturbing  C(11)
 ADF-GUI atoms:  P(2) perturbing  C(23)
  
 ---------------------------------
   Cartesian Axis Representation  
 ---------------------------------

 ----- k (10^19 kg m-2 s-2 A-2) ----         ------------- j (hz) -------------

 fermi-contact contribution:             
  isotropic    k=      23.654                              j=      28.959
      23.654       0.000       0.000             28.959       0.000       0.000
       0.000      23.654       0.000              0.000      28.959       0.000
       0.000       0.000      23.654              0.000       0.000      28.959

 total calculated spin-spin coupling:    
  isotropic    k=      23.654                              j=      28.959
      23.654       0.000       0.000             28.959       0.000       0.000
       0.000      23.654       0.000              0.000      28.959       0.000
       0.000       0.000      23.654              0.000       0.000      28.959
 
 ---------------------------------
   Principal Axis Representation  
 ---------------------------------

 ----- k (10^19 kg m-2 s-2 A-2) ----         ------------- j (hz) -------------

 fermi-contact contribution:             
  isotropic    k=      23.654                              j=      28.959
      23.654       0.000       0.000             28.959       0.000       0.000
       0.000      23.654       0.000              0.000      28.959       0.000
       0.000       0.000      23.654              0.000       0.000      28.959

 total calculated spin-spin coupling:    
  isotropic    k=      23.654                              j=      28.959
      23.654       0.000       0.000             28.959       0.000       0.000
       0.000      23.654       0.000              0.000      28.959       0.000
       0.000       0.000      23.654              0.000       0.000      28.959
 
 Principal Axis System (u,v,w) expressed in Cartesians:
 (taken as eigenvectors of the symmetric part of the coupling tensor,
  sorted in ascending order of eigenvalues = principal values)
        u         v         w
        1.000     0.000     0.000
        0.000     1.000     0.000
        0.000     0.000     1.000



 ========================================
  Nucleus 4 (P) perturbing nucleus 12 (C)
 ========================================
  
 Internal CPL numbering of atoms:  P(4) perturbing  C(12)
 ADF-GUI atoms:  P(2) perturbing  C(24)
  
 ---------------------------------
   Cartesian Axis Representation  
 ---------------------------------

 ----- k (10^19 kg m-2 s-2 A-2) ----         ------------- j (hz) -------------

 fermi-contact contribution:             
  isotropic    k=       3.917                              j=       4.796
       3.917       0.000       0.000              4.796       0.000       0.000
       0.000       3.917       0.000              0.000       4.796       0.000
       0.000       0.000       3.917              0.000       0.000       4.796

 total calculated spin-spin coupling:    
  isotropic    k=       3.917                              j=       4.796
       3.917       0.000       0.000              4.796       0.000       0.000
       0.000       3.917       0.000              0.000       4.796       0.000
       0.000       0.000       3.917              0.000       0.000       4.796
 
 ---------------------------------
   Principal Axis Representation  
 ---------------------------------

 ----- k (10^19 kg m-2 s-2 A-2) ----         ------------- j (hz) -------------

 fermi-contact contribution:             
  isotropic    k=       3.917                              j=       4.796
       3.917       0.000       0.000              4.796       0.000       0.000
       0.000       3.917       0.000              0.000       4.796       0.000
       0.000       0.000       3.917              0.000       0.000       4.796

 total calculated spin-spin coupling:    
  isotropic    k=       3.917                              j=       4.796
       3.917       0.000       0.000              4.796       0.000       0.000
       0.000       3.917       0.000              0.000       4.796       0.000
       0.000       0.000       3.917              0.000       0.000       4.796
 
 Principal Axis System (u,v,w) expressed in Cartesians:
 (taken as eigenvectors of the symmetric part of the coupling tensor,
  sorted in ascending order of eigenvalues = principal values)
        u         v         w
        1.000     0.000     0.000
        0.000     1.000     0.000
        0.000     0.000     1.000



 ========================================
  Nucleus 4 (P) perturbing nucleus 29 (H)
 ========================================
  
 Internal CPL numbering of atoms:  P(4) perturbing  H(29)
 ADF-GUI atoms:  P(2) perturbing  H(30)
  
 ---------------------------------
   Cartesian Axis Representation  
 ---------------------------------

 ----- k (10^19 kg m-2 s-2 A-2) ----         ------------- j (hz) -------------

 fermi-contact contribution:             
  isotropic    k=       2.924                              j=      14.233
       2.924       0.000       0.000             14.233       0.000       0.000
       0.000       2.924       0.000              0.000      14.233       0.000
       0.000       0.000       2.924              0.000       0.000      14.233

 total calculated spin-spin coupling:    
  isotropic    k=       2.924                              j=      14.233
       2.924       0.000       0.000             14.233       0.000       0.000
       0.000       2.924       0.000              0.000      14.233       0.000
       0.000       0.000       2.924              0.000       0.000      14.233
 
 ---------------------------------
   Principal Axis Representation  
 ---------------------------------

 ----- k (10^19 kg m-2 s-2 A-2) ----         ------------- j (hz) -------------

 fermi-contact contribution:             
  isotropic    k=       2.924                              j=      14.233
       2.924       0.000       0.000             14.233       0.000       0.000
       0.000       2.924       0.000              0.000      14.233       0.000
       0.000       0.000       2.924              0.000       0.000      14.233

 total calculated spin-spin coupling:    
  isotropic    k=       2.924                              j=      14.233
       2.924       0.000       0.000             14.233       0.000       0.000
       0.000       2.924       0.000              0.000      14.233       0.000
       0.000       0.000       2.924              0.000       0.000      14.233
 
 Principal Axis System (u,v,w) expressed in Cartesians:
 (taken as eigenvectors of the symmetric part of the coupling tensor,
  sorted in ascending order of eigenvalues = principal values)
        u         v         w
        1.000     0.000     0.000
        0.000     1.000     0.000
        0.000     0.000     1.000



 ========================================
  Nucleus 4 (P) perturbing nucleus 30 (H)
 ========================================
  
 Internal CPL numbering of atoms:  P(4) perturbing  H(30)
 ADF-GUI atoms:  P(2) perturbing  H(31)
  
 ---------------------------------
   Cartesian Axis Representation  
 ---------------------------------

 ----- k (10^19 kg m-2 s-2 A-2) ----         ------------- j (hz) -------------

 fermi-contact contribution:             
  isotropic    k=       0.230                              j=       1.120
       0.230       0.000       0.000              1.120       0.000       0.000
       0.000       0.230       0.000              0.000       1.120       0.000
       0.000       0.000       0.230              0.000       0.000       1.120

 total calculated spin-spin coupling:    
  isotropic    k=       0.230                              j=       1.120
       0.230       0.000       0.000              1.120       0.000       0.000
       0.000       0.230       0.000              0.000       1.120       0.000
       0.000       0.000       0.230              0.000       0.000       1.120
 
 ---------------------------------
   Principal Axis Representation  
 ---------------------------------

 ----- k (10^19 kg m-2 s-2 A-2) ----         ------------- j (hz) -------------

 fermi-contact contribution:             
  isotropic    k=       0.230                              j=       1.120
       0.230       0.000       0.000              1.120       0.000       0.000
       0.000       0.230       0.000              0.000       1.120       0.000
       0.000       0.000       0.230              0.000       0.000       1.120

 total calculated spin-spin coupling:    
  isotropic    k=       0.230                              j=       1.120
       0.230       0.000       0.000              1.120       0.000       0.000
       0.000       0.230       0.000              0.000       1.120       0.000
       0.000       0.000       0.230              0.000       0.000       1.120
 
 Principal Axis System (u,v,w) expressed in Cartesians:
 (taken as eigenvectors of the symmetric part of the coupling tensor,
  sorted in ascending order of eigenvalues = principal values)
        u         v         w
        1.000     0.000     0.000
        0.000     1.000     0.000
        0.000     0.000     1.000



 ========================================
  Nucleus 4 (P) perturbing nucleus 31 (H)
 ========================================
  
 Internal CPL numbering of atoms:  P(4) perturbing  H(31)
 ADF-GUI atoms:  P(2) perturbing  H(32)
  
 ---------------------------------
   Cartesian Axis Representation  
 ---------------------------------

 ----- k (10^19 kg m-2 s-2 A-2) ----         ------------- j (hz) -------------

 fermi-contact contribution:             
  isotropic    k=      -0.095                              j=      -0.460
      -0.095       0.000       0.000             -0.460       0.000       0.000
       0.000      -0.095       0.000              0.000      -0.460       0.000
       0.000       0.000      -0.095              0.000       0.000      -0.460

 total calculated spin-spin coupling:    
  isotropic    k=      -0.095                              j=      -0.460
      -0.095       0.000       0.000             -0.460       0.000       0.000
       0.000      -0.095       0.000              0.000      -0.460       0.000
       0.000       0.000      -0.095              0.000       0.000      -0.460
 
 ---------------------------------
   Principal Axis Representation  
 ---------------------------------

 ----- k (10^19 kg m-2 s-2 A-2) ----         ------------- j (hz) -------------

 fermi-contact contribution:             
  isotropic    k=      -0.095                              j=      -0.460
      -0.095       0.000       0.000             -0.460       0.000       0.000
       0.000      -0.095       0.000              0.000      -0.460       0.000
       0.000       0.000      -0.095              0.000       0.000      -0.460

 total calculated spin-spin coupling:    
  isotropic    k=      -0.095                              j=      -0.460
      -0.095       0.000       0.000             -0.460       0.000       0.000
       0.000      -0.095       0.000              0.000      -0.460       0.000
       0.000       0.000      -0.095              0.000       0.000      -0.460
 
 Principal Axis System (u,v,w) expressed in Cartesians:
 (taken as eigenvectors of the symmetric part of the coupling tensor,
  sorted in ascending order of eigenvalues = principal values)
        u         v         w
        1.000     0.000     0.000
        0.000     1.000     0.000
        0.000     0.000     1.000



 ========================================
  Nucleus 4 (P) perturbing nucleus 32 (H)
 ========================================
  
 Internal CPL numbering of atoms:  P(4) perturbing  H(32)
 ADF-GUI atoms:  P(2) perturbing  H(33)
  
 ---------------------------------
   Cartesian Axis Representation  
 ---------------------------------

 ----- k (10^19 kg m-2 s-2 A-2) ----         ------------- j (hz) -------------

 fermi-contact contribution:             
  isotropic    k=      -0.120                              j=      -0.585
      -0.120       0.000       0.000             -0.585       0.000       0.000
       0.000      -0.120       0.000              0.000      -0.585       0.000
       0.000       0.000      -0.120              0.000       0.000      -0.585

 total calculated spin-spin coupling:    
  isotropic    k=      -0.120                              j=      -0.585
      -0.120       0.000       0.000             -0.585       0.000       0.000
       0.000      -0.120       0.000              0.000      -0.585       0.000
       0.000       0.000      -0.120              0.000       0.000      -0.585
 
 ---------------------------------
   Principal Axis Representation  
 ---------------------------------

 ----- k (10^19 kg m-2 s-2 A-2) ----         ------------- j (hz) -------------

 fermi-contact contribution:             
  isotropic    k=      -0.120                              j=      -0.585
      -0.120       0.000       0.000             -0.585       0.000       0.000
       0.000      -0.120       0.000              0.000      -0.585       0.000
       0.000       0.000      -0.120              0.000       0.000      -0.585

 total calculated spin-spin coupling:    
  isotropic    k=      -0.120                              j=      -0.585
      -0.120       0.000       0.000             -0.585       0.000       0.000
       0.000      -0.120       0.000              0.000      -0.585       0.000
       0.000       0.000      -0.120              0.000       0.000      -0.585
 
 Principal Axis System (u,v,w) expressed in Cartesians:
 (taken as eigenvectors of the symmetric part of the coupling tensor,
  sorted in ascending order of eigenvalues = principal values)
        u         v         w
        1.000     0.000     0.000
        0.000     1.000     0.000
        0.000     0.000     1.000
 *******************************************************************************

                             N M R   E X I T
 NORMAL TERMINATION



 =================
 Timing Statistics
 =================
  
 Total Used :                     CPU=      280.90      System=        1.04     Elapsed=      290.91

 Calls  Section                     ( Mean, Percentage )
 ---------------------------------------------------------------------------------------------------
     3  ><      ................      0.00    0.00             0.00    0.12             0.00    0.00
     1  GENPT   ................      2.00    0.71             0.23   22.12             2.55    0.88
     7  CALFC   ................     27.39   68.27             0.07   48.43            28.31   68.13
     1  FCPT1   ................     87.12   31.02             0.29   28.12            90.13   30.98
     1  FCCPL   ................      0.00    0.00             0.00    0.00             0.00    0.00
     1  JCOUPL  ................      0.00    0.00             0.00    0.06             0.01    0.00
     1  EXIT PROCEDURE .........      0.00    0.00             0.01    1.14             0.01    0.00


 Currently Open Files (EXIT00)
 ====================

 Unit    Access Format  Status   Type       Ident (file)
 -------------------------------------------------------
   3      SEQ    FORM   TRANSP  NORMAL      LOGFILE
                                          ( /home/milias/Work/projects/open-collection/theoretical_chemistry/projects/nmr_diplomovky/derivaty_markerov/derivative_2/ams/srzora/der2.nmr_opbe_srzora_gnuc_tz2p-j_good_cosmo-chcl3.logfile )
