

 Parallel Execution: Process Information
 ==============================================================================
 Rank   Node Name                              NodeID   MyNodeRank  NodeMaster
    0   adf1                                      0          0          0
    1   adf1                                      0          1         -1
    2   adf1                                      0          2         -1
    3   adf1                                      0          3         -1
    4   adf1                                      0          4         -1
    5   adf1                                      0          5         -1
    6   adf1                                      1          0          1
    7   adf1                                      1          1         -1
    8   adf1                                      1          2         -1
    9   adf1                                      1          3         -1
   10   adf1                                      1          4         -1
   11   adf1                                      1          5         -1
 ==============================================================================


May use up to 11697MB of RAM as shared memory on node 0
May use up to 11718MB of RAM as shared memory on node 1

 *******************************************************************************
 *                                                                             *
 *  --------------------------------                                           *
 *   Amsterdam Modeling Suite (AMS)              2021.102                      *
 *  --------------------------------                                           *
 *                                               r95042 2021-06-07             *
 *                                                                             *
 *                                                                             *
 *                              =================                              *
 *                              |               |                              *
 *                              |     A M S     |                              *
 *                              |               |                              *
 *                              =================                              *
 *                                                                             *
 *                                                                             *
 *   Online information and documentation:  https://www.scm.com/support/       *
 *   E-mail:  support@scm.com   info@scm.com                                   *
 *                                                                             *
 *   Scientific publications using AMS results must be properly referenced     *
 *   See the User Manuals (or the web site) for recommended citations          *
 *   The terms and conditions of the End User License Agreement apply to       *
 *   the use of AMS, https://www.scm.com/license-terms/                        *
 *                                                                             *
 **********************  x86_64_linux_intel / intelmpi  ************************
 
 Licensed to: Dr. Miroslav Ilias / Matej Bel University, Department Chemistry, Fac. Natural Sciences / Banska Bystrica / SLOVAKIA
 SCM User ID: u17848
  
 AMS 2021.102  RunTime: Sep05-2021 21:42:45  ShM Nodes: 2  Procs: 12

 AMS jobname: ams
 AMS jobid  : 856999526

 Start   directory: /home/milias/Work/projects/open-collection/theoretical_chemistry/projects/nmr_diplomovky/derivaty_markerov/derivative_2/ams/srzora/tmp.milias.32754.0.noindex/
 Results directory: /home/milias/Work/projects/open-collection/theoretical_chemistry/projects/nmr_diplomovky/derivaty_markerov/derivative_2/ams/srzora/der2.geopt_pbe0_srzora_gnuc_tzp_good_cosmo-chcl3.results/
 Scratch directory: /tmp/amstmp_ams_kid0.856999526/


 Communication costs MPI_COMM_WORLD:      2.837 usec per message,   0.0274 usec per 8-byte item
 Communication costs for intra-node:      1.582 usec per message,   0.0129 usec per 8-byte item

 RNG seed: 501540752 230146826 614583141 -1197116022 64155011 210210725 -1567557285 647563961



                     *************************************************************************
                     *  ADF 2021.102  RunTime: Sep05-2021 21:42:45  ShM Nodes: 2  Procs: 12  *
                     *************************************************************************
  
       ***************************
       *  GEOMETRY OPTIMIZATION  *
       ***************************

Optimization Method                    Quasi Newton
Optimization Coordinates               Delocalized Coordinates
Optimize lattice                       F
 
 ------------------------------------------------------
 Convergence criteria (Hartree,Angstrom)
 ------------------------------------------------------
 Maximum gradient               0.001000000000
 Maximum rms gradient           0.000666666667
 Maximum step allowed           0.010000000000
 Maximum rms step allowed       0.006666666667
 Maximum energy change allowe   0.000370000000
 Maximum stress energy allowe   0.000500000000
 
Initial model Hessian                  Automatic Hessian
 
------------------------------------
Quasi-Newton Optimizer Parameters
------------------------------------
Hessian Update Method                  BFGS
Maximum number of steps                  250
First GDIIS cycle                          0
Maximum GDIIS vectors                      0
Trust radius (bohr)                        0.200000
Trust radius varies                        T
Constraints converged at all steps         T
Use projector                              T
 
 Rigid motions settings for: old optimizer
 Atomic rotations (x,y,z):     T T T
 Atomic translations (x,y,z):  T T T
 Tolerance:                   1.000000000000000E-006
 
--------
Geometry
--------
Formula: C10H22NO3P
Atoms
  Index Symbol   x (angstrom)   y (angstrom)   z (angstrom)
      1      O     3.33471402     0.21565103     0.11749661
      2      P     2.21400222    -0.20271444    -0.98809624
      3      O     1.16984868     1.05136222    -1.03047996
      4      O     1.26790132    -1.09018947     0.00342563
      5      C     0.17926498     1.00949526     0.02924594
      6      C    -0.04400182    -0.51881217     0.22525511
      7      C     0.74552930     1.69946637     1.26119796
      8      C    -1.04367505     1.75360229    -0.46462129
      9      C    -0.98288353    -1.11967010    -0.80927893
     10      C    -0.48538637    -0.90291107     1.62203456
     11      H    -0.01841274     1.79254115     2.03413184
     12      H     1.60130588     1.16437063     1.66867012
     13      H     1.06998798     2.70259389     0.98202856
     14      H    -1.37745740     1.38240307    -1.43177471
     15      H    -1.86173404     1.65365811     0.25133651
     16      H    -0.81074290     2.81442305    -0.56324076
     17      H    -2.01338907    -0.80934133    -0.63482207
     18      H    -0.69833032    -0.83145335    -1.82212814
     19      H    -0.93607282    -2.20649581    -0.73545995
     20      H    -1.43785267    -0.42615505     1.86145823
     21      H    -0.62550736    -1.98288569     1.67819250
     22      H     0.25005699    -0.61065253     2.36909428
     23      C     4.63774897     0.58194162    -0.32770670
     24      C     5.65433489    -0.07040938     0.58789572
     25      N     7.01561814     0.31577739     0.27009454
     26      C     7.32033531     1.66109149     0.71772196
     27      H     7.76843470    -1.62709415     0.45338816
     28      H     8.33973373     1.92086783     0.42911533
     29      C     7.96347616    -0.62396861     0.83472374
     30      H     4.79920356     0.25487698    -1.36007103
     31      H     4.71598905     1.67070326    -0.30334134
     32      H     5.56527313    -1.15278860     0.47271415
     33      H     5.39643115     0.16408556     1.63530406
     34      H     7.91771203    -0.65879143     1.93654498
     35      H     7.23711196     1.76244028     1.81339960
     36      H     6.65030600     2.38691335     0.25809086
     37      H     8.97771098    -0.33998824     0.54964252
 
Total System Charge             0.00000
Bonding info available!
 
 
----------------
ADF Engine Input
----------------
 
 Basis
 Type TZP
 Core None
 End
 XC
 Hybrid PBE0
 End
 NumericalQuality Good
 NuclearModel Gaussian
 

 Title: *** (NO TITLE) ***

 Using automatic Hessian for delocalized coordinates.
 *** GOStep1 ***



 ======================
 RI Hartree-Fock Scheme
 ======================
  
 Fit Set Quality     : GOOD
 Integration Quality : GOOD
 Threshold Quality   : GOOD
 Response Quality    : DEFAULT
 Is Range Separated  :  F
 
 RIHartreeFock Dependency: number of modified vectors:          25
  
 Hartree-Fock exchange energy:   -113.889910762191     
  pauli hf:                              3.710050738208952        100.9556          2328.09          9740.74
  elstat hf:                            -3.759907055752151       -102.3123         -2359.38         -9871.63

 Energy gradients wrt nuclear displacements
 ==========================================

     Atom      Cartesian (a.u./angstrom)
                 X         Y         Z
 ----------------------------------------
     1 O    -0.006721 -0.003960 -0.013762
     2 P    -0.001116  0.005165  0.014898
     3 O     0.007757 -0.009670  0.000874
     4 O     0.006776  0.007162 -0.007686
     5 C    -0.003004  0.001826  0.001537
     6 C    -0.004388 -0.001018  0.001777
     7 C     0.000357 -0.000012 -0.000273
     8 C     0.000025 -0.000323  0.000337
     9 C     0.000509  0.000271 -0.000006
    10 C    -0.000031  0.000370 -0.000267
    11 H     0.000766 -0.000342 -0.001220
    12 H    -0.000811  0.000346  0.000307
    13 H    -0.000458 -0.000200  0.000353
    14 H    -0.000383 -0.000192  0.000606
    15 H     0.001016 -0.000083 -0.000855
    16 H    -0.000041 -0.000322  0.000566
    17 H     0.001438 -0.000229  0.000037
    18 H    -0.000619 -0.000096  0.000151
    19 H    -0.000546  0.000352  0.000278
    20 H     0.001304 -0.000420 -0.000310
    21 H    -0.000412  0.000407 -0.000297
    22 H    -0.000632  0.000405  0.000116
    23 C     0.000396  0.001740  0.003098
    24 C    -0.001265 -0.000887 -0.000775
    25 N    -0.001798 -0.000374  0.001664
    26 C     0.000396  0.003274  0.000082
    27 H    -0.000095  0.000322  0.000659
    28 H    -0.000473 -0.000259  0.000574
    29 C     0.002025 -0.002411  0.000431
    30 H    -0.000689 -0.000015  0.000596
    31 H    -0.000088 -0.001082 -0.000118
    32 H     0.000521  0.000239 -0.000033
    33 H     0.001101  0.000450 -0.001073
    34 H    -0.000413  0.000552 -0.001723
    35 H    -0.000015 -0.000827 -0.001744
    36 H     0.000166 -0.000281  0.000605
    37 H    -0.000555  0.000122  0.000596
 ----------------------------------------
 Mulliken charges used for AMS results%charges...
 
----------------------------------------------------------------------
Geometry Convergence after Step   1       (Hartree/Angstrom,Angstrom)
----------------------------------------------------------------------
current energy                               -9.23322507 Hartree
energy change                      -9.23322507     0.00037000    F
constrained gradient max            0.01489747     0.00100000    F
constrained gradient rms            0.00287806     0.00066667    F
gradient max                        0.01489747
gradient rms                        0.00287806
cart. step max                      0.03483939     0.01000000    F
cart. step rms                      0.01139644     0.00666667    F
 
 
--------
Geometry
--------
Formula: C10H22NO3P
Atoms
  Index Symbol   x (angstrom)   y (angstrom)   z (angstrom)
      1      O     3.32901851     0.23702575     0.14553841
      2      P     2.21547031    -0.19444247    -0.97234895
      3      O     1.16342473     1.05870723    -1.02834636
      4      O     1.26801684    -1.09070541     0.01749686
      5      C     0.17456569     1.00986699     0.03094130
      6      C    -0.04476782    -0.51984121     0.22519689
      7      C     0.73963005     1.69940817     1.26424604
      8      C    -1.04845314     1.75314330    -0.46592771
      9      C    -0.97227631    -1.12383026    -0.81847508
     10      C    -0.49506499    -0.90884503     1.61834768
     11      H    -0.02279048     1.79122870     2.03996058
     12      H     1.59800984     1.16485659     1.66797697
     13      H     1.06340122     2.70291006     0.98473502
     14      H    -1.37710766     1.38238862    -1.43522932
     15      H    -1.86986153     1.65285794     0.24727062
     16      H    -0.81602841     2.81423835    -0.56506707
     17      H    -2.00742407    -0.82063027    -0.65431132
     18      H    -0.67788077    -0.83150035    -1.82752123
     19      H    -0.91763979    -2.21068654    -0.74754731
     20      H    -1.45210159    -0.43731691     1.85340247
     21      H    -0.62900350    -1.98995243     1.67176087
     22      H     0.23567176    -0.61597266     2.36996734
     23      C     4.63265486     0.59122761    -0.31011865
     24      C     5.65114922    -0.05694414     0.60689922
     25      N     7.01256080     0.31369980     0.26940560
     26      C     7.33753608     1.65708191     0.70564659
     27      H     7.74942325    -1.63363171     0.44936308
     28      H     8.35504088     1.90454325     0.39872638
     29      C     7.95898639    -0.63121100     0.82562069
     30      H     4.78901353     0.25257227    -1.33992030
     31      H     4.71719482     1.68033413    -0.29771221
     32      H     5.55124707    -1.13972247     0.50352144
     33      H     5.40144783     0.18915577     1.65433729
     34      H     7.93125235    -0.66325541     1.92910103
     35      H     7.27195134     1.76899862     1.80252366
     36      H     6.66887630     2.38672950     0.24935851
     37      H     8.97144140    -0.35854288     0.52236333
 
Total System Charge             0.00000
Bonding info available!
 
 *** GOStep2 ***



 ======================
 RI Hartree-Fock Scheme
 ======================
  
 Fit Set Quality     : GOOD
 Integration Quality : GOOD
 Threshold Quality   : GOOD
 Response Quality    : DEFAULT
 Is Range Separated  :  F
 
 RIHartreeFock Dependency: number of modified vectors:          25
  
 Hartree-Fock exchange energy:   -113.879100117247     
  pauli hf:                              3.708474793525252        100.9127          2327.10          9736.60
  elstat hf:                            -3.754722645931214       -102.1712         -2356.12         -9858.02

 Energy gradients wrt nuclear displacements
 ==========================================

     Atom      Cartesian (a.u./angstrom)
                 X         Y         Z
 ----------------------------------------
     1 O    -0.003170 -0.001939 -0.007021
     2 P    -0.002094  0.003449  0.009225
     3 O     0.003075 -0.002508 -0.000634
     4 O     0.002991  0.001001 -0.002862
     5 C    -0.000985  0.000608  0.000717
     6 C    -0.001418  0.000015  0.000337
     7 C     0.000441  0.000070 -0.000728
     8 C     0.000867  0.000179 -0.000557
     9 C     0.000793 -0.000084  0.000174
    10 C     0.000919 -0.000606 -0.000449
    11 H     0.000232 -0.000065 -0.000253
    12 H    -0.000126  0.000001  0.000043
    13 H    -0.000214 -0.000052  0.000139
    14 H    -0.000191  0.000039  0.000258
    15 H     0.000359 -0.000124 -0.000167
    16 H    -0.000170 -0.000063  0.000178
    17 H     0.000362 -0.000057  0.000077
    18 H    -0.000168 -0.000112  0.000158
    19 H    -0.000273  0.000071  0.000092
    20 H     0.000379 -0.000033 -0.000213
    21 H    -0.000230  0.000130  0.000021
    22 H    -0.000341  0.000052  0.000047
    23 C    -0.000272  0.000345  0.001673
    24 C    -0.000528 -0.000092  0.000019
    25 N    -0.000809 -0.000283 -0.000469
    26 C     0.000439  0.001141  0.000316
    27 H    -0.000162  0.000308  0.000144
    28 H    -0.000207 -0.000212  0.000170
    29 C     0.000944 -0.000545  0.000522
    30 H    -0.000383 -0.000091  0.000111
    31 H    -0.000116 -0.000526 -0.000060
    32 H     0.000227  0.000218 -0.000207
    33 H     0.000099  0.000040 -0.000153
    34 H    -0.000134  0.000131 -0.000480
    35 H    -0.000020 -0.000201 -0.000494
    36 H     0.000168 -0.000304  0.000156
    37 H    -0.000284  0.000099  0.000170
 ----------------------------------------
 Mulliken charges used for AMS results%charges...

 dE(predicted):    -0.18850E-03, dE(actual):    -0.26868E-03, Trust radius:    0.200000, all in a.u.
 
----------------------------------------------------------------------
Geometry Convergence after Step   2       (Hartree/Angstrom,Angstrom)
----------------------------------------------------------------------
current energy                               -9.23349375 Hartree
energy change                      -0.00026868     0.00037000    T
constrained gradient max            0.00922477     0.00100000    F
constrained gradient rms            0.00139783     0.00066667    F
gradient max                        0.00922477
gradient rms                        0.00139783
cart. step max                      0.04509312     0.01000000    F
cart. step rms                      0.01692132     0.00666667    F
 
 
--------
Geometry
--------
Formula: C10H22NO3P
Atoms
  Index Symbol   x (angstrom)   y (angstrom)   z (angstrom)
      1      O     3.33422915     0.25472903     0.17933379
      2      P     2.22456843    -0.18945319    -0.94809304
      3      O     1.16454927     1.06266650    -1.01357562
      4      O     1.26975957    -1.08216843     0.04546605
      5      C     0.16497147     1.01100960     0.03520858
      6      C    -0.04884936    -0.51850312     0.23024600
      7      C     0.70862083     1.70502782     1.27629842
      8      C    -1.05805032     1.74477244    -0.47751180
      9      C    -0.95755712    -1.12862960    -0.82733170
     10      C    -0.51980195    -0.90349909     1.61840524
     11      H    -0.06487323     1.79500372     2.04192551
     12      H     1.56438906     1.17502570     1.69188756
     13      H     1.03274087     2.70922381     0.99898152
     14      H    -1.37104398     1.36884223    -1.45023035
     15      H    -1.88843299     1.64267635     0.22575769
     16      H    -0.83017519     2.80679543    -0.57886253
     17      H    -1.99814209    -0.83362658    -0.68009274
     18      H    -0.64842415    -0.83332062    -1.83133717
     19      H    -0.89411341    -2.21515565    -0.75672592
     20      H    -1.48400290    -0.43789835     1.83799595
     21      H    -0.64567528    -1.98557405     1.67471498
     22      H     0.19916387    -0.60323437     2.37868220
     23      C     4.63709696     0.60161744    -0.28814856
     24      C     5.66098426    -0.04909539     0.62177326
     25      N     7.02040055     0.31136637     0.26491718
     26      C     7.36101176     1.65145569     0.69721810
     27      H     7.74593074    -1.64177541     0.42298601
     28      H     8.37379685     1.89428960     0.37042390
     29      C     7.96899258    -0.64240045     0.80051024
     30      H     4.78568635     0.25965889    -1.31823713
     31      H     4.72742675     1.69090851    -0.27950063
     32      H     5.55166096    -1.13170320     0.52401371
     33      H     5.42385515     0.20200727     1.67128459
     34      H     7.96278838    -0.68023301     1.90481039
     35      H     7.31704446     1.76416593     1.79580914
     36      H     6.68816550     2.38562340     0.25356583
     37      H     8.97789321    -0.37665184     0.47861370
 
Total System Charge             0.00000
Bonding info available!
 
 *** GOStep3 ***



 ======================
 RI Hartree-Fock Scheme
 ======================
  
 Fit Set Quality     : GOOD
 Integration Quality : GOOD
 Threshold Quality   : GOOD
 Response Quality    : DEFAULT
 Is Range Separated  :  F
 
 RIHartreeFock Dependency: number of modified vectors:          25
  
 Hartree-Fock exchange energy:   -113.866995926173     
  pauli hf:                              3.712967629621993        101.0350          2329.92          9748.40
  elstat hf:                            -3.748508970287997       -102.0021         -2352.23         -9841.71

 Energy gradients wrt nuclear displacements
 ==========================================

     Atom      Cartesian (a.u./angstrom)
                 X         Y         Z
 ----------------------------------------
     1 O     0.000552 -0.000080 -0.000002
     2 P     0.001396 -0.000434 -0.000581
     3 O    -0.000214 -0.000094 -0.000544
     4 O    -0.000036 -0.000100 -0.000278
     5 C     0.000136  0.000955  0.000213
     6 C    -0.000260 -0.000584  0.000270
     7 C    -0.000497 -0.000296  0.000435
     8 C     0.000293 -0.000262 -0.000053
     9 C     0.000219  0.000329  0.000006
    10 C     0.000227  0.000252 -0.000060
    11 H    -0.000222  0.000111  0.000497
    12 H    -0.000068 -0.000004 -0.000045
    13 H    -0.000034 -0.000021 -0.000102
    14 H     0.000027 -0.000054 -0.000081
    15 H    -0.000383  0.000013  0.000214
    16 H     0.000005 -0.000040 -0.000049
    17 H    -0.000455  0.000109 -0.000026
    18 H     0.000125 -0.000029  0.000041
    19 H     0.000048 -0.000021 -0.000003
    20 H    -0.000419  0.000130  0.000231
    21 H     0.000065  0.000018  0.000008
    22 H     0.000083  0.000022  0.000002
    23 C    -0.000474 -0.000176  0.000104
    24 C     0.000043  0.000297  0.000343
    25 N     0.000169 -0.000050 -0.000953
    26 C    -0.000149 -0.000034  0.000138
    27 H    -0.000016 -0.000004 -0.000137
    28 H     0.000011 -0.000076 -0.000127
    29 C     0.000030  0.000097  0.000229
    30 H    -0.000054 -0.000107 -0.000128
    31 H     0.000145  0.000192 -0.000082
    32 H    -0.000017  0.000017 -0.000167
    33 H    -0.000318 -0.000141  0.000348
    34 H     0.000041 -0.000090  0.000322
    35 H    -0.000005  0.000148  0.000315
    36 H     0.000022  0.000002 -0.000163
    37 H    -0.000015  0.000002 -0.000133
 ----------------------------------------
 Mulliken charges used for AMS results%charges...

 dE(predicted):    -0.79950E-04, dE(actual):    -0.80007E-04, Trust radius:    0.200000, all in a.u.
 
----------------------------------------------------------------------
Geometry Convergence after Step   3       (Hartree/Angstrom,Angstrom)
----------------------------------------------------------------------
current energy                               -9.23357376 Hartree
energy change                      -0.00008001     0.00037000    T
constrained gradient max            0.00139697     0.00100000    F
constrained gradient rms            0.00028277     0.00066667    T
gradient max                        0.00139697
gradient rms                        0.00028277
cart. step max                      0.01433676     0.01000000    F
cart. step rms                      0.00409982     0.00666667    T
 
 
--------
Geometry
--------
Formula: C10H22NO3P
Atoms
  Index Symbol   x (angstrom)   y (angstrom)   z (angstrom)
      1      O     3.33161104     0.25593098     0.18016567
      2      P     2.22329315    -0.19250231    -0.94742508
      3      O     1.16275366     1.05865296    -1.01783396
      4      O     1.26912572    -1.08293570     0.04878049
      5      C     0.16537520     1.00964495     0.03251765
      6      C    -0.04953747    -0.51925519     0.23099285
      7      C     0.71645959     1.70624579     1.26875743
      8      C    -1.05766861     1.74546088    -0.47746270
      9      C    -0.95774096    -1.13302039    -0.82505733
     10      C    -0.52123922    -0.90238974     1.61942028
     11      H    -0.05365216     1.79988648     2.03699567
     12      H     1.57289387     1.17565871     1.68230757
     13      H     1.04150967     2.70899889     0.98731550
     14      H    -1.37488152     1.36887436    -1.44852234
     15      H    -1.88562150     1.64621282     0.22876180
     16      H    -0.82770234     2.80684202    -0.58098191
     17      H    -1.99834239    -0.83888707    -0.67784243
     18      H    -0.64972080    -0.83965553    -1.82999020
     19      H    -0.89313937    -2.21929907    -0.75187026
     20      H    -1.48543416    -0.43647137     1.83723358
     21      H    -0.64726931    -1.98438983     1.67713174
     22      H     0.19702237    -0.60100057     2.37989148
     23      C     4.63469402     0.60464380    -0.28637006
     24      C     5.65932683    -0.04833625     0.62124623
     25      N     7.01855866     0.31414388     0.26611729
     26      C     7.35938871     1.65189487     0.70530705
     27      H     7.74452870    -1.64006614     0.41242127
     28      H     8.37143206     1.89763976     0.37839578
     29      C     7.96778675    -0.64264797     0.79493306
     30      H     4.78365934     0.26611718    -1.31746166
     31      H     4.72414686     1.69390017    -0.27429669
     32      H     5.55056681    -1.13079310     0.52108974
     33      H     5.42292224     0.20024238     1.67132200
     34      H     7.96255421    -0.68638194     1.89886704
     35      H     7.31741420     1.75754822     1.80452304
     36      H     6.68504884     2.38843343     0.26790259
     37      H     8.97646231    -0.37499692     0.47390016
 
Total System Charge             0.00000
Bonding info available!
 
 *** GOStep4 ***



 ======================
 RI Hartree-Fock Scheme
 ======================
  
 Fit Set Quality     : GOOD
 Integration Quality : GOOD
 Threshold Quality   : GOOD
 Response Quality    : DEFAULT
 Is Range Separated  :  F
 
 RIHartreeFock Dependency: number of modified vectors:          25
  
 Hartree-Fock exchange energy:   -113.867776006760     
  pauli hf:                              3.712429893629100        101.0204          2329.59          9746.98
  elstat hf:                            -3.748736966740974       -102.0083         -2352.37         -9842.31

 Energy gradients wrt nuclear displacements
 ==========================================

     Atom      Cartesian (a.u./angstrom)
                 X         Y         Z
 ----------------------------------------
     1 O     0.000045 -0.000010  0.000318
     2 P     0.000619 -0.000286 -0.000459
     3 O    -0.000238  0.000440  0.000233
     4 O    -0.000267 -0.000071  0.000068
     5 C    -0.000044  0.000170  0.000077
     6 C    -0.000253 -0.000315 -0.000030
     7 C     0.000135  0.000098 -0.000334
     8 C     0.000093  0.000018 -0.000024
     9 C     0.000040 -0.000107  0.000189
    10 C     0.000121 -0.000093 -0.000099
    11 H    -0.000057 -0.000023  0.000060
    12 H     0.000124 -0.000023 -0.000023
    13 H     0.000042  0.000070  0.000022
    14 H     0.000041  0.000041  0.000004
    15 H    -0.000167  0.000035  0.000085
    16 H     0.000002  0.000020 -0.000024
    17 H    -0.000148  0.000005 -0.000027
    18 H     0.000092 -0.000041  0.000031
    19 H    -0.000006 -0.000057 -0.000030
    20 H    -0.000161  0.000037  0.000079
    21 H     0.000019 -0.000030  0.000029
    22 H     0.000016 -0.000048 -0.000020
    23 C    -0.000228 -0.000012  0.000053
    24 C     0.000028  0.000142  0.000009
    25 N     0.000056 -0.000045 -0.000212
    26 C    -0.000067  0.000100  0.000021
    27 H     0.000011 -0.000047 -0.000057
    28 H     0.000027 -0.000002 -0.000044
    29 C     0.000061 -0.000015  0.000105
    30 H     0.000035 -0.000054 -0.000037
    31 H     0.000073  0.000121 -0.000079
    32 H    -0.000015 -0.000041 -0.000077
    33 H    -0.000063 -0.000047  0.000124
    34 H    -0.000006 -0.000014  0.000104
    35 H    -0.000011  0.000039  0.000100
    36 H     0.000033  0.000052 -0.000074
    37 H     0.000017 -0.000008 -0.000061
 ----------------------------------------
 Mulliken charges used for AMS results%charges...

 dE(predicted):    -0.81598E-05, dE(actual):    -0.96325E-05, Trust radius:    0.200000, all in a.u.
 
----------------------------------------------------------------------
Geometry Convergence after Step   4       (Hartree/Angstrom,Angstrom)
----------------------------------------------------------------------
current energy                               -9.23358339 Hartree
energy change                      -0.00000963     0.00037000    T
constrained gradient max            0.00061999     0.00100000    T
constrained gradient rms            0.00013440     0.00066667    T
gradient max                        0.00061999
gradient rms                        0.00013440
cart. step max                      0.01217295     0.01000000    F
cart. step rms                      0.00409927     0.00666667    T
 
 
--------
Geometry
--------
Formula: C10H22NO3P
Atoms
  Index Symbol   x (angstrom)   y (angstrom)   z (angstrom)
      1      O     3.33262024     0.26013858     0.18307041
      2      P     2.22388102    -0.19073985    -0.94297417
      3      O     1.16250975     1.05911792    -1.01676836
      4      O     1.27123923    -1.08022653     0.05512925
      5      C     0.16345450     1.01017477     0.03189948
      6      C    -0.04869429    -0.51847752     0.23316660
      7      C     0.71015691     1.71007122     1.26823321
      8      C    -1.06030124     1.74216294    -0.48179849
      9      C    -0.95361743    -1.13572237    -0.82369969
     10      C    -0.52299194    -0.89940372     1.62130039
     11      H    -0.06228597     1.80403634     2.03393868
     12      H     1.56613595     1.18167664     1.68540729
     13      H     1.03432172     2.71275524     0.98567324
     14      H    -1.37514186     1.36286642    -1.45257970
     15      H    -1.88893427     1.64208656     0.22329028
     16      H    -0.83276363     2.80390808    -0.58682688
     17      H    -1.99488842    -0.84353619    -0.67831148
     18      H    -0.64498076    -0.84308254    -1.82865902
     19      H    -0.88691631    -2.22172213    -0.74869492
     20      H    -1.48832827    -0.43447718     1.83539243
     21      H    -0.64756653    -1.98145104     1.68106394
     22      H     0.19275565    -0.59503917     2.38295939
     23      C     4.63563748     0.60863568    -0.28398173
     24      C     5.66069292    -0.04795272     0.62056180
     25      N     7.01970576     0.31455538     0.26496935
     26      C     7.36296970     1.64956909     0.71027845
     27      H     7.74384681    -1.64112974     0.40024833
     28      H     8.37423196     1.89650685     0.38192930
     29      C     7.96891758    -0.64581192     0.78702626
     30      H     4.78304440     0.27298574    -1.31618781
     31      H     4.72591759     1.69769391    -0.26879702
     32      H     5.55087702    -1.13003633     0.51786318
     33      H     5.42610605     0.19828599     1.67148064
     34      H     7.96570495    -0.69482217     1.89064726
     35      H     7.32427503     1.74896838     1.81009864
     36      H     6.68769916     2.38895965     0.27923424
     37      H     8.97729457    -0.37758087     0.46559960
 
Total System Charge             0.00000
Bonding info available!
 
 *** GOStep5 ***



 ======================
 RI Hartree-Fock Scheme
 ======================
  
 Fit Set Quality     : GOOD
 Integration Quality : GOOD
 Threshold Quality   : GOOD
 Response Quality    : DEFAULT
 Is Range Separated  :  F
 
 RIHartreeFock Dependency: number of modified vectors:          25
  
 Hartree-Fock exchange energy:   -113.868793372249     
  pauli hf:                              3.713223330736266        101.0419          2330.08          9749.07
  elstat hf:                            -3.749371565940983       -102.0256         -2352.77         -9843.97

 Energy gradients wrt nuclear displacements
 ==========================================

     Atom      Cartesian (a.u./angstrom)
                 X         Y         Z
 ----------------------------------------
     1 O     0.000186 -0.000163  0.000088
     2 P    -0.000287  0.000026  0.000220
     3 O    -0.000114  0.000341 -0.000082
     4 O    -0.000075 -0.000261 -0.000039
     5 C     0.000039  0.000041 -0.000028
     6 C    -0.000035 -0.000095 -0.000011
     7 C     0.000037  0.000000 -0.000079
     8 C     0.000019  0.000004 -0.000027
     9 C     0.000022 -0.000002  0.000087
    10 C     0.000063 -0.000033 -0.000014
    11 H     0.000007 -0.000027 -0.000036
    12 H     0.000014  0.000022 -0.000002
    13 H     0.000003  0.000022  0.000012
    14 H    -0.000002  0.000005  0.000001
    15 H     0.000011  0.000002 -0.000001
    16 H    -0.000005  0.000012 -0.000007
    17 H     0.000025 -0.000004 -0.000005
    18 H     0.000023 -0.000015 -0.000003
    19 H    -0.000012 -0.000022  0.000003
    20 H     0.000014 -0.000012 -0.000009
    21 H     0.000002 -0.000022  0.000016
    22 H     0.000000 -0.000010  0.000007
    23 C    -0.000058  0.000109  0.000032
    24 C     0.000011  0.000026 -0.000069
    25 N    -0.000084 -0.000047  0.000050
    26 C     0.000013  0.000081 -0.000000
    27 H    -0.000002 -0.000016 -0.000007
    28 H     0.000015  0.000010  0.000009
    29 C     0.000068  0.000009  0.000061
    30 H     0.000040 -0.000022  0.000005
    31 H     0.000006  0.000038 -0.000062
    32 H     0.000003 -0.000032 -0.000030
    33 H     0.000048  0.000006  0.000012
    34 H    -0.000023  0.000020 -0.000032
    35 H    -0.000012 -0.000014 -0.000033
    36 H     0.000032  0.000020 -0.000020
    37 H     0.000008  0.000001 -0.000009
 ----------------------------------------
 Mulliken charges used for AMS results%charges...

 dE(predicted):    -0.20656E-05, dE(actual):    -0.61682E-05, Trust radius:    0.200000, all in a.u.
 
----------------------------------------------------------------------
Geometry Convergence after Step   5       (Hartree/Angstrom,Angstrom)
----------------------------------------------------------------------
current energy                               -9.23358956 Hartree
energy change                      -0.00000617     0.00037000    T
constrained gradient max            0.00034381     0.00100000    T
constrained gradient rms            0.00006849     0.00066667    T
gradient max                        0.00034381
gradient rms                        0.00006849
cart. step max                      0.01578887     0.01000000    F
cart. step rms                      0.00497182     0.00666667    T
 
 
--------
Geometry
--------
Formula: C10H22NO3P
Atoms
  Index Symbol   x (angstrom)   y (angstrom)   z (angstrom)
      1      O     3.33255539     0.26748964     0.18628803
      2      P     2.22552109    -0.18890681    -0.93916549
      3      O     1.16171928     1.05837050    -1.01721477
      4      O     1.27453360    -1.07647019     0.06212757
      5      C     0.16167566     1.01046031     0.03053213
      6      C    -0.04723242    -0.51778293     0.23550085
      7      C     0.70515898     1.71444239     1.26601375
      8      C    -1.06328233     1.73822037    -0.48630519
      9      C    -0.94850146    -1.13984585    -0.82177884
     10      C    -0.52407278    -0.89579304     1.62357540
     11      H    -0.06879769     1.80945830     2.02999218
     12      H     1.56103297     1.18830997     1.68622511
     13      H     1.02844075     2.71676409     0.98128380
     14      H    -1.37634366     1.35565752    -1.45638256
     15      H    -1.89218761     1.63774765     0.21828604
     16      H    -0.83826747     2.80025486    -0.59369047
     17      H    -1.99078734    -0.85054510    -0.67838759
     18      H    -0.63947181    -0.84815897    -1.82689365
     19      H    -0.87861585    -2.22545845    -0.74445891
     20      H    -1.49086968    -0.43231283     1.83375365
     21      H    -0.64649416    -1.97791526     1.68610997
     22      H     0.18905259    -0.58759416     2.38615398
     23      C     4.63591643     0.61482429    -0.28070785
     24      C     5.66068459    -0.04651342     0.62068606
     25      N     7.01961122     0.31537763     0.26432413
     26      C     7.36641459     1.64669379     0.71750690
     27      H     7.74052087    -1.64242264     0.38445946
     28      H     8.37649673     1.89497344     0.38659629
     29      C     7.96844503    -0.65013081     0.77719580
     30      H     4.78173075     0.28233610    -1.31412937
     31      H     4.72794523     1.70360521    -0.26192195
     32      H     5.54900305    -1.12805259     0.51473322
     33      H     5.42783494     0.19683268     1.67258798
     34      H     7.96831738    -0.70652914     1.88043506
     35      H     7.33257292     1.73828877     1.81813310
     36      H     6.68990402     2.38977261     0.29484864
     37      H     8.97642125    -0.38150453     0.45486987
 
Total System Charge             0.00000
Bonding info available!
 
 *** GOStep6 ***



 ======================
 RI Hartree-Fock Scheme
 ======================
  
 Fit Set Quality     : GOOD
 Integration Quality : GOOD
 Threshold Quality   : GOOD
 Response Quality    : DEFAULT
 Is Range Separated  :  F
 
 RIHartreeFock Dependency: number of modified vectors:          25
  
 Hartree-Fock exchange energy:   -113.869519544959     
  pauli hf:                              3.713767780685171        101.0568          2330.42          9750.50
  elstat hf:                            -3.749822889313112       -102.0379         -2353.05         -9845.16

 Energy gradients wrt nuclear displacements
 ==========================================

     Atom      Cartesian (a.u./angstrom)
                 X         Y         Z
 ----------------------------------------
     1 O     0.000101 -0.000192  0.000228
     2 P    -0.000380 -0.000027 -0.000063
     3 O    -0.000034 -0.000020 -0.000002
     4 O     0.000156  0.000059 -0.000039
     5 C     0.000091  0.000020 -0.000060
     6 C     0.000066  0.000045  0.000001
     7 C    -0.000055 -0.000045  0.000096
     8 C    -0.000100 -0.000014  0.000010
     9 C    -0.000038  0.000044 -0.000009
    10 C    -0.000048  0.000049  0.000063
    11 H     0.000053 -0.000018 -0.000053
    12 H    -0.000021  0.000015  0.000013
    13 H    -0.000022 -0.000022 -0.000001
    14 H    -0.000023 -0.000018  0.000004
    15 H     0.000097 -0.000012 -0.000051
    16 H     0.000002 -0.000007  0.000007
    17 H     0.000110 -0.000012  0.000006
    18 H    -0.000025  0.000001 -0.000022
    19 H    -0.000005  0.000009  0.000018
    20 H     0.000102 -0.000040 -0.000042
    21 H     0.000001 -0.000006 -0.000006
    22 H    -0.000005  0.000017  0.000016
    23 C     0.000068  0.000187 -0.000088
    24 C    -0.000007 -0.000048  0.000001
    25 N    -0.000115 -0.000017  0.000113
    26 C     0.000014 -0.000005 -0.000024
    27 H    -0.000008  0.000014  0.000024
    28 H    -0.000006  0.000001  0.000031
    29 C     0.000016  0.000036 -0.000005
    30 H    -0.000002 -0.000011  0.000026
    31 H    -0.000044 -0.000026 -0.000023
    32 H     0.000008  0.000005  0.000000
    33 H     0.000075  0.000034 -0.000035
    34 H    -0.000016  0.000025 -0.000081
    35 H    -0.000010 -0.000023 -0.000081
    36 H     0.000012 -0.000008  0.000007
    37 H    -0.000006  0.000009  0.000020
 ----------------------------------------
 Mulliken charges used for AMS results%charges...

 dE(predicted):    -0.12786E-05, dE(actual):    -0.55058E-05, Trust radius:    0.200000, all in a.u.
 
----------------------------------------------------------------------
Geometry Convergence after Step   6       (Hartree/Angstrom,Angstrom)
----------------------------------------------------------------------
current energy                               -9.23359507 Hartree
energy change                      -0.00000551     0.00037000    T
constrained gradient max            0.00037951     0.00100000    T
constrained gradient rms            0.00006648     0.00066667    T
gradient max                        0.00037951
gradient rms                        0.00006648
cart. step max                      0.01707475     0.01000000    F
cart. step rms                      0.00565487     0.00666667    T
 
 
--------
Geometry
--------
Formula: C10H22NO3P
Atoms
  Index Symbol   x (angstrom)   y (angstrom)   z (angstrom)
      1      O     3.33283124     0.27756126     0.19022834
      2      P     2.22737563    -0.18560638    -0.93397706
      3      O     1.16027732     1.05841336    -1.01709715
      4      O     1.27769172    -1.07197686     0.06984655
      5      C     0.15874380     1.01089945     0.02928600
      6      C    -0.04630622    -0.51714077     0.23809089
      7      C     0.69856429     1.71979575     1.26360592
      8      C    -1.06735403     1.73408259    -0.49125429
      9      C    -0.94309618    -1.14500114    -0.81969286
     10      C    -0.52579273    -0.89265635     1.62595109
     11      H    -0.07702861     1.81583656     2.02581092
     12      H     1.55458517     1.19651027     1.68706021
     13      H     1.02057483     2.72178894     0.97631036
     14      H    -1.37790339     1.34819934    -1.46082185
     15      H    -1.89704261     1.63312228     0.21235800
     16      H    -0.84505215     2.79644380    -0.60097877
     17      H    -1.98677269    -0.85933939    -0.67901415
     18      H    -0.63321157    -0.85439977    -1.82484862
     19      H    -0.86923532    -2.23014986    -0.73972909
     20      H    -1.49441599    -0.43124939     1.83227989
     21      H    -0.64538845    -1.97492663     1.69116505
     22      H     0.18448059    -0.58037718     2.38952780
     23      C     4.63686426     0.62224443    -0.27695606
     24      C     5.66119774    -0.04448236     0.62097726
     25      N     7.02030236     0.31607627     0.26373737
     26      C     7.37164888     1.64334897     0.72503845
     27      H     7.73668124    -1.64429387     0.36738471
     28      H     8.38050087     1.89248274     0.39101717
     29      C     7.96823593    -0.65546453     0.76663965
     30      H     4.78066074     0.29263930    -1.31157286
     31      H     4.73183820     1.71067792    -0.25486231
     32      H     5.54700801    -1.12537672     0.51141945
     33      H     5.43014971     0.19562761     1.67398160
     34      H     7.97159084    -0.71995002     1.86945493
     35      H     7.34329606     1.72697669     1.82647990
     36      H     6.69421896     2.39058099     0.31123699
     37      H     8.97586658    -0.38697389     0.44309891
 
Total System Charge             0.00000
Bonding info available!
 
 *** GOStep7 ***



 ======================
 RI Hartree-Fock Scheme
 ======================
  
 Fit Set Quality     : GOOD
 Integration Quality : GOOD
 Threshold Quality   : GOOD
 Response Quality    : DEFAULT
 Is Range Separated  :  F
 
 RIHartreeFock Dependency: number of modified vectors:          25
  
 Hartree-Fock exchange energy:   -113.869466244757     
  pauli hf:                              3.714883117686668        101.0871          2331.12          9753.42
  elstat hf:                            -3.749740053818051       -102.0356         -2353.00         -9844.94

 Energy gradients wrt nuclear displacements
 ==========================================

     Atom      Cartesian (a.u./angstrom)
                 X         Y         Z
 ----------------------------------------
     1 O     0.000156 -0.000178  0.000197
     2 P    -0.000356  0.000028 -0.000076
     3 O     0.000002 -0.000168 -0.000009
     4 O     0.000101  0.000174 -0.000033
     5 C     0.000116 -0.000122 -0.000054
     6 C     0.000093  0.000120 -0.000019
     7 C    -0.000059  0.000008  0.000124
     8 C    -0.000109  0.000021  0.000036
     9 C    -0.000067 -0.000009 -0.000040
    10 C    -0.000104  0.000019  0.000068
    11 H     0.000040  0.000005 -0.000048
    12 H    -0.000043  0.000007 -0.000004
    13 H    -0.000018 -0.000018  0.000001
    14 H    -0.000014 -0.000015  0.000015
    15 H     0.000088 -0.000013 -0.000041
    16 H     0.000003 -0.000013  0.000011
    17 H     0.000087 -0.000020  0.000012
    18 H    -0.000038  0.000010 -0.000009
    19 H     0.000001  0.000013  0.000015
    20 H     0.000089 -0.000036 -0.000036
    21 H     0.000002  0.000004 -0.000009
    22 H    -0.000007  0.000012  0.000002
    23 C     0.000101  0.000153 -0.000088
    24 C     0.000009 -0.000021  0.000000
    25 N    -0.000020 -0.000003  0.000100
    26 C     0.000000 -0.000048 -0.000053
    27 H    -0.000003  0.000021  0.000029
    28 H    -0.000018 -0.000001  0.000026
    29 C    -0.000021  0.000029 -0.000063
    30 H     0.000005 -0.000002  0.000027
    31 H    -0.000036 -0.000040  0.000008
    32 H    -0.000015  0.000038  0.000012
    33 H     0.000046  0.000041 -0.000037
    34 H     0.000003  0.000011 -0.000050
    35 H    -0.000002 -0.000005 -0.000050
    36 H    -0.000003 -0.000009  0.000013
    37 H    -0.000010  0.000007  0.000024
 ----------------------------------------
 Mulliken charges used for AMS results%charges...

 dE(predicted):    -0.82151E-06, dE(actual):    -0.51823E-05, Trust radius:    0.200000, all in a.u.
 
----------------------------------------------------------------------
Geometry Convergence after Step   7       (Hartree/Angstrom,Angstrom)
----------------------------------------------------------------------
current energy                               -9.23360025 Hartree
energy change                      -0.00000518     0.00037000    T
constrained gradient max            0.00035528     0.00100000    T
constrained gradient rms            0.00006890     0.00066667    T
gradient max                        0.00035528
gradient rms                        0.00006890
cart. step max                      0.01492186     0.01000000    F
cart. step rms                      0.00473851     0.00666667    T
 
 
--------
Geometry
--------
Formula: C10H22NO3P
Atoms
  Index Symbol   x (angstrom)   y (angstrom)   z (angstrom)
      1      O     3.33230310     0.28816274     0.19090523
      2      P     2.22881429    -0.18160108    -0.93218347
      3      O     1.15816326     1.05907830    -1.01875460
      4      O     1.28113387    -1.06808944     0.07371187
      5      C     0.15649503     1.01141268     0.02758680
      6      C    -0.04453023    -0.51660224     0.23989197
      7      C     0.69464255     1.72445728     1.26025766
      8      C    -1.07136517     1.73019849    -0.49482462
      9      C    -0.93904994    -1.14934101    -0.81694972
     10      C    -0.52367793    -0.89004903     1.62842563
     11      H    -0.08126381     1.82080049     2.02217131
     12      H     1.55169794     1.20395765     1.68509700
     13      H     1.01468055     2.72637781     0.97050800
     14      H    -1.38052642     1.34139950    -1.46367760
     15      H    -1.90109650     1.62852761     0.20872567
     16      H    -0.85191074     2.79291705    -0.60678288
     17      H    -1.98371455    -0.86656939    -0.67729776
     18      H    -0.62959513    -0.85987950    -1.82255704
     19      H    -0.86188927    -2.23409031    -0.73471964
     20      H    -1.49354671    -0.43051801     1.83339748
     21      H    -0.64062694    -1.97244749     1.69616445
     22      H     0.18557464    -0.57426027     2.39151465
     23      C     4.63748500     0.62915270    -0.27564546
     24      C     5.66024971    -0.04292773     0.62012668
     25      N     7.02000378     0.31656576     0.26397565
     26      C     7.37478051     1.64019393     0.73310766
     27      H     7.73226084    -1.64597601     0.35386046
     28      H     8.38305187     1.89003072     0.39780170
     29      C     7.96640462    -0.66030856     0.75938349
     30      H     4.77993807     0.30173877    -1.31114966
     31      H     4.73600671     1.71721066    -0.25089271
     32      H     5.54394727    -1.12320269     0.50669452
     33      H     5.42947211     0.19374278     1.67395516
     34      H     7.97115247    -0.73207265     1.86178041
     35      H     7.34964635     1.71668570     1.83518273
     36      H     6.69728358     2.39114024     0.32615885
     37      H     8.97419027    -0.39187205     0.43623250
 
Total System Charge             0.00000
Bonding info available!
 
 *** GOStep8 ***



 ======================
 RI Hartree-Fock Scheme
 ======================
  
 Fit Set Quality     : GOOD
 Integration Quality : GOOD
 Threshold Quality   : GOOD
 Response Quality    : DEFAULT
 Is Range Separated  :  F
 
 RIHartreeFock Dependency: number of modified vectors:          25
  
 Hartree-Fock exchange energy:   -113.869310669855     
  pauli hf:                              3.715516575860811        101.1044          2331.52          9755.09
  elstat hf:                            -3.749621431961792       -102.0324         -2352.92         -9844.63

 Energy gradients wrt nuclear displacements
 ==========================================

     Atom      Cartesian (a.u./angstrom)
                 X         Y         Z
 ----------------------------------------
     1 O     0.000003 -0.000133  0.000105
     2 P    -0.000131  0.000067 -0.000097
     3 O     0.000052 -0.000174  0.000015
     4 O     0.000104  0.000167  0.000041
     5 C     0.000020 -0.000141 -0.000039
     6 C     0.000076  0.000124 -0.000003
     7 C     0.000012 -0.000005  0.000074
     8 C    -0.000066  0.000008  0.000008
     9 C    -0.000036 -0.000004 -0.000086
    10 C    -0.000056  0.000007  0.000046
    11 H     0.000006  0.000012 -0.000009
    12 H    -0.000014 -0.000015  0.000002
    13 H    -0.000008 -0.000013 -0.000004
    14 H    -0.000011 -0.000012  0.000009
    15 H     0.000023 -0.000011 -0.000004
    16 H    -0.000000 -0.000018  0.000007
    17 H     0.000011 -0.000010  0.000017
    18 H    -0.000035  0.000009  0.000002
    19 H     0.000013  0.000014  0.000012
    20 H     0.000025 -0.000007 -0.000010
    21 H     0.000006  0.000013 -0.000004
    22 H    -0.000000  0.000007  0.000004
    23 C     0.000054  0.000059 -0.000068
    24 C    -0.000001 -0.000010  0.000005
    25 N     0.000044  0.000013  0.000024
    26 C    -0.000008 -0.000043 -0.000055
    27 H     0.000002  0.000017  0.000015
    28 H    -0.000015  0.000004  0.000003
    29 C    -0.000037  0.000006 -0.000067
    30 H     0.000020  0.000002  0.000008
    31 H    -0.000032 -0.000019  0.000027
    32 H    -0.000038  0.000041  0.000020
    33 H     0.000015  0.000033 -0.000016
    34 H     0.000019 -0.000004  0.000003
    35 H     0.000006  0.000016  0.000004
    36 H    -0.000016 -0.000003  0.000003
    37 H    -0.000008  0.000006  0.000008
 ----------------------------------------
 Mulliken charges used for AMS results%charges...

 dE(predicted):    -0.61956E-06, dE(actual):    -0.45268E-05, Trust radius:    0.200000, all in a.u.
 
----------------------------------------------------------------------
Geometry Convergence after Step   8       (Hartree/Angstrom,Angstrom)
----------------------------------------------------------------------
current energy                               -9.23360478 Hartree
energy change                      -0.00000453     0.00037000    T
constrained gradient max            0.00017182     0.00100000    T
constrained gradient rms            0.00004642     0.00066667    T
gradient max                        0.00017182
gradient rms                        0.00004642
cart. step max                      0.01735079     0.01000000    F
cart. step rms                      0.00557546     0.00666667    T
 
 
--------
Geometry
--------
Formula: C10H22NO3P
Atoms
  Index Symbol   x (angstrom)   y (angstrom)   z (angstrom)
      1      O     3.33194247     0.30076433     0.18997980
      2      P     2.23021383    -0.17635009    -0.93134389
      3      O     1.15541769     1.06054126    -1.02098848
      4      O     1.28509071    -1.06367367     0.07655904
      5      C     0.15386593     1.01230917     0.02556898
      6      C    -0.04223155    -0.51587632     0.24191159
      7      C     0.68996167     1.73050668     1.25612097
      8      C    -1.07612091     1.72591223    -0.49879944
      9      C    -0.93499380    -1.15443879    -0.81287378
     10      C    -0.51951450    -0.88725938     1.63161892
     11      H    -0.08611529     1.82662045     2.01796006
     12      H     1.54872397     1.21389552     1.68228365
     13      H     1.00690871     2.73257092     0.96345763
     14      H    -1.38368287     1.33381637    -1.46683745
     15      H    -1.90585789     1.62331790     0.20470993
     16      H    -0.86006089     2.78906502    -0.61328307
     17      H    -1.98060346    -0.87460462    -0.67392119
     18      H    -0.62647710    -0.86686817    -1.81930413
     19      H    -0.85435993    -2.23871336    -0.72763229
     20      H    -1.49062997    -0.43003096     1.83620009
     21      H    -0.63327131    -1.96982229     1.70217078
     22      H     0.18934080    -0.56755742     2.39344924
     23      C     4.63858536     0.63682575    -0.27581703
     24      C     5.65910744    -0.04189931     0.61758736
     25      N     7.01982260     0.31706240     0.26427138
     26      C     7.37756692     1.63632439     0.74348147
     27      H     7.72804477    -1.64758561     0.33878490
     28      H     8.38576129     1.88714931     0.40860091
     29      C     7.96417428    -0.66562242     0.75210192
     30      H     4.77932917     0.31184336    -1.31232696
     31      H     4.74176987     1.72438453    -0.24810683
     32      H     5.54094432    -1.12140816     0.49865019
     33      H     5.42773015     0.18977270     1.67238575
     34      H     7.96883506    -0.74599892     1.85392689
     35      H     7.35414508     1.70410721     1.84618401
     36      H     6.70072305     2.39160952     0.34350965
     37      H     8.97249936    -0.39674612     0.43094178
 
Total System Charge             0.00000
Bonding info available!
 
 *** GOStep9 ***



 ======================
 RI Hartree-Fock Scheme
 ======================
  
 Fit Set Quality     : GOOD
 Integration Quality : GOOD
 Threshold Quality   : GOOD
 Response Quality    : DEFAULT
 Is Range Separated  :  F
 
 RIHartreeFock Dependency: number of modified vectors:          25
  
 Hartree-Fock exchange energy:   -113.869014649564     
  pauli hf:                              3.716594411960209        101.1337          2332.20          9757.92
  elstat hf:                            -3.749383101682145       -102.0259         -2352.77         -9844.00

 Energy gradients wrt nuclear displacements
 ==========================================

     Atom      Cartesian (a.u./angstrom)
                 X         Y         Z
 ----------------------------------------
     1 O    -0.000088 -0.000078 -0.000097
     2 P     0.000153  0.000107 -0.000012
     3 O     0.000070 -0.000073 -0.000027
     4 O    -0.000002  0.000011  0.000080
     5 C    -0.000093 -0.000122  0.000044
     6 C     0.000012  0.000123  0.000011
     7 C     0.000042  0.000029 -0.000011
     8 C     0.000052  0.000015 -0.000001
     9 C     0.000037 -0.000053 -0.000060
    10 C     0.000010 -0.000030 -0.000023
    11 H    -0.000032  0.000023  0.000030
    12 H    -0.000002 -0.000019 -0.000005
    13 H     0.000008  0.000005 -0.000003
    14 H     0.000005  0.000001  0.000006
    15 H    -0.000047 -0.000006  0.000036
    16 H    -0.000009 -0.000007  0.000000
    17 H    -0.000057 -0.000005  0.000024
    18 H    -0.000010  0.000002  0.000023
    19 H     0.000011 -0.000006 -0.000002
    20 H    -0.000047  0.000021  0.000022
    21 H     0.000003  0.000008  0.000008
    22 H     0.000006 -0.000007 -0.000004
    23 C    -0.000027 -0.000037 -0.000011
    24 C    -0.000011  0.000015 -0.000002
    25 N     0.000066  0.000006 -0.000063
    26 C    -0.000007 -0.000030 -0.000021
    27 H     0.000003  0.000010 -0.000011
    28 H    -0.000002  0.000008 -0.000024
    29 C    -0.000034  0.000003 -0.000025
    30 H     0.000036  0.000006 -0.000014
    31 H    -0.000019  0.000021  0.000028
    32 H    -0.000041  0.000020  0.000023
    33 H    -0.000005  0.000015  0.000013
    34 H     0.000022 -0.000012  0.000045
    35 H     0.000010  0.000027  0.000045
    36 H    -0.000017  0.000002 -0.000009
    37 H     0.000003  0.000007 -0.000015
 ----------------------------------------
 Mulliken charges used for AMS results%charges...

 dE(predicted):    -0.62302E-06, dE(actual):    -0.49268E-05, Trust radius:    0.200000, all in a.u.
 
---------------------------------------------------------
Geometry Convergence after Step   9       ** CONVERGED **
---------------------------------------------------------
current energy                               -9.23360970 Hartree
energy change                      -0.00000493     0.00037000    T
constrained gradient max            0.00015372     0.00100000    T
constrained gradient rms            0.00003945     0.00066667    T
gradient max                        0.00015372
gradient rms                        0.00003945
cart. step max                      0.00738384     0.01000000    T
cart. step rms                      0.00253221     0.00666667    T
 
Geometry optimization converged

Optimized geometry:
 
--------
Geometry
--------
Formula: C10H22NO3P
Atoms
  Index Symbol   x (angstrom)   y (angstrom)   z (angstrom)
      1      O     3.33194247     0.30076433     0.18997980
      2      P     2.23021383    -0.17635009    -0.93134389
      3      O     1.15541769     1.06054126    -1.02098848
      4      O     1.28509071    -1.06367367     0.07655904
      5      C     0.15386593     1.01230917     0.02556898
      6      C    -0.04223155    -0.51587632     0.24191159
      7      C     0.68996167     1.73050668     1.25612097
      8      C    -1.07612091     1.72591223    -0.49879944
      9      C    -0.93499380    -1.15443879    -0.81287378
     10      C    -0.51951450    -0.88725938     1.63161892
     11      H    -0.08611529     1.82662045     2.01796006
     12      H     1.54872397     1.21389552     1.68228365
     13      H     1.00690871     2.73257092     0.96345763
     14      H    -1.38368287     1.33381637    -1.46683745
     15      H    -1.90585789     1.62331790     0.20470993
     16      H    -0.86006089     2.78906502    -0.61328307
     17      H    -1.98060346    -0.87460462    -0.67392119
     18      H    -0.62647710    -0.86686817    -1.81930413
     19      H    -0.85435993    -2.23871336    -0.72763229
     20      H    -1.49062997    -0.43003096     1.83620009
     21      H    -0.63327131    -1.96982229     1.70217078
     22      H     0.18934080    -0.56755742     2.39344924
     23      C     4.63858536     0.63682575    -0.27581703
     24      C     5.65910744    -0.04189931     0.61758736
     25      N     7.01982260     0.31706240     0.26427138
     26      C     7.37756692     1.63632439     0.74348147
     27      H     7.72804477    -1.64758561     0.33878490
     28      H     8.38576129     1.88714931     0.40860091
     29      C     7.96417428    -0.66562242     0.75210192
     30      H     4.77932917     0.31184336    -1.31232696
     31      H     4.74176987     1.72438453    -0.24810683
     32      H     5.54094432    -1.12140816     0.49865019
     33      H     5.42773015     0.18977270     1.67238575
     34      H     7.96883506    -0.74599892     1.85392689
     35      H     7.35414508     1.70410721     1.84618401
     36      H     6.70072305     2.39160952     0.34350965
     37      H     8.97249936    -0.39674612     0.43094178
 
Total System Charge             0.00000
Bonding info available!
 
Performing a single point calculation on the final geometry ...

 *** adf ***



 ===========================
 A T T A C H E D   F I L E S
 ===========================
  
 Restart/tmp/amstmp_ams_kid0.856999526/GOStep9.rkf*** GOStep9 ***



 ===============================
 M O D E L   P A R A M E T E R S
 ===============================
  
 DENSITY FUNCTIONAL POTENTIAL (scf)
    Hybrid:                            PBE0                                    == Not Default ==

 SPIN  (restricted / unrestr.)
    Molecule:                          Restricted                               
    Fragments:                         Restricted                               

 OTHER ASPECTS
    Relativistic Corrections:          scalar (ZORA,MAPA)                       

    Nuclear Charge Density Model:      Gaussian Charge Distributions            *** SPECIAL ***
    Core Treatment:                    Frozen Orbital(s)                        

    Hyperfine or Zeeman Interaction:   ---                                      



 ===============
 G E O M E T R Y  ***  3D  Molecule  ***
 ===============
  

 ATOMS
 =====                            X Y Z                    CHARGE
                                (Angstrom)             Nucl     +Core       At.Mass
                       --------------------------    ----------------       -------
    1  O               3.3319    0.3008    0.1900      8.00      8.00       15.9949
    2  P               2.2302   -0.1764   -0.9313     15.00     15.00       30.9738
    3  O               1.1554    1.0605   -1.0210      8.00      8.00       15.9949
    4  O               1.2851   -1.0637    0.0766      8.00      8.00       15.9949
    5  C               0.1539    1.0123    0.0256      6.00      6.00       12.0000
    6  C              -0.0422   -0.5159    0.2419      6.00      6.00       12.0000
    7  C               0.6900    1.7305    1.2561      6.00      6.00       12.0000
    8  C              -1.0761    1.7259   -0.4988      6.00      6.00       12.0000
    9  C              -0.9350   -1.1544   -0.8129      6.00      6.00       12.0000
   10  C              -0.5195   -0.8873    1.6316      6.00      6.00       12.0000
   11  H              -0.0861    1.8266    2.0180      1.00      1.00        1.0078
   12  H               1.5487    1.2139    1.6823      1.00      1.00        1.0078
   13  H               1.0069    2.7326    0.9635      1.00      1.00        1.0078
   14  H              -1.3837    1.3338   -1.4668      1.00      1.00        1.0078
   15  H              -1.9059    1.6233    0.2047      1.00      1.00        1.0078
   16  H              -0.8601    2.7891   -0.6133      1.00      1.00        1.0078
   17  H              -1.9806   -0.8746   -0.6739      1.00      1.00        1.0078
   18  H              -0.6265   -0.8669   -1.8193      1.00      1.00        1.0078
   19  H              -0.8544   -2.2387   -0.7276      1.00      1.00        1.0078
   20  H              -1.4906   -0.4300    1.8362      1.00      1.00        1.0078
   21  H              -0.6333   -1.9698    1.7022      1.00      1.00        1.0078
   22  H               0.1893   -0.5676    2.3934      1.00      1.00        1.0078
   23  C               4.6386    0.6368   -0.2758      6.00      6.00       12.0000
   24  C               5.6591   -0.0419    0.6176      6.00      6.00       12.0000
   25  N               7.0198    0.3171    0.2643      7.00      7.00       14.0031
   26  C               7.3776    1.6363    0.7435      6.00      6.00       12.0000
   27  H               7.7280   -1.6476    0.3388      1.00      1.00        1.0078
   28  H               8.3858    1.8871    0.4086      1.00      1.00        1.0078
   29  C               7.9642   -0.6656    0.7521      6.00      6.00       12.0000
   30  H               4.7793    0.3118   -1.3123      1.00      1.00        1.0078
   31  H               4.7418    1.7244   -0.2481      1.00      1.00        1.0078
   32  H               5.5409   -1.1214    0.4987      1.00      1.00        1.0078
   33  H               5.4277    0.1898    1.6724      1.00      1.00        1.0078
   34  H               7.9688   -0.7460    1.8539      1.00      1.00        1.0078
   35  H               7.3541    1.7041    1.8462      1.00      1.00        1.0078
   36  H               6.7007    2.3916    0.3435      1.00      1.00        1.0078
   37  H               8.9725   -0.3967    0.4309      1.00      1.00        1.0078


 FRAGMENTS
 =========                                     Atoms in this Fragment     Cart. coord.s (Angstrom)
                                               -------------------------------------------------------
    1  O                                                 1  O            3.3319    0.3008    0.1900
    2  O                                                 3  O            1.1554    1.0605   -1.0210
    3  O                                                 4  O            1.2851   -1.0637    0.0766
    4  P                                                 2  P            2.2302   -0.1764   -0.9313
    5  C                                                 5  C            0.1539    1.0123    0.0256
    6  C                                                 6  C           -0.0422   -0.5159    0.2419
    7  C                                                 7  C            0.6900    1.7305    1.2561
    8  C                                                 8  C           -1.0761    1.7259   -0.4988
    9  C                                                 9  C           -0.9350   -1.1544   -0.8129
   10  C                                                10  C           -0.5195   -0.8873    1.6316
   11  C                                                23  C            4.6386    0.6368   -0.2758
   12  C                                                24  C            5.6591   -0.0419    0.6176
   13  C                                                26  C            7.3776    1.6363    0.7435
   14  C                                                29  C            7.9642   -0.6656    0.7521
   15  H                                                11  H           -0.0861    1.8266    2.0180
   16  H                                                12  H            1.5487    1.2139    1.6823
   17  H                                                13  H            1.0069    2.7326    0.9635
   18  H                                                14  H           -1.3837    1.3338   -1.4668
   19  H                                                15  H           -1.9059    1.6233    0.2047
   20  H                                                16  H           -0.8601    2.7891   -0.6133
   21  H                                                17  H           -1.9806   -0.8746   -0.6739
   22  H                                                18  H           -0.6265   -0.8669   -1.8193
   23  H                                                19  H           -0.8544   -2.2387   -0.7276
   24  H                                                20  H           -1.4906   -0.4300    1.8362
   25  H                                                21  H           -0.6333   -1.9698    1.7022
   26  H                                                22  H            0.1893   -0.5676    2.3934
   27  H                                                27  H            7.7280   -1.6476    0.3388
   28  H                                                28  H            8.3858    1.8871    0.4086
   29  H                                                30  H            4.7793    0.3118   -1.3123
   30  H                                                31  H            4.7418    1.7244   -0.2481
   31  H                                                32  H            5.5409   -1.1214    0.4987
   32  H                                                33  H            5.4277    0.1898    1.6724
   33  H                                                34  H            7.9688   -0.7460    1.8539
   34  H                                                35  H            7.3541    1.7041    1.8462
   35  H                                                36  H            6.7007    2.3916    0.3435
   36  H                                                37  H            8.9725   -0.3967    0.4309
   37  N                                                25  N            7.0198    0.3171    0.2643



 =====================================
 S Y M M E T R Y ,   E L E C T R O N S
 =====================================
  
 Symmetry: NOSYM

 Irreducible Representations, including subspecies
 -------------------------------------------------
 A

 Symmetry is NOT used when fitting density


 Configuration of Valence Electrons
 ==================================
 ( determined in the SCF procedure )

 Total:   128

 Net Charge: 0 (Nuclei minus Electrons)

 Aufbau principle for MO occupations will be applied through SCF cycle no.     150
 Thereafter, the program will assign electrons to MOs that are spatially
 similar to the occupied MOs in a "reference" cycle ("KeepOrbitals").
 The reference cycle is always the PREVIOUS cycle: it will evolve with
 the SCF procedure.
1
 ***************************************************************************************************



                                      ****************************************
                                      *  B U I L D : (Fragments, Functions)  *
                                      ****************************************
  



 =======
 S F O s  ***  (Symmetrized Fragment Orbitals)  ***
 =======
  
 SFOs are linear combinations of (valence) Fragment Orbitals (FOs), such that the SFOs transform as the
 irreducible representations of the (molecular) symmetry group. Each SFO is therefore characterized by
 an irrep of the molecule and by a few (or only one) generating FOs.
 The SFOs constitute a symmetry-adapted basis for the Fock matrix. The MO eigenvector coefficients in
 this basis provide a direct interpretation of the MOs in terms of Frontier Orbital Theory.

 The SFOs are combined with auxiliary Core Functions (CFs) to ensure orthogonalization on the (frozen)
 Core Orbitals (COs). The Core-orthogonalized SFOs (CSFOs) constitute the true Fock basis.

 The FOs, and hence also the (C)SFOs are combinations of the elementary basis functions (BAS). The basis
 functions that participate in the description of the SFOs depend on the irrep. The indices of the
 involved functions are printed below for each irrep.
 (The complete list of primitive basis functions is printed in another section)

 Total nr. of (C)SFOs (summation over all irreps) :   425

 NOTE: a (C)SFO that is defined as a combination of more than one FO is usually NOT normalized.



                                       === A ===
 Nr. of SFOs :  425
 Cartesian basis functions that participate in this irrep (total number =   440) :
      1     2     3     4     5     6     9    12     7    10
     13     8    11    14    15    16    17    18    19    20
     21    22    23    24    25    26    29    32    27    30
     33    28    31    34    35    36    37    38    39    40
     41    42    43    44    45    46    49    52    47    50
     53    48    51    54    55    56    57    58    59    60
     61    62    63    64    71    72    73    65    68    74
     77    80    66    69    75    78    81    67    70    76
     79    82    83    84    85    86    87    88    89    90
     91    92    93    94    97   100    95    98   101    96
     99   102   103   104   105   106   107   108   109   110
    111   112   113   114   117   120   115   118   121   116
    119   122   123   124   125   126   127   128   129   130
    131   132   133   134   137   140   135   138   141   136
    139   142   143   144   145   146   147   148   149   150
    151   152   153   154   157   160   155   158   161   156
    159   162   163   164   165   166   167   168   169   170
    171   172   173   174   177   180   175   178   181   176
    179   182   183   184   185   186   187   188   189   190
    191   192   193   194   197   200   195   198   201   196
    199   202   203   204   205   206   207   208   209   210
    211   212   213   214   217   220   215   218   221   216
    219   222   223   224   225   226   227   228   229   230
    231   232   233   234   237   240   235   238   241   236
    239   242   243   244   245   246   247   248   249   250
    251   252   253   254   257   260   255   258   261   256
    259   262   263   264   265   266   267   268   269   270
    271   272   273   274   277   280   275   278   281   276
    279   282   283   284   285   286   287   288   289   290
    291   292   293   294   295   296   297   298   299   300
    301   302   303   304   305   306   307   308   309   310
    311   312   313   314   315   316   317   318   319   320
    321   322   323   324   325   326   327   328   329   330
    331   332   333   334   335   336   337   338   339   340
    341   342   343   344   345   346   347   348   349   350
    351   352   353   354   355   356   357   358   359   360
    361   362   363   364   365   366   367   368   369   370
    371   372   373   374   375   376   377   378   379   380
    381   382   383   384   385   386   387   388   389   390
    391   392   393   394   395   396   397   398   399   400
    401   402   403   404   405   406   407   408   409   410
    411   412   413   414   415   416   417   418   419   420
    421   422   423   424   425   426   429   432   427   430
    433   428   431   434   435   436   437   438   439   440

    SFO  (index         Fragment          Generating    Expansion in Fragment Orbitals
  indx  incl.CFs)   Occup   Orb.Energy   FragmentType  Coeff.   Orbital     on Fragment
 --------------------------------------------------------------------------------------
     1       1      2.000     -19.396 au  O             1.00      1 S               1
                        (    -527.802 eV)
     2       2      2.000      -0.999 au  O             1.00      2 S               1
                        (     -27.198 eV)
     3       3       --         0.856 au  O             1.00      3 S               1
                        (      23.286 eV)
     4       4       --        13.669 au  O             1.00      4 S               1
                        (     371.949 eV)
     5       5       --       122.369 au  O             1.00      5 S               1
                        (    3329.823 eV)
     6       6      1.333      -0.366 au  O             1.00      1 P:x             1
                        (      -9.955 eV)
     7       7       --         0.397 au  O             1.00      2 P:x             1
                        (      10.811 eV)
     8       8       --         3.979 au  O             1.00      3 P:x             1
                        (     108.277 eV)
     9       9      1.333      -0.366 au  O             1.00      1 P:y             1
                        (      -9.955 eV)
    10      10       --         0.397 au  O             1.00      2 P:y             1
                        (      10.811 eV)
    11      11       --         3.979 au  O             1.00      3 P:y             1
                        (     108.277 eV)
    12      12      1.333      -0.366 au  O             1.00      1 P:z             1
                        (      -9.955 eV)
    13      13       --         0.397 au  O             1.00      2 P:z             1
                        (      10.811 eV)
    14      14       --         3.979 au  O             1.00      3 P:z             1
                        (     108.277 eV)
    15      15       --         1.128 au  O             1.00      1 D:z2            1
                        (      30.706 eV)
    16      16       --         1.128 au  O             1.00      1 D:x2-y2         1
                        (      30.706 eV)
    17      17       --         1.128 au  O             1.00      1 D:xy            1
                        (      30.706 eV)
    18      18       --         1.128 au  O             1.00      1 D:xz            1
                        (      30.706 eV)
    19      19       --         1.128 au  O             1.00      1 D:yz            1
                        (      30.706 eV)
    20      20      2.000     -19.396 au  O             1.00      1 S               2
                        (    -527.802 eV)
    21      21      2.000      -0.999 au  O             1.00      2 S               2
                        (     -27.198 eV)
    22      22       --         0.856 au  O             1.00      3 S               2
                        (      23.286 eV)
    23      23       --        13.669 au  O             1.00      4 S               2
                        (     371.949 eV)
    24      24       --       122.369 au  O             1.00      5 S               2
                        (    3329.823 eV)
    25      25      1.333      -0.366 au  O             1.00      1 P:x             2
                        (      -9.955 eV)
    26      26       --         0.397 au  O             1.00      2 P:x             2
                        (      10.811 eV)
    27      27       --         3.979 au  O             1.00      3 P:x             2
                        (     108.277 eV)
    28      28      1.333      -0.366 au  O             1.00      1 P:y             2
                        (      -9.955 eV)
    29      29       --         0.397 au  O             1.00      2 P:y             2
                        (      10.811 eV)
    30      30       --         3.979 au  O             1.00      3 P:y             2
                        (     108.277 eV)
    31      31      1.333      -0.366 au  O             1.00      1 P:z             2
                        (      -9.955 eV)
    32      32       --         0.397 au  O             1.00      2 P:z             2
                        (      10.811 eV)
    33      33       --         3.979 au  O             1.00      3 P:z             2
                        (     108.277 eV)
    34      34       --         1.128 au  O             1.00      1 D:z2            2
                        (      30.706 eV)
    35      35       --         1.128 au  O             1.00      1 D:x2-y2         2
                        (      30.706 eV)
    36      36       --         1.128 au  O             1.00      1 D:xy            2
                        (      30.706 eV)
    37      37       --         1.128 au  O             1.00      1 D:xz            2
                        (      30.706 eV)
    38      38       --         1.128 au  O             1.00      1 D:yz            2
                        (      30.706 eV)
    39      39      2.000     -19.396 au  O             1.00      1 S               3
                        (    -527.802 eV)
    40      40      2.000      -0.999 au  O             1.00      2 S               3
                        (     -27.198 eV)
    41      41       --         0.856 au  O             1.00      3 S               3
                        (      23.286 eV)
    42      42       --        13.669 au  O             1.00      4 S               3
                        (     371.949 eV)
    43      43       --       122.369 au  O             1.00      5 S               3
                        (    3329.823 eV)
    44      44      1.333      -0.366 au  O             1.00      1 P:x             3
                        (      -9.955 eV)
    45      45       --         0.397 au  O             1.00      2 P:x             3
                        (      10.811 eV)
    46      46       --         3.979 au  O             1.00      3 P:x             3
                        (     108.277 eV)
    47      47      1.333      -0.366 au  O             1.00      1 P:y             3
                        (      -9.955 eV)
    48      48       --         0.397 au  O             1.00      2 P:y             3
                        (      10.811 eV)
    49      49       --         3.979 au  O             1.00      3 P:y             3
                        (     108.277 eV)
    50      50      1.333      -0.366 au  O             1.00      1 P:z             3
                        (      -9.955 eV)
    51      51       --         0.397 au  O             1.00      2 P:z             3
                        (      10.811 eV)
    52      52       --         3.979 au  O             1.00      3 P:z             3
                        (     108.277 eV)
    53      53       --         1.128 au  O             1.00      1 D:z2            3
[...]
                                   -1.07%     2 P:z             5.519  0.00     5 C
                                   -1.04%     2 P:y             5.519  0.00    10 C
                                    1.00%     1 P:x            -5.048  0.67    13 C
       5.376  0.00    99 A        -12.23%     2 P:z             5.519  0.00     6 C
                                    8.66%     1 P:y            -5.048  0.67     7 C
                                    8.37%     1 S              -6.581  1.00    17 H
                                    7.54%     1 S              -6.581  1.00    35 H
                                    7.49%     1 P:z            -5.048  0.67     6 C
                                    5.83%     1 P:x            -5.048  0.67    13 C
                                    5.78%     2 P:y             5.519  0.00    14 C
                                   -5.55%     2 S               3.073  0.00    35 H
                                   -5.49%     2 P:x             8.878  0.00    37 N
                                   -5.46%     2 P:x             5.519  0.00     5 C
                                    5.41%     1 P:x            -5.048  0.67     9 C
                                    4.86%     1 S              -6.581  1.00    30 H
                                    4.02%     2 S               3.073  0.00    30 H
                                    3.95%     1 P:y            -5.048  0.67     9 C
                                    3.73%     1 P:y            -5.048  0.67    14 C
                                    3.57%     2 P:x             5.519  0.00    13 C
                                    3.45%     1 S              -6.581  1.00    23 H
                                    3.37%     1 P:z            -5.048  0.67    10 C
                                    3.36%     1 P:y            -5.048  0.67     8 C
                                   -3.02%     2 S               3.073  0.00    17 H
                                    2.94%     1 S              -6.581  1.00    20 H
                                    2.90%     1 S              -6.581  1.00    21 H
                                    2.74%     2 P:y             5.519  0.00     9 C
                                   -2.68%     2 S               3.073  0.00    28 H
                                    2.62%     1 P:y            -5.048  0.67    10 C
                                    2.62%     2 P:y             5.519  0.00    10 C
                                   -2.55%     2 P:y             5.519  0.00    11 C
                                    2.51%     1 P:x            -7.353  1.00    37 N
                                    2.50%     1 P:y            -5.048  0.67    12 C
                                    2.33%     1 S              -6.581  1.00    28 H
                                    2.18%     1 S              -6.581  1.00    32 H
                                    2.15%     1 P:x            -5.048  0.67     5 C
                                    2.08%     3 P:y             2.910  0.00     4 P
                                    2.03%     1 P:z            -5.048  0.67     8 C
                                    1.93%     3 P:x             2.910  0.00     4 P
                                   -1.92%     2 S               3.073  0.00    20 H
                                    1.86%     2 S               3.073  0.00    19 H
                                    1.79%     1 S              -6.581  1.00    31 H
                                    1.75%     1 P:y            -5.048  0.67     5 C
                                   -1.74%     2 P:z             5.519  0.00     5 C
                                    1.73%     1 S              -6.581  1.00    34 H
                                    1.70%     1 P:x            -5.048  0.67    12 C
                                    1.69%     2 P:z             5.519  0.00    14 C
                                    1.66%     1 P:z            -5.048  0.67     5 C
                                   -1.64%     2 S               3.073  0.00    25 H
                                    1.63%     1 S              -6.581  1.00    25 H
                                    1.51%     2 P:z             5.519  0.00     8 C
                                   -1.37%     2 P:x             5.519  0.00     8 C
                                    1.35%     2 S               3.073  0.00    24 H
                                   -1.31%     2 S               3.073  0.00    32 H
                                    1.24%     2 S               3.073  0.00    18 H
                                    1.21%     1 P:z            -5.048  0.67    14 C
                                   -1.14%     2 P:x             5.519  0.00    10 C
                                    1.13%     2 P:x             5.519  0.00     6 C
                                    1.11%     1 P:z            -5.048  0.67     7 C
                                   -1.06%     2 P:z             5.519  0.00    10 C
                                    1.05%     2 P:x             5.519  0.00     9 C
                                    1.04%     1 P:x            -5.048  0.67     8 C
                                    1.04%     1 P:y            12.103  0.00    18 H
                                    1.03%     1 S              -6.581  1.00    15 H
                                   -1.03%     2 S               3.073  0.00    31 H
       5.460  0.00   100 A         12.62%     1 P:x            -5.048  0.67    10 C
                                    6.51%     1 P:z            -5.048  0.67     6 C
                                    6.42%     1 S              -6.581  1.00    26 H
                                    6.03%     1 P:y            -5.048  0.67     5 C
                                   -5.91%     2 P:z             5.519  0.00     6 C
                                    5.74%     1 S              -6.581  1.00    25 H
                                    5.65%     1 P:z            -5.048  0.67     8 C
                                    5.37%     1 P:y            -5.048  0.67     8 C
                                    4.89%     2 S               3.073  0.00    22 H
                                    4.82%     2 S               3.073  0.00    16 H
                                    4.52%     1 S              -6.581  1.00    20 H
                                   -4.45%     2 S               3.073  0.00    25 H
                                   -4.30%     2 S               3.073  0.00    24 H
                                    4.16%     2 P:x             5.519  0.00    10 C
                                   -3.89%     2 S               3.073  0.00    26 H
                                    3.87%     2 P:z             5.519  0.00     9 C
                                    3.82%     2 P:x             5.519  0.00     7 C
                                    3.67%     1 P:z            -5.048  0.67     9 C
                                    3.66%     1 S              -6.581  1.00    18 H
                                    3.24%     1 S              -6.581  1.00    23 H
                                    3.23%     1 P:x            -5.048  0.67     5 C
                                   -3.23%     2 P:y             5.519  0.00     9 C
                                    3.20%     1 S              -6.581  1.00    24 H
                                    3.09%     1 P:y            -5.048  0.67    10 C
                                    2.87%     2 P:z             5.519  0.00     8 C
                                    2.80%     2 P:x             5.519  0.00     8 C
                                   -2.61%     2 S               3.073  0.00    17 H
                                   -2.60%     2 P:y             5.519  0.00     5 C
                                   -2.27%     1 P:z            -5.048  0.67     5 C
                                   -2.24%     2 S               3.073  0.00    18 H
                                    2.17%     1 S              -6.581  1.00    32 H
                                    2.14%     1 P:x            -7.353  1.00    37 N
                                    2.11%     1 P:y            -5.048  0.67     9 C
                                    1.91%     2 P:z             5.519  0.00     7 C
                                    1.79%     1 P:x            -5.048  0.67    11 C
                                   -1.76%     2 P:x             5.519  0.00     6 C
                                    1.70%     1 P:x            -5.048  0.67     7 C
                                    1.66%     2 P:z             5.519  0.00    13 C
                                   -1.60%     2 S               3.073  0.00    20 H
                                    1.55%     2 S             -15.871  2.00     6 C
                                   -1.49%     3 P:x             2.910  0.00     4 P
                                    1.48%     1 S              -6.581  1.00    16 H
                                    1.40%     1 P:z            -5.048  0.67    13 C
                                    1.38%     1 S              -6.581  1.00    19 H
                                    1.30%     2 S               3.073  0.00    19 H
                                    1.25%     1 S              -6.581  1.00    17 H
                                    1.24%     1 P:z            12.103  0.00    20 H
                                    1.20%     2 P:x            -5.658  1.00     4 P
                                   -1.18%     3 S              11.266  0.00     7 C
                                   -1.12%     2 P:x             8.878  0.00    37 N
                                    1.08%     1 P:y            12.103  0.00    19 H
                                    1.04%     2 S             -15.871  2.00    12 C
                                    1.00%     2 S               3.073  0.00    21 H
       5.534  0.00   101 A         18.54%     1 P:z            -5.048  0.67    14 C
                                  -18.46%     2 P:y             8.878  0.00    37 N
                                   13.51%     1 P:z            -5.048  0.67    13 C
                                   13.46%     1 S              -6.581  1.00    34 H
                                   12.05%     2 P:z             5.519  0.00    14 C
                                   11.71%     1 S              -6.581  1.00    33 H
                                    9.90%     1 P:y            -5.048  0.67    13 C
                                    9.13%     1 P:y            -7.353  1.00    37 N
                                   -7.85%     2 S               3.073  0.00    33 H
                                   -6.89%     2 S               3.073  0.00    34 H
                                    4.96%     1 P:y            -5.048  0.67    14 C
                                    4.68%     2 P:z             5.519  0.00    13 C
                                    4.63%     1 P:x            -5.048  0.67    14 C
                                    3.01%     1 P:x            -5.048  0.67    13 C
                                    2.51%     1 S              -6.581  1.00    28 H
                                   -2.43%     3 S              43.500  0.00    33 H
                                    2.34%     2 S               3.073  0.00    36 H
                                    2.02%     1 P:y            -5.048  0.67     8 C
                                   -2.02%     2 P:x             5.519  0.00    14 C
                                    1.92%     2 P:y             5.519  0.00    12 C
                                   -1.92%     2 P:x             8.878  0.00    37 N
                                    1.77%     1 P:z            -5.048  0.67    12 C
                                    1.59%     2 P:y             5.519  0.00    14 C
                                   -1.49%     3 S              43.500  0.00    34 H
                                    1.49%     1 S              -6.581  1.00    16 H
                                    1.46%     1 S              -6.581  1.00    20 H
                                   -1.46%     2 P:x             5.519  0.00     5 C
                                    1.44%     3 P:y             2.910  0.00     4 P
                                    1.14%     2 P:y             5.519  0.00     8 C
                                    1.06%     1 P:y            -5.048  0.67     9 C
                                    1.06%     1 S              -6.581  1.00    17 H

 Energy gradients wrt nuclear displacements
 ==========================================

     Atom      Cartesian (a.u./angstrom)
                 X         Y         Z
 ----------------------------------------
     1 O    -0.000088 -0.000078 -0.000097
     2 P     0.000153  0.000107 -0.000012
     3 O     0.000070 -0.000073 -0.000027
     4 O    -0.000002  0.000011  0.000080
     5 C    -0.000093 -0.000122  0.000044
     6 C     0.000012  0.000123  0.000011
     7 C     0.000042  0.000029 -0.000011
     8 C     0.000052  0.000015 -0.000001
     9 C     0.000037 -0.000053 -0.000060
    10 C     0.000011 -0.000030 -0.000023
    11 H    -0.000032  0.000023  0.000030
    12 H    -0.000002 -0.000019 -0.000005
    13 H     0.000008  0.000005 -0.000003
    14 H     0.000005  0.000001  0.000006
    15 H    -0.000047 -0.000006  0.000036
    16 H    -0.000009 -0.000007  0.000000
    17 H    -0.000057 -0.000005  0.000024
    18 H    -0.000010  0.000002  0.000023
    19 H     0.000011 -0.000006 -0.000002
    20 H    -0.000047  0.000021  0.000022
    21 H     0.000003  0.000008  0.000008
    22 H     0.000006 -0.000007 -0.000004
    23 C    -0.000027 -0.000037 -0.000011
    24 C    -0.000011  0.000015 -0.000002
    25 N     0.000066  0.000006 -0.000063
    26 C    -0.000007 -0.000030 -0.000021
    27 H     0.000003  0.000010 -0.000011
    28 H    -0.000002  0.000008 -0.000024
    29 C    -0.000034  0.000003 -0.000025
    30 H     0.000036  0.000006 -0.000014
    31 H    -0.000019  0.000021  0.000028
    32 H    -0.000041  0.000020  0.000023
    33 H    -0.000005  0.000015  0.000013
    34 H     0.000022 -0.000012  0.000045
    35 H     0.000010  0.000027  0.000045
    36 H    -0.000017  0.000002 -0.000009
    37 H     0.000003  0.000007 -0.000015
 ----------------------------------------



 =======================================================================
 Electrostatic potential at the Nuclei due to electrons and other nuclei
 =======================================================================
  
         Atom                  Potential
         ----                  ---------
     1)   O                  22.37442921
     2)   P                  54.39941329
     3)   O                  22.37765024
     4)   O                  22.37864209
     5)   C                  14.70414764
     6)   C                  14.70298393
     7)   C                  14.79185338
     8)   C                  14.78391975
     9)   C                  14.78798055
    10)   C                  14.78407162
    11)   H                   1.11419120
    12)   H                   1.12114380
    13)   H                   1.11831903
    14)   H                   1.11370283
    15)   H                   1.10586680
    16)   H                   1.11274058
    17)   H                   1.11131477
    18)   H                   1.11494134
    19)   H                   1.11559993
    20)   H                   1.10614216
    21)   H                   1.11307383
    22)   H                   1.11443716
    23)   C                  14.72800535
    24)   C                  14.75742224
    25)   N                  18.40138036
    26)   C                  14.76310860
    27)   H                   1.11729597
    28)   H                   1.11611649
    29)   C                  14.76375716
    30)   H                   1.11498078
    31)   H                   1.11802980
    32)   H                   1.11855669
    33)   H                   1.12410214
    34)   H                   1.12289478
    35)   H                   1.12140584
    36)   H                   1.11536189
    37)   H                   1.11746993
 Mulliken charges used for AMS results%charges...


    =====================
     CALCULATION RESULTS
    =====================

Energy (hartree)            -9.23360957

Gradients (hartree/bohr)
  Index   Atom            d/dx            d/dy            d/dz
      1      O   -0.0000466883   -0.0000414378   -0.0000512054
      2      P    0.0000810112    0.0000566001   -0.0000065275
      3      O    0.0000372433   -0.0000384009   -0.0000141576
      4      O   -0.0000008663    0.0000059916    0.0000423637
      5      C   -0.0000490242   -0.0000644940    0.0000234860
      6      C    0.0000062088    0.0000649228    0.0000060268
      7      C    0.0000224651    0.0000154342   -0.0000056862
      8      C    0.0000276777    0.0000078257   -0.0000007827
      9      C    0.0000195614   -0.0000278556   -0.0000316769
     10      C    0.0000055639   -0.0000160152   -0.0000123768
     11      H   -0.0000171751    0.0000121836    0.0000160626
     12      H   -0.0000012028   -0.0000099756   -0.0000026678
     13      H    0.0000041548    0.0000024033   -0.0000015156
     14      H    0.0000023980    0.0000003577    0.0000031515
     15      H   -0.0000247397   -0.0000033915    0.0000189900
     16      H   -0.0000048912   -0.0000038011    0.0000001362
     17      H   -0.0000303088   -0.0000025583    0.0000127747
     18      H   -0.0000051813    0.0000010558    0.0000122266
     19      H    0.0000057654   -0.0000032065   -0.0000009091
     20      H   -0.0000249091    0.0000113189    0.0000115569
     21      H    0.0000018329    0.0000042381    0.0000042827
     22      H    0.0000029572   -0.0000035495   -0.0000021773
     23      C   -0.0000141410   -0.0000194497   -0.0000060362
     24      C   -0.0000059243    0.0000077946   -0.0000009839
     25      N    0.0000349793    0.0000031357   -0.0000333399
     26      C   -0.0000037866   -0.0000159467   -0.0000112260
     27      H    0.0000014172    0.0000050874   -0.0000058109
     28      H   -0.0000008404    0.0000044868   -0.0000125856
     29      C   -0.0000177482    0.0000014698   -0.0000131598
     30      H    0.0000191496    0.0000033312   -0.0000071468
     31      H   -0.0000099823    0.0000109568    0.0000148560
     32      H   -0.0000217667    0.0000105984    0.0000121081
     33      H   -0.0000025744    0.0000081424    0.0000070316
     34      H    0.0000115688   -0.0000061287    0.0000236798
     35      H    0.0000055162    0.0000143335    0.0000240177
     36      H   -0.0000091623    0.0000010934   -0.0000049928
     37      H    0.0000014425    0.0000034491   -0.0000077862


--------------
Atomic charges
--------------
  Index   Atom    Charge
      1      O   -0.6856
      2      P    1.0817
      3      O   -0.6796
      4      O   -0.6810
      5      C    0.2871
      6      C    0.3132
      7      C    0.4754
      8      C    0.4599
      9      C    0.4793
     10      C    0.4621
     11      H   -0.1564
     12      H   -0.1227
     13      H   -0.1718
     14      H   -0.1432
     15      H   -0.1497
     16      H   -0.1643
     17      H   -0.1538
     18      H   -0.1617
     19      H   -0.1654
     20      H   -0.1504
     21      H   -0.1636
     22      H   -0.1426
     23      C    0.6328
     24      C    0.4744
     25      N   -0.4080
     26      C    0.6195
     27      H   -0.1670
     28      H   -0.1631
     29      C    0.6150
     30      H   -0.1609
     31      H   -0.1469
     32      H   -0.1455
     33      H   -0.1600
     34      H   -0.1610
     35      H   -0.1592
     36      H   -0.1647
     37      H   -0.1724


Dipole moment vector    (Debye):    -0.91937739    0.73374094    1.52403344
              magnitude (Debye):     1.92517752


AMS application finished. Exiting.
NORMAL TERMINATION
     Total cpu time:    4110.50
  Total system time:      58.89
 Total elapsed time:    4300.51
