
     Program PWSCF v.7.1 starts on 27Jul2023 at 22:49: 3 

     This program is part of the open-source Quantum ESPRESSO suite
     for quantum simulation of materials; please cite
         "P. Giannozzi et al., J. Phys.:Condens. Matter 21 395502 (2009);
         "P. Giannozzi et al., J. Phys.:Condens. Matter 29 465901 (2017);
         "P. Giannozzi et al., J. Chem. Phys. 152 154105 (2020);
          URL http://www.quantum-espresso.org", 
     in publications or presentations arising from this work. More details at
     http://www.quantum-espresso.org/quote

     Parallel version (MPI), running on   160 processors

     MPI processes distributed on     2 nodes
     475499 MiB available memory on the printing compute node when the environment starts

     Waiting for input...
     Reading input from standard input

     Current dimensions of program PWSCF are:
     Max number of different atomic species (ntypx) = 10
     Max number of k-points (npk) =  40000
     Max angular momentum in pseudopotentials (lmaxx) =  4

     K-points division:     npool     =       4
     R & G space division:  proc/nbgrp/npool/nimage =      40
     Subspace diagonalization in iterative solution of the eigenvalue problem:
     a serial algorithm will be used


     Parallelization info
     --------------------
     sticks:   dense  smooth     PW     G-vecs:    dense   smooth      PW
     Min          24      24      7                 1886     1886     317
     Max          25      25      8                 1895     1895     328
     Sum         975     975    299                75599    75599   12867

     Using Slab Decomposition



     bravais-lattice index     =            0
     lattice parameter (alat)  =       8.9933  a.u.
     unit-cell volume          =    2052.0453 (a.u.)^3
     number of atoms/cell      =           11
     number of atomic types    =            3
     number of electrons       =        50.00
     number of Kohn-Sham states=           30
     kinetic-energy cutoff     =      42.0000  Ry
     charge density cutoff     =     168.0000  Ry
     scf convergence threshold =      1.0E-06
     mixing beta               =       0.7000
     number of iterations used =            8  plain     mixing
     energy convergence thresh.=      1.0E-04
     force convergence thresh. =      1.0E-03
     press convergence thresh. =      5.0E-01
     Exchange-correlation= PBE
                           (   1   4   3   4   0   0   0)
     nstep                     =           50


     celldm(1)=   8.993258  celldm(2)=   0.000000  celldm(3)=   0.000000
     celldm(4)=   0.000000  celldm(5)=   0.000000  celldm(6)=   0.000000

     crystal axes: (cart. coord. in units of alat)
               a(1) = (   0.999620  -0.027579   0.000000 )  
               a(2) = (  -0.523694   0.909871   0.000000 )  
               a(3) = (   0.000000   0.000000   3.151905 )  

     reciprocal axes: (cart. coord. in units 2 pi/alat)
               b(1) = (  1.016523  0.585079 -0.000000 )  
               b(2) = (  0.030812  1.116791 -0.000000 )  
               b(3) = ( -0.000000 -0.000000  0.317268 )  


     PseudoPot. # 1 for Si read from file:
     ./Si.upf
     MD5 check sum: 02fab3f35e82123ef5bf1cb05d5b1a5e
     Pseudo is Norm-conserving + core correction, Zval =  4.0
     Generated using ONCVPSP code by D. R. Hamann
     Using radial grid of 1510 points,  6 beta functions with: 
                l(1) =   0
                l(2) =   0
                l(3) =   1
                l(4) =   1
                l(5) =   2
                l(6) =   2

     PseudoPot. # 2 for O  read from file:
     ./O.upf
     MD5 check sum: 3e3f909f7470e8921608ab6b1f57bbae
     Pseudo is Norm-conserving + core correction, Zval =  6.0
     Generated using ONCVPSP code by D. R. Hamann
     Using radial grid of  936 points,  5 beta functions with: 
                l(1) =   0
                l(2) =   0
                l(3) =   1
                l(4) =   1
                l(5) =   2

     PseudoPot. # 3 for H  read from file:
     ./H.upf
     MD5 check sum: e96aa7e3e4a958db16958554ea960e2a
     Pseudo is Norm-conserving, Zval =  1.0
     Generated using ONCVPSP code by D. R. Hamann
     Using radial grid of 1166 points,  3 beta functions with: 
                l(1) =   0
                l(2) =   0
                l(3) =   1

     atomic species   valence    mass     pseudopotential
        Si             4.00    27.97693     Si( 1.00)
        O              6.00    15.99491     O ( 1.00)
        H              1.00     1.00782     H ( 1.00)

     No symmetry found



   Cartesian axes

     site n.     atom                  positions (alat units)
         1           Si  tau(   1) = (  -0.1131856   0.0607643  -0.0212343  )
         2           Si  tau(   2) = (  -0.7280035   0.4296534  -0.3849121  )
         3           Si  tau(   3) = (   0.2999373  -0.4549696  -0.7668894  )
         4           O   tau(   4) = (  -0.2793059   0.1893730  -0.9835973  )
         5           O   tau(   5) = (  -0.3954654   0.3941413  -0.4699311  )
         6           O   tau(   6) = (   0.1509329   0.1059303  -0.2579513  )
         7           O   tau(   7) = (   0.2029600  -0.1574837  -0.9169284  )
         8           O   tau(   8) = (   0.6342643  -0.4291730  -0.6816218  )
         9           O   tau(   9) = (  -0.2518882  -0.2388668  -0.1433017  )
        10           H   tau(  10) = (   0.3677150  -0.0363238  -0.9566285  )
        11           H   tau(  11) = (  -0.1301369   0.0448356  -0.9685008  )

     number of k points=   504  Gaussian smearing, width (Ry)=  0.0200

     Number of k-points >= 100: set verbosity='high' to print them.

     Dense  grid:    75599 G-vectors     FFT dimensions: (  40,  40, 120)

     Estimated max dynamical RAM per process >      22.31 MB

     Estimated total dynamical RAM >       3.43 GB

     Check: negative core charge=   -0.000200

     Initial potential from superposition of free atoms

     starting charge      49.9981, renormalised to      50.0000

     negative rho (up, down):  3.241E-03 0.000E+00
     Starting wfcs are   38 randomized atomic wfcs

     total cpu time spent up to now is        3.4 secs

     per-process dynamical memory:   100.0 Mb

     Self-consistent Calculation

     iteration #  1     ecut=    42.00 Ry     beta= 0.70
     Davidson diagonalization with overlap
     ethr =  1.00E-02,  avg # of iterations =  3.4

     negative rho (up, down):  7.100E-04 0.000E+00

     total cpu time spent up to now is        9.8 secs

     total energy              =    -225.31370316 Ry
     estimated scf accuracy    <       1.73860589 Ry

     iteration #  2     ecut=    42.00 Ry     beta= 0.70
     Davidson diagonalization with overlap
     ethr =  3.48E-03,  avg # of iterations =  3.6

     negative rho (up, down):  3.011E-04 0.000E+00

     total cpu time spent up to now is       16.0 secs

     total energy              =    -225.77791445 Ry
     estimated scf accuracy    <       1.21282113 Ry

     iteration #  3     ecut=    42.00 Ry     beta= 0.70
     Davidson diagonalization with overlap
     ethr =  2.43E-03,  avg # of iterations =  2.0

     negative rho (up, down):  7.773E-05 0.000E+00

     total cpu time spent up to now is       21.2 secs

     total energy              =    -226.00066566 Ry
     estimated scf accuracy    <       0.03765860 Ry

     iteration #  4     ecut=    42.00 Ry     beta= 0.70
     Davidson diagonalization with overlap
     ethr =  7.53E-05,  avg # of iterations =  8.8

     total cpu time spent up to now is       29.6 secs

     total energy              =    -226.01451043 Ry
     estimated scf accuracy    <       0.01094115 Ry

     iteration #  5     ecut=    42.00 Ry     beta= 0.70
     Davidson diagonalization with overlap
     ethr =  2.19E-05,  avg # of iterations =  2.2

     total cpu time spent up to now is       35.0 secs

     total energy              =    -226.01532450 Ry
     estimated scf accuracy    <       0.00168293 Ry

     iteration #  6     ecut=    42.00 Ry     beta= 0.70
     Davidson diagonalization with overlap
     ethr =  3.37E-06,  avg # of iterations =  5.5

     total cpu time spent up to now is       41.2 secs

     total energy              =    -226.01543029 Ry
     estimated scf accuracy    <       0.00030014 Ry

     iteration #  7     ecut=    42.00 Ry     beta= 0.70
     Davidson diagonalization with overlap
     ethr =  6.00E-07,  avg # of iterations =  2.3

     total cpu time spent up to now is       46.4 secs

     total energy              =    -226.01546911 Ry
     estimated scf accuracy    <       0.00002535 Ry

     iteration #  8     ecut=    42.00 Ry     beta= 0.70
     Davidson diagonalization with overlap
     ethr =  5.07E-08,  avg # of iterations =  3.2

     total cpu time spent up to now is       52.2 secs

     total energy              =    -226.01547763 Ry
     estimated scf accuracy    <       0.00000129 Ry

     iteration #  9     ecut=    42.00 Ry     beta= 0.70
     Davidson diagonalization with overlap
     ethr =  2.58E-09,  avg # of iterations =  3.2

     total cpu time spent up to now is       57.8 secs

     End of self-consistent calculation

     Number of k-points >= 100: set verbosity='high' to print the bands.

     the Fermi energy is    -0.8758 ev

!    total energy              =    -226.01547745 Ry
     estimated scf accuracy    <       0.00000075 Ry
     smearing contrib. (-TS)   =      -0.00000000 Ry
     internal energy E=F+TS    =    -226.01547745 Ry

     The total energy is F=E-TS. E is the sum of the following terms:
     one-electron contribution =    -910.99707825 Ry
     hartree contribution      =     470.40870979 Ry
     xc contribution           =     -61.16251180 Ry
     ewald contribution        =     275.73540280 Ry

     convergence has been achieved in   9 iterations

     Forces acting on atoms (cartesian axes, Ry/au):

     atom    1 type  1   force =     0.00377181   -0.00796606   -0.00524714
     atom    2 type  1   force =     0.00078893    0.00022831    0.00118466
     atom    3 type  1   force =     0.00101912   -0.00078294   -0.00297738
     atom    4 type  2   force =    -0.00173572   -0.00162476    0.00134256
     atom    5 type  2   force =    -0.00453575    0.00230506   -0.00172550
     atom    6 type  2   force =    -0.00592203    0.00407716    0.00722777
     atom    7 type  2   force =     0.00929883   -0.00017729   -0.00106021
     atom    8 type  2   force =    -0.00346325   -0.00197620    0.00549294
     atom    9 type  2   force =     0.00709969    0.00637169    0.00168140
     atom   10 type  3   force =    -0.00357627   -0.00223831   -0.00235443
     atom   11 type  3   force =    -0.00274536    0.00178335   -0.00356467

     Total force =     0.023073     Total SCF correction =     0.001396


     Computing stress (Cartesian axis) and pressure

          total   stress  (Ry/bohr**3)                   (kbar)     P=     -205.15
  -0.00136817  -0.00001235   0.00000930         -201.26       -1.82        1.37
  -0.00001235  -0.00137076  -0.00000610           -1.82     -201.65       -0.90
   0.00000930  -0.00000610  -0.00144477            1.37       -0.90     -212.53


     BFGS Geometry Optimization
     Energy error            =      0.0E+00 Ry
     Gradient error          =      9.3E-03 Ry/Bohr
     Cell gradient error     =      2.0E+02 kbar

     number of scf cycles    =   1
     number of bfgs steps    =   0

     enthalpy           new  =    -226.0154774543 Ry

     new trust radius        =       0.3104852970 bohr
     new conv_thr            =       0.0000010000 Ry

     new unit-cell volume =   1913.94062 a.u.^3 (   283.61674 Ang^3 )
     density =      1.06509 g/cm^3

CELL_PARAMETERS (angstrom)
   4.594540833  -0.128220393   0.000000000
  -2.408364535   4.182481925   0.000000000
   0.000000000   0.000000000  15.000000000

ATOMIC_POSITIONS (angstrom)
Si           -0.5183893231        0.2753639691       -0.1038312040
Si           -3.3463132883        1.9758474838       -1.8311802227
Si            1.3797759709       -2.0918544585       -3.6512230154
O            -1.2849243752        0.8699271873       -4.6802558784
O            -1.8205550729        1.8132098095       -2.2373280680
O             0.6905422768        0.4887119721       -1.2237725296
O             0.9378386532       -0.7241759152       -4.3642480568
O             2.9140974049       -1.9743947297       -3.2409501302
O            -1.1537622522       -1.0941925115       -0.6810869033
H             1.6883355829       -0.1686257774       -4.5538670785
H            -0.5996107807        0.2071645509       -4.6110080760



     Writing config-only to output data dir /lustre/ukt/milias/scratch/QEjob.main.N2.n160.jid5154256/qe.save/
     NEW-OLD atomic charge density approx. for the potential

     Check: negative core charge=   -0.000167

     negative rho (up, down):  9.514E-04 0.000E+00
     extrapolated charge   46.39227, renormalised to   50.00000

     total cpu time spent up to now is       63.2 secs

     per-process dynamical memory:   101.3 Mb

     Self-consistent Calculation

     iteration #  1     ecut=    42.00 Ry     beta= 0.70
     Davidson diagonalization with overlap
     c_bands:  3 eigenvalues not converged
     c_bands:  3 eigenvalues not converged
     c_bands:  3 eigenvalues not converged
     c_bands:  4 eigenvalues not converged
     c_bands:  3 eigenvalues not converged
     c_bands:  3 eigenvalues not converged
     c_bands:  4 eigenvalues not converged
     c_bands:  4 eigenvalues not converged
     c_bands:  3 eigenvalues not converged
     c_bands:  3 eigenvalues not converged
     c_bands:  3 eigenvalues not converged
     c_bands:  3 eigenvalues not converged
     c_bands:  4 eigenvalues not converged
     c_bands:  4 eigenvalues not converged
     c_bands:  5 eigenvalues not converged
     c_bands:  5 eigenvalues not converged
     c_bands:  5 eigenvalues not converged
     c_bands:  4 eigenvalues not converged
     c_bands:  4 eigenvalues not converged
     c_bands:  3 eigenvalues not converged
     c_bands:  4 eigenvalues not converged
     c_bands:  4 eigenvalues not converged
     c_bands:  4 eigenvalues not converged
     c_bands:  4 eigenvalues not converged
     c_bands:  5 eigenvalues not converged
     c_bands:  5 eigenvalues not converged
     c_bands:  4 eigenvalues not converged
     c_bands:  4 eigenvalues not converged
     c_bands:  4 eigenvalues not converged
     c_bands:  5 eigenvalues not converged
     c_bands:  4 eigenvalues not converged
     c_bands:  4 eigenvalues not converged
     c_bands:  4 eigenvalues not converged
     c_bands:  4 eigenvalues not converged
     c_bands:  4 eigenvalues not converged
     c_bands:  4 eigenvalues not converged
     c_bands:  3 eigenvalues not converged
     c_bands:  3 eigenvalues not converged
     c_bands:  3 eigenvalues not converged
     c_bands:  3 eigenvalues not converged
     c_bands:  4 eigenvalues not converged
     c_bands:  3 eigenvalues not converged
     c_bands:  4 eigenvalues not converged
     c_bands:  4 eigenvalues not converged
     c_bands:  4 eigenvalues not converged
     c_bands:  4 eigenvalues not converged
     c_bands:  4 eigenvalues not converged
     c_bands:  3 eigenvalues not converged
     c_bands:  4 eigenvalues not converged
     c_bands:  4 eigenvalues not converged
     c_bands:  4 eigenvalues not converged
     c_bands:  4 eigenvalues not converged
     c_bands:  4 eigenvalues not converged
     c_bands:  4 eigenvalues not converged
     c_bands:  5 eigenvalues not converged
     c_bands:  4 eigenvalues not converged
     c_bands:  4 eigenvalues not converged
     c_bands:  4 eigenvalues not converged
     c_bands:  4 eigenvalues not converged
     c_bands:  5 eigenvalues not converged
     c_bands:  5 eigenvalues not converged
     c_bands:  5 eigenvalues not converged
     c_bands:  5 eigenvalues not converged
     c_bands:  5 eigenvalues not converged
     c_bands:  5 eigenvalues not converged
     c_bands:  5 eigenvalues not converged
     c_bands:  4 eigenvalues not converged
     c_bands:  4 eigenvalues not converged
     c_bands:  4 eigenvalues not converged
     c_bands:  4 eigenvalues not converged
     c_bands:  4 eigenvalues not converged
     c_bands:  4 eigenvalues not converged
     c_bands:  3 eigenvalues not converged
     c_bands:  4 eigenvalues not converged
     c_bands:  5 eigenvalues not converged
     c_bands:  5 eigenvalues not converged
     c_bands:  5 eigenvalues not converged
     c_bands:  5 eigenvalues not converged
     c_bands:  4 eigenvalues not converged
     c_bands:  4 eigenvalues not converged
     c_bands:  4 eigenvalues not converged
     c_bands:  4 eigenvalues not converged
     c_bands:  4 eigenvalues not converged
     c_bands:  4 eigenvalues not converged
     c_bands:  4 eigenvalues not converged
     c_bands:  5 eigenvalues not converged
     c_bands:  5 eigenvalues not converged
     c_bands:  5 eigenvalues not converged
     c_bands:  5 eigenvalues not converged
     c_bands:  4 eigenvalues not converged
     c_bands:  5 eigenvalues not converged
     c_bands:  5 eigenvalues not converged
     c_bands:  3 eigenvalues not converged
     c_bands:  3 eigenvalues not converged
     c_bands:  4 eigenvalues not converged
     c_bands:  4 eigenvalues not converged
     c_bands:  4 eigenvalues not converged
     c_bands:  4 eigenvalues not converged
     c_bands:  4 eigenvalues not converged
     c_bands:  4 eigenvalues not converged
     c_bands:  4 eigenvalues not converged
     c_bands:  5 eigenvalues not converged
     c_bands:  4 eigenvalues not converged
     c_bands:  4 eigenvalues not converged
     c_bands:  4 eigenvalues not converged
     c_bands:  4 eigenvalues not converged
     c_bands:  4 eigenvalues not converged
     c_bands:  5 eigenvalues not converged
     c_bands:  4 eigenvalues not converged
     c_bands:  3 eigenvalues not converged
     c_bands:  3 eigenvalues not converged
     c_bands:  3 eigenvalues not converged
     c_bands:  4 eigenvalues not converged
     c_bands:  4 eigenvalues not converged
     c_bands:  5 eigenvalues not converged
     c_bands:  5 eigenvalues not converged
     c_bands:  4 eigenvalues not converged
     c_bands:  4 eigenvalues not converged
     c_bands:  4 eigenvalues not converged
     c_bands:  4 eigenvalues not converged
     c_bands:  4 eigenvalues not converged
     c_bands:  4 eigenvalues not converged
     c_bands:  5 eigenvalues not converged
     c_bands:  5 eigenvalues not converged
     c_bands:  5 eigenvalues not converged
     c_bands:  5 eigenvalues not converged
     ethr =  1.00E-06,  avg # of iterations = 20.6

     negative rho (up, down):  2.277E-04 0.000E+00

     total cpu time spent up to now is       87.7 secs

     total energy              =    -219.52207093 Ry
     estimated scf accuracy    <       5.53285052 Ry

     iteration #  2     ecut=    42.00 Ry     beta= 0.70
     Davidson diagonalization with overlap
     ethr =  1.00E-02,  avg # of iterations = 10.8

     total cpu time spent up to now is      102.0 secs

     total energy              =    -199.29371168 Ry
     estimated scf accuracy    <     498.66749490 Ry

     iteration #  3     ecut=    42.00 Ry     beta= 0.70
     Davidson diagonalization with overlap
     ethr =  1.00E-02,  avg # of iterations = 10.3

     total cpu time spent up to now is      115.3 secs

     total energy              =    -225.42139219 Ry
     estimated scf accuracy    <       7.40768050 Ry

     iteration #  4     ecut=    42.00 Ry     beta= 0.70
     Davidson diagonalization with overlap
     ethr =  1.00E-02,  avg # of iterations =  2.6

     total cpu time spent up to now is      120.0 secs

     total energy              =    -226.25455373 Ry
     estimated scf accuracy    <       0.83368343 Ry

     iteration #  5     ecut=    42.00 Ry     beta= 0.70
     Davidson diagonalization with overlap
     ethr =  1.67E-03,  avg # of iterations =  3.9

     total cpu time spent up to now is      124.9 secs

     total energy              =    -226.23659136 Ry
     estimated scf accuracy    <       0.44636696 Ry

     iteration #  6     ecut=    42.00 Ry     beta= 0.70
     Davidson diagonalization with overlap
     ethr =  8.93E-04,  avg # of iterations =  2.1

     total cpu time spent up to now is      129.3 secs

     total energy              =    -226.20418423 Ry
     estimated scf accuracy    <       0.27908824 Ry

     iteration #  7     ecut=    42.00 Ry     beta= 0.70
     Davidson diagonalization with overlap
     ethr =  5.58E-04,  avg # of iterations =  2.6

     negative rho (up, down):  5.767E-04 0.000E+00

     total cpu time spent up to now is      134.0 secs

     total energy              =    -226.18083019 Ry
     estimated scf accuracy    <       0.15858766 Ry

     iteration #  8     ecut=    42.00 Ry     beta= 0.70
     Davidson diagonalization with overlap
     ethr =  3.17E-04,  avg # of iterations =  5.0

     negative rho (up, down):  6.519E-03 0.000E+00

     total cpu time spent up to now is      139.6 secs

     total energy              =    -226.16947314 Ry
     estimated scf accuracy    <       0.07416787 Ry

     iteration #  9     ecut=    42.00 Ry     beta= 0.70
     Davidson diagonalization with overlap
     ethr =  1.48E-04,  avg # of iterations =  3.2

     negative rho (up, down):  1.509E-02 0.000E+00

     total cpu time spent up to now is      144.5 secs

     total energy              =    -226.16895774 Ry
     estimated scf accuracy    <       0.02944118 Ry

     iteration # 10     ecut=    42.00 Ry     beta= 0.70
     Davidson diagonalization with overlap
     ethr =  5.89E-05,  avg # of iterations =  3.8

     negative rho (up, down):  2.703E-02 0.000E+00

     total cpu time spent up to now is      149.6 secs

     total energy              =    -226.16572290 Ry
     estimated scf accuracy    <       0.01814223 Ry

     iteration # 11     ecut=    42.00 Ry     beta= 0.70
     Davidson diagonalization with overlap
     ethr =  3.63E-05,  avg # of iterations =  4.4

     negative rho (up, down):  1.893E-03 0.000E+00

     total cpu time spent up to now is      154.9 secs

     total energy              =    -226.16163263 Ry
     estimated scf accuracy    <       0.00765388 Ry

     iteration # 12     ecut=    42.00 Ry     beta= 0.70
     Davidson diagonalization with overlap
     ethr =  1.53E-05,  avg # of iterations = 10.3

     negative rho (up, down):  3.728E-04 0.000E+00

     total cpu time spent up to now is      163.6 secs

     total energy              =    -226.16275638 Ry
     estimated scf accuracy    <       0.00349076 Ry

     iteration # 13     ecut=    42.00 Ry     beta= 0.70
     Davidson diagonalization with overlap
     c_bands:  1 eigenvalues not converged
     ethr =  6.98E-06,  avg # of iterations =  6.9

     negative rho (up, down):  5.838E-06 0.000E+00

     total cpu time spent up to now is      171.3 secs

     total energy              =    -226.16338477 Ry
     estimated scf accuracy    <       0.00012102 Ry

     iteration # 14     ecut=    42.00 Ry     beta= 0.70
     Davidson diagonalization with overlap
     ethr =  2.42E-07,  avg # of iterations =  3.6

     total cpu time spent up to now is      177.3 secs

     total energy              =    -226.16341709 Ry
     estimated scf accuracy    <       0.00001156 Ry

     iteration # 15     ecut=    42.00 Ry     beta= 0.70
     Davidson diagonalization with overlap
     ethr =  2.31E-08,  avg # of iterations =  2.0

     total cpu time spent up to now is      182.3 secs

     End of self-consistent calculation

     Number of k-points >= 100: set verbosity='high' to print the bands.

     the Fermi energy is    -0.4742 ev

!    total energy              =    -226.16341892 Ry
     estimated scf accuracy    <       0.00000089 Ry
     smearing contrib. (-TS)   =      -0.00000000 Ry
     internal energy E=F+TS    =    -226.16341892 Ry

     The total energy is F=E-TS. E is the sum of the following terms:
     one-electron contribution =    -964.81106084 Ry
     hartree contribution      =     497.68695636 Ry
     xc contribution           =     -61.65789061 Ry
     ewald contribution        =     302.61857617 Ry

     convergence has been achieved in  15 iterations

     Forces acting on atoms (cartesian axes, Ry/au):

     atom    1 type  1   force =    -0.00088018    0.03455208    0.04465635
     atom    2 type  1   force =    -0.02035816    0.02187472   -0.00573354
     atom    3 type  1   force =    -0.02908363   -0.01414153    0.00921461
     atom    4 type  2   force =    -0.04864755    0.01057412   -0.02446280
     atom    5 type  2   force =     0.04990443   -0.00802244   -0.00686271
     atom    6 type  2   force =     0.00000222   -0.03975137    0.00385142
     atom    7 type  2   force =    -0.06076890    0.00668474   -0.00733403
     atom    8 type  2   force =     0.04719317    0.00825699    0.00801722
     atom    9 type  2   force =    -0.02542268   -0.01612480    0.00131870
     atom   10 type  3   force =     0.04846943    0.04178116   -0.01917927
     atom   11 type  3   force =     0.03959185   -0.04568368   -0.00348594

     Total force =     0.166456     Total SCF correction =     0.002201


     Computing stress (Cartesian axis) and pressure

          total   stress  (Ry/bohr**3)                   (kbar)     P=     -136.12
  -0.00074659   0.00004317  -0.00001659         -109.83        6.35       -2.44
   0.00004317  -0.00076935  -0.00000881            6.35     -113.17       -1.30
  -0.00001659  -0.00000881  -0.00126010           -2.44       -1.30     -185.37

     Energy error            =      1.5E-01 Ry
     Gradient error          =      6.1E-02 Ry/Bohr
     Cell gradient error     =      1.1E+02 kbar

     number of scf cycles    =   2
     number of bfgs steps    =   1

     enthalpy           old  =    -226.0154774543 Ry
     enthalpy           new  =    -226.1634189220 Ry

     CASE: enthalpy          _new < enthalpy          _old

     new trust radius        =       0.3415472687 bohr
     new conv_thr            =       0.0000006077 Ry

     new unit-cell volume =   1768.90904 a.u.^3 (   262.12528 Ang^3 )
     density =      1.15242 g/cm^3

CELL_PARAMETERS (angstrom)
   4.418632093  -0.117515572   0.000000000
  -2.311046646   4.016311380   0.000000000
   0.000000000   0.000000000  15.000000000

ATOMIC_POSITIONS (angstrom)
Si           -0.4979997185        0.2835114977       -0.0745121985
Si           -3.2281391257        1.9080038897       -1.8348360244
Si            1.3068140094       -2.0173307059       -3.6455756571
O            -1.2647735429        0.8405105049       -4.6966422629
O            -1.7190517636        1.7357804057       -2.2423715927
O             0.6635524666        0.4470241709       -1.2196124141
O             0.8657506444       -0.6907322400       -4.3694714618
O             2.8283481318       -1.8890741897       -3.2343195134
O            -1.1251344196       -1.0615356655       -0.6798310300
H             1.6524874941       -0.1348540938       -4.5674380202
H            -0.5527717223        0.1708009834       -4.6141409877



     Writing config-only to output data dir /lustre/ukt/milias/scratch/QEjob.main.N2.n160.jid5154256/qe.save/
     NEW-OLD atomic charge density approx. for the potential

     Check: negative core charge=   -0.000138

     negative rho (up, down):  1.081E-03 0.000E+00
     extrapolated charge   45.90069, renormalised to   50.00000

     total cpu time spent up to now is      187.6 secs

     per-process dynamical memory:   102.3 Mb

     Self-consistent Calculation

     iteration #  1     ecut=    42.00 Ry     beta= 0.70
     Davidson diagonalization with overlap
     c_bands:  4 eigenvalues not converged
     c_bands:  4 eigenvalues not converged
     c_bands:  4 eigenvalues not converged
     c_bands:  4 eigenvalues not converged
     c_bands:  5 eigenvalues not converged
     c_bands:  5 eigenvalues not converged
     c_bands:  4 eigenvalues not converged
     c_bands:  4 eigenvalues not converged
     c_bands:  4 eigenvalues not converged
     c_bands:  3 eigenvalues not converged
     c_bands:  5 eigenvalues not converged
     c_bands:  5 eigenvalues not converged
     c_bands:  4 eigenvalues not converged
     c_bands:  4 eigenvalues not converged
     c_bands:  5 eigenvalues not converged
     c_bands:  5 eigenvalues not converged
     c_bands:  5 eigenvalues not converged
     c_bands:  5 eigenvalues not converged
     c_bands:  5 eigenvalues not converged
     c_bands:  4 eigenvalues not converged
     c_bands:  4 eigenvalues not converged
     c_bands:  5 eigenvalues not converged
     c_bands:  5 eigenvalues not converged
     c_bands:  5 eigenvalues not converged
     c_bands:  4 eigenvalues not converged
     c_bands:  5 eigenvalues not converged
     c_bands:  4 eigenvalues not converged
     c_bands:  4 eigenvalues not converged
     c_bands:  4 eigenvalues not converged
     c_bands:  4 eigenvalues not converged
     c_bands:  5 eigenvalues not converged
     c_bands:  5 eigenvalues not converged
     c_bands:  4 eigenvalues not converged
     c_bands:  4 eigenvalues not converged
     c_bands:  4 eigenvalues not converged
     c_bands:  5 eigenvalues not converged
     c_bands:  5 eigenvalues not converged
     c_bands:  5 eigenvalues not converged
     c_bands:  4 eigenvalues not converged
     c_bands:  4 eigenvalues not converged
     c_bands:  4 eigenvalues not converged
     c_bands:  4 eigenvalues not converged
     c_bands:  4 eigenvalues not converged
     c_bands:  4 eigenvalues not converged
     c_bands:  3 eigenvalues not converged
     c_bands:  5 eigenvalues not converged
     c_bands:  5 eigenvalues not converged
     c_bands:  5 eigenvalues not converged
     c_bands:  5 eigenvalues not converged
     c_bands:  5 eigenvalues not converged
     c_bands:  4 eigenvalues not converged
     c_bands:  5 eigenvalues not converged
     c_bands:  4 eigenvalues not converged
     c_bands:  4 eigenvalues not converged
     c_bands:  4 eigenvalues not converged
     c_bands:  4 eigenvalues not converged
     c_bands:  5 eigenvalues not converged
     c_bands:  5 eigenvalues not converged
     c_bands:  4 eigenvalues not converged
     c_bands:  4 eigenvalues not converged
     c_bands:  5 eigenvalues not converged
     c_bands:  5 eigenvalues not converged
     c_bands:  5 eigenvalues not converged
     c_bands:  5 eigenvalues not converged
     c_bands:  4 eigenvalues not converged
     c_bands:  3 eigenvalues not converged
     c_bands:  4 eigenvalues not converged
     c_bands:  5 eigenvalues not converged
     c_bands:  5 eigenvalues not converged
     c_bands:  5 eigenvalues not converged
     c_bands:  5 eigenvalues not converged
     c_bands:  4 eigenvalues not converged
     c_bands:  5 eigenvalues not converged
     c_bands:  5 eigenvalues not converged
     c_bands:  5 eigenvalues not converged
     c_bands:  5 eigenvalues not converged
     c_bands:  5 eigenvalues not converged
     c_bands:  5 eigenvalues not converged
     c_bands:  5 eigenvalues not converged
     c_bands:  5 eigenvalues not converged
     c_bands:  5 eigenvalues not converged
     c_bands:  5 eigenvalues not converged
     c_bands:  5 eigenvalues not converged
     c_bands:  5 eigenvalues not converged
     c_bands:  4 eigenvalues not converged
     c_bands:  4 eigenvalues not converged
     c_bands:  4 eigenvalues not converged
     c_bands:  4 eigenvalues not converged
     c_bands:  4 eigenvalues not converged
     c_bands:  3 eigenvalues not converged
     c_bands:  4 eigenvalues not converged
     c_bands:  4 eigenvalues not converged
     c_bands:  4 eigenvalues not converged
     c_bands:  4 eigenvalues not converged
     c_bands:  4 eigenvalues not converged
     c_bands:  5 eigenvalues not converged
     c_bands:  5 eigenvalues not converged
     c_bands:  5 eigenvalues not converged
     c_bands:  5 eigenvalues not converged
     c_bands:  3 eigenvalues not converged
     c_bands:  3 eigenvalues not converged
     c_bands:  3 eigenvalues not converged
     c_bands:  4 eigenvalues not converged
     c_bands:  5 eigenvalues not converged
     c_bands:  5 eigenvalues not converged
     c_bands:  5 eigenvalues not converged
     c_bands:  5 eigenvalues not converged
     c_bands:  5 eigenvalues not converged
     c_bands:  5 eigenvalues not converged
     c_bands:  5 eigenvalues not converged
     ethr =  1.00E-06,  avg # of iterations = 20.9

     negative rho (up, down):  2.808E-04 0.000E+00

     total cpu time spent up to now is      212.8 secs

     total energy              =    -218.20352058 Ry
     estimated scf accuracy    <       6.74315612 Ry

     iteration #  2     ecut=    42.00 Ry     beta= 0.70
     Davidson diagonalization with overlap
     ethr =  1.00E-02,  avg # of iterations = 11.2

     total cpu time spent up to now is      228.3 secs

     total energy              =    -192.59214592 Ry
     estimated scf accuracy    <     648.52931926 Ry

     iteration #  3     ecut=    42.00 Ry     beta= 0.70
     Davidson diagonalization with overlap
     ethr =  1.00E-02,  avg # of iterations = 10.8

     total cpu time spent up to now is      242.0 secs

     total energy              =    -224.18739727 Ry
     estimated scf accuracy    <      16.29495868 Ry

     iteration #  4     ecut=    42.00 Ry     beta= 0.70
     Davidson diagonalization with overlap
     ethr =  1.00E-02,  avg # of iterations =  3.3

     total cpu time spent up to now is      247.5 secs

     total energy              =    -226.35117188 Ry
     estimated scf accuracy    <       1.40356020 Ry

     iteration #  5     ecut=    42.00 Ry     beta= 0.70
     Davidson diagonalization with overlap
     ethr =  2.81E-03,  avg # of iterations =  1.8

     total cpu time spent up to now is      251.6 secs

     total energy              =    -226.36069726 Ry
     estimated scf accuracy    <       0.53631817 Ry

     iteration #  6     ecut=    42.00 Ry     beta= 0.70
     Davidson diagonalization with overlap
     ethr =  1.07E-03,  avg # of iterations =  3.6

     total cpu time spent up to now is      256.5 secs

     total energy              =    -226.31162746 Ry
     estimated scf accuracy    <       0.35700985 Ry

     iteration #  7     ecut=    42.00 Ry     beta= 0.70
     Davidson diagonalization with overlap
     ethr =  7.14E-04,  avg # of iterations =  3.4

     negative rho (up, down):  2.205E-03 0.000E+00

     total cpu time spent up to now is      261.4 secs

     total energy              =    -226.29226114 Ry
     estimated scf accuracy    <       0.18680081 Ry

     iteration #  8     ecut=    42.00 Ry     beta= 0.70
     Davidson diagonalization with overlap
     ethr =  3.74E-04,  avg # of iterations =  4.4

     negative rho (up, down):  7.352E-03 0.000E+00

     total cpu time spent up to now is      266.5 secs

     total energy              =    -226.27410952 Ry
     estimated scf accuracy    <       0.10447969 Ry

     iteration #  9     ecut=    42.00 Ry     beta= 0.70
     Davidson diagonalization with overlap
     ethr =  2.09E-04,  avg # of iterations =  3.4

     negative rho (up, down):  9.432E-03 0.000E+00

     total cpu time spent up to now is      271.4 secs

     total energy              =    -226.27374712 Ry
     estimated scf accuracy    <       0.04297339 Ry

     iteration # 10     ecut=    42.00 Ry     beta= 0.70
     Davidson diagonalization with overlap
     ethr =  8.59E-05,  avg # of iterations =  2.5

     negative rho (up, down):  2.797E-02 0.000E+00

     total cpu time spent up to now is      276.8 secs

     total energy              =    -226.26575456 Ry
     estimated scf accuracy    <       0.03043567 Ry

     iteration # 11     ecut=    42.00 Ry     beta= 0.70
     Davidson diagonalization with overlap
     ethr =  6.09E-05,  avg # of iterations =  5.2

     negative rho (up, down):  3.223E-03 0.000E+00

     total cpu time spent up to now is      282.5 secs

     total energy              =    -226.26527210 Ry
     estimated scf accuracy    <       0.00868119 Ry

     iteration # 12     ecut=    42.00 Ry     beta= 0.70
     Davidson diagonalization with overlap
     ethr =  1.74E-05,  avg # of iterations = 10.6

     negative rho (up, down):  3.217E-04 0.000E+00

     total cpu time spent up to now is      291.8 secs

     total energy              =    -226.25996996 Ry
     estimated scf accuracy    <       0.02564244 Ry

     iteration # 13     ecut=    42.00 Ry     beta= 0.70
     Davidson diagonalization with overlap
     ethr =  1.74E-05,  avg # of iterations =  9.5

     negative rho (up, down):  2.995E-06 0.000E+00

     total cpu time spent up to now is      300.1 secs

     total energy              =    -226.26473112 Ry
     estimated scf accuracy    <       0.00041365 Ry

     iteration # 14     ecut=    42.00 Ry     beta= 0.70
     Davidson diagonalization with overlap
     ethr =  8.27E-07,  avg # of iterations =  4.2

     total cpu time spent up to now is      306.2 secs

     total energy              =    -226.26487036 Ry
     estimated scf accuracy    <       0.00006138 Ry

     iteration # 15     ecut=    42.00 Ry     beta= 0.70
     Davidson diagonalization with overlap
     ethr =  1.23E-07,  avg # of iterations =  2.0

     total cpu time spent up to now is      311.1 secs

     total energy              =    -226.26487856 Ry
     estimated scf accuracy    <       0.00000375 Ry

     iteration # 16     ecut=    42.00 Ry     beta= 0.70
     Davidson diagonalization with overlap
     ethr =  7.50E-09,  avg # of iterations =  2.4

     total cpu time spent up to now is      316.5 secs

     End of self-consistent calculation

     Number of k-points >= 100: set verbosity='high' to print the bands.

     the Fermi energy is     0.0299 ev

!    total energy              =    -226.26487945 Ry
     estimated scf accuracy    <       0.00000029 Ry
     smearing contrib. (-TS)   =      -0.00000000 Ry
     internal energy E=F+TS    =    -226.26487945 Ry

     The total energy is F=E-TS. E is the sum of the following terms:
     one-electron contribution =   -1023.66520732 Ry
     hartree contribution      =     527.79513780 Ry
     xc contribution           =     -61.98574006 Ry
     ewald contribution        =     331.59093012 Ry

     convergence has been achieved in  16 iterations

     Forces acting on atoms (cartesian axes, Ry/au):

     atom    1 type  1   force =    -0.00686821    0.04256805    0.06433029
     atom    2 type  1   force =     0.00175127   -0.00024034    0.00035207
     atom    3 type  1   force =    -0.01270607   -0.00638468   -0.00189533
     atom    4 type  2   force =    -0.02105742   -0.05523797   -0.04540757
     atom    5 type  2   force =     0.05071716   -0.02316159    0.03534671
     atom    6 type  2   force =     0.00669430   -0.06269199    0.00239966
     atom    7 type  2   force =    -0.02821304    0.08144943   -0.03384792
     atom    8 type  2   force =     0.03903538    0.02262074   -0.03605850
     atom    9 type  2   force =    -0.04912366    0.00869324    0.03763210
     atom   10 type  3   force =     0.00794277    0.01690647   -0.01205085
     atom   11 type  3   force =     0.01182751   -0.02452135   -0.01080067

     Total force =     0.193055     Total SCF correction =     0.001024


     Computing stress (Cartesian axis) and pressure

          total   stress  (Ry/bohr**3)                   (kbar)     P=      -70.78
  -0.00028073   0.00005996  -0.00004105          -41.30        8.82       -6.04
   0.00005996  -0.00021600   0.00000275            8.82      -31.77        0.41
  -0.00004105   0.00000275  -0.00094671           -6.04        0.41     -139.27

     Energy error            =      1.0E-01 Ry
     Gradient error          =      8.1E-02 Ry/Bohr
     Cell gradient error     =      4.1E+01 kbar

     number of scf cycles    =   3
     number of bfgs steps    =   2

     enthalpy           old  =    -226.1634189220 Ry
     enthalpy           new  =    -226.2648794537 Ry

     CASE: enthalpy          _new < enthalpy          _old

     new trust radius        =       0.3616710527 bohr
     new conv_thr            =       0.0000008145 Ry

     new unit-cell volume =   1624.24613 a.u.^3 (   240.68844 Ang^3 )
     density =      1.25506 g/cm^3

CELL_PARAMETERS (angstrom)
   4.228762833  -0.099412714   0.000000000
  -2.199772283   3.846179674   0.000000000
   0.000000000   0.000000000  15.000000000

ATOMIC_POSITIONS (angstrom)
Si           -0.4798741195        0.3086513799       -0.0054780381
Si           -3.0878332604        1.8264540875       -1.8359651345
Si            1.2278938016       -1.9401278797       -3.6452386570
O            -1.2368896512        0.7646051881       -4.7438556485
O            -1.5911238356        1.6418957542       -2.2138426340
O             0.6395479256        0.3756762417       -1.2142432538
O             0.7924919541       -0.5991729183       -4.4018742537
O             2.7415014943       -1.7854407845       -3.2620436970
O            -1.1207800613       -1.0183558845       -0.6457809157
H             1.5990799008       -0.1014388722       -4.5846733914
H            -0.5102347981        0.1326983352       -4.6257555392



     Writing config-only to output data dir /lustre/ukt/milias/scratch/QEjob.main.N2.n160.jid5154256/qe.save/
     NEW-OLD atomic charge density approx. for the potential

     Check: negative core charge=   -0.000114

     negative rho (up, down):  1.538E-03 0.000E+00
     extrapolated charge   45.54694, renormalised to   50.00000

     total cpu time spent up to now is      321.8 secs

     per-process dynamical memory:   102.3 Mb

     Self-consistent Calculation

     iteration #  1     ecut=    42.00 Ry     beta= 0.70
     Davidson diagonalization with overlap
     c_bands:  4 eigenvalues not converged
     c_bands:  5 eigenvalues not converged
     c_bands:  4 eigenvalues not converged
     c_bands:  4 eigenvalues not converged
     c_bands:  4 eigenvalues not converged
     c_bands:  4 eigenvalues not converged
     c_bands:  4 eigenvalues not converged
     c_bands:  4 eigenvalues not converged
     c_bands:  4 eigenvalues not converged
     c_bands:  4 eigenvalues not converged
     c_bands:  4 eigenvalues not converged
     c_bands:  4 eigenvalues not converged
     c_bands:  5 eigenvalues not converged
     c_bands:  5 eigenvalues not converged
     c_bands:  5 eigenvalues not converged
     c_bands:  5 eigenvalues not converged
     c_bands:  5 eigenvalues not converged
     c_bands:  5 eigenvalues not converged
     c_bands:  4 eigenvalues not converged
     c_bands:  3 eigenvalues not converged
     c_bands:  5 eigenvalues not converged
     c_bands:  5 eigenvalues not converged
     c_bands:  5 eigenvalues not converged
     c_bands:  5 eigenvalues not converged
     c_bands:  5 eigenvalues not converged
     c_bands:  5 eigenvalues not converged
     c_bands:  4 eigenvalues not converged
     c_bands:  5 eigenvalues not converged
     c_bands:  4 eigenvalues not converged
     c_bands:  5 eigenvalues not converged
     c_bands:  5 eigenvalues not converged
     c_bands:  4 eigenvalues not converged
     c_bands:  4 eigenvalues not converged
     c_bands:  4 eigenvalues not converged
     c_bands:  4 eigenvalues not converged
     c_bands:  4 eigenvalues not converged
     c_bands:  4 eigenvalues not converged
     c_bands:  4 eigenvalues not converged
     c_bands:  4 eigenvalues not converged
     c_bands:  4 eigenvalues not converged
     c_bands:  4 eigenvalues not converged
     c_bands:  4 eigenvalues not converged
     c_bands:  4 eigenvalues not converged
     c_bands:  5 eigenvalues not converged
     c_bands:  5 eigenvalues not converged
     c_bands:  5 eigenvalues not converged
     c_bands:  5 eigenvalues not converged
     c_bands:  5 eigenvalues not converged
     c_bands:  5 eigenvalues not converged
     c_bands:  5 eigenvalues not converged
     c_bands:  5 eigenvalues not converged
     c_bands:  5 eigenvalues not converged
     c_bands:  5 eigenvalues not converged
     c_bands:  4 eigenvalues not converged
     c_bands:  5 eigenvalues not converged
     c_bands:  4 eigenvalues not converged
     c_bands:  5 eigenvalues not converged
     c_bands:  5 eigenvalues not converged
     c_bands:  4 eigenvalues not converged
     c_bands:  5 eigenvalues not converged
     c_bands:  5 eigenvalues not converged
     c_bands:  4 eigenvalues not converged
     c_bands:  4 eigenvalues not converged
     c_bands:  4 eigenvalues not converged
     c_bands:  4 eigenvalues not converged
     c_bands:  4 eigenvalues not converged
     c_bands:  4 eigenvalues not converged
     c_bands:  4 eigenvalues not converged
     c_bands:  4 eigenvalues not converged
     c_bands:  4 eigenvalues not converged
     c_bands:  4 eigenvalues not converged
     c_bands:  4 eigenvalues not converged
     c_bands:  5 eigenvalues not converged
     c_bands:  5 eigenvalues not converged
     c_bands:  3 eigenvalues not converged
     c_bands:  5 eigenvalues not converged
     c_bands:  5 eigenvalues not converged
     c_bands:  5 eigenvalues not converged
     c_bands:  5 eigenvalues not converged
     c_bands:  5 eigenvalues not converged
     c_bands:  5 eigenvalues not converged
     c_bands:  5 eigenvalues not converged
     c_bands:  4 eigenvalues not converged
     c_bands:  4 eigenvalues not converged
     c_bands:  5 eigenvalues not converged
     c_bands:  5 eigenvalues not converged
     c_bands:  5 eigenvalues not converged
     c_bands:  5 eigenvalues not converged
     c_bands:  5 eigenvalues not converged
     c_bands:  5 eigenvalues not converged
     c_bands:  5 eigenvalues not converged
     c_bands:  5 eigenvalues not converged
     c_bands:  5 eigenvalues not converged
     c_bands:  5 eigenvalues not converged
     c_bands:  5 eigenvalues not converged
     c_bands:  5 eigenvalues not converged
     c_bands:  5 eigenvalues not converged
     c_bands:  5 eigenvalues not converged
     ethr =  1.00E-06,  avg # of iterations = 22.5

     negative rho (up, down):  4.360E-04 0.000E+00

     total cpu time spent up to now is      350.7 secs

     total energy              =    -216.38476176 Ry
     estimated scf accuracy    <       8.47654511 Ry

     iteration #  2     ecut=    42.00 Ry     beta= 0.70
     Davidson diagonalization with overlap
     ethr =  1.00E-02,  avg # of iterations = 11.3

     total cpu time spent up to now is      366.7 secs

     total energy              =    -184.11738153 Ry
     estimated scf accuracy    <     845.86287994 Ry

     iteration #  3     ecut=    42.00 Ry     beta= 0.70
     Davidson diagonalization with overlap
     ethr =  1.00E-02,  avg # of iterations = 10.3

     total cpu time spent up to now is      380.4 secs

     total energy              =    -222.76044746 Ry
     estimated scf accuracy    <      29.05027311 Ry

     iteration #  4     ecut=    42.00 Ry     beta= 0.70
     Davidson diagonalization with overlap
     ethr =  1.00E-02,  avg # of iterations =  3.9

     total cpu time spent up to now is      386.5 secs

     total energy              =    -225.94022599 Ry
     estimated scf accuracy    <       6.13155385 Ry

     iteration #  5     ecut=    42.00 Ry     beta= 0.70
     Davidson diagonalization with overlap
     ethr =  1.00E-02,  avg # of iterations =  1.1

     total cpu time spent up to now is      390.4 secs

     total energy              =    -226.45122552 Ry
     estimated scf accuracy    <       0.78356301 Ry

     iteration #  6     ecut=    42.00 Ry     beta= 0.70
     Davidson diagonalization with overlap
     ethr =  1.57E-03,  avg # of iterations =  3.7

     total cpu time spent up to now is      395.3 secs

     total energy              =    -226.42764785 Ry
     estimated scf accuracy    <       0.47680165 Ry

     iteration #  7     ecut=    42.00 Ry     beta= 0.70
     Davidson diagonalization with overlap
     ethr =  9.54E-04,  avg # of iterations =  2.3

     total cpu time spent up to now is      399.9 secs

     total energy              =    -226.39229763 Ry
     estimated scf accuracy    <       0.34394143 Ry

     iteration #  8     ecut=    42.00 Ry     beta= 0.70
     Davidson diagonalization with overlap
     ethr =  6.88E-04,  avg # of iterations =  2.8

     negative rho (up, down):  7.403E-03 0.000E+00

     total cpu time spent up to now is      404.8 secs

     total energy              =    -226.35226753 Ry
     estimated scf accuracy    <       0.22271966 Ry

     iteration #  9     ecut=    42.00 Ry     beta= 0.70
     Davidson diagonalization with overlap
     ethr =  4.45E-04,  avg # of iterations =  5.1

     negative rho (up, down):  7.205E-03 0.000E+00

     total cpu time spent up to now is      410.3 secs

     total energy              =    -226.34369365 Ry
     estimated scf accuracy    <       0.10236728 Ry

     iteration # 10     ecut=    42.00 Ry     beta= 0.70
     Davidson diagonalization with overlap
     ethr =  2.05E-04,  avg # of iterations =  2.3

     negative rho (up, down):  3.458E-02 0.000E+00

     total cpu time spent up to now is      415.0 secs

     total energy              =    -226.32868876 Ry
     estimated scf accuracy    <       0.05958695 Ry

     iteration # 11     ecut=    42.00 Ry     beta= 0.70
     Davidson diagonalization with overlap
     ethr =  1.19E-04,  avg # of iterations =  5.6

     negative rho (up, down):  3.694E-02 0.000E+00

     total cpu time spent up to now is      421.0 secs

     total energy              =    -226.33899063 Ry
     estimated scf accuracy    <       0.01655194 Ry

     iteration # 12     ecut=    42.00 Ry     beta= 0.70
     Davidson diagonalization with overlap
     ethr =  3.31E-05,  avg # of iterations =  5.3

     negative rho (up, down):  9.589E-04 0.000E+00

     total cpu time spent up to now is      427.8 secs

     total energy              =    -226.32240360 Ry
     estimated scf accuracy    <       0.03083203 Ry

     iteration # 13     ecut=    42.00 Ry     beta= 0.70
     Davidson diagonalization with overlap
     ethr =  3.31E-05,  avg # of iterations =  9.8

     negative rho (up, down):  5.667E-04 0.000E+00

     total cpu time spent up to now is      436.5 secs

     total energy              =    -226.32691635 Ry
     estimated scf accuracy    <       0.00319135 Ry

     iteration # 14     ecut=    42.00 Ry     beta= 0.70
     Davidson diagonalization with overlap
     c_bands:  1 eigenvalues not converged
     ethr =  6.38E-06,  avg # of iterations =  6.8

     negative rho (up, down):  2.826E-04 0.000E+00

     total cpu time spent up to now is      444.4 secs

     total energy              =    -226.32744125 Ry
     estimated scf accuracy    <       0.00058623 Ry

     iteration # 15     ecut=    42.00 Ry     beta= 0.70
     Davidson diagonalization with overlap
     ethr =  1.17E-06,  avg # of iterations =  4.6

     negative rho (up, down):  1.245E-04 0.000E+00

     total cpu time spent up to now is      450.4 secs

     total energy              =    -226.32747910 Ry
     estimated scf accuracy    <       0.00014217 Ry

     iteration # 16     ecut=    42.00 Ry     beta= 0.70
     Davidson diagonalization with overlap
     ethr =  2.84E-07,  avg # of iterations =  2.2

     total cpu time spent up to now is      455.2 secs

     total energy              =    -226.32748704 Ry
     estimated scf accuracy    <       0.00002448 Ry

     iteration # 17     ecut=    42.00 Ry     beta= 0.70
     Davidson diagonalization with overlap
     ethr =  4.90E-08,  avg # of iterations =  2.0

     total cpu time spent up to now is      460.5 secs

     total energy              =    -226.32749314 Ry
     estimated scf accuracy    <       0.00000085 Ry

     iteration # 18     ecut=    42.00 Ry     beta= 0.70
     Davidson diagonalization with overlap
     ethr =  1.70E-09,  avg # of iterations =  3.3

     total cpu time spent up to now is      466.3 secs

     End of self-consistent calculation

     Number of k-points >= 100: set verbosity='high' to print the bands.

     the Fermi energy is     0.5760 ev

!    total energy              =    -226.32749322 Ry
     estimated scf accuracy    <       0.00000027 Ry
     smearing contrib. (-TS)   =      -0.00000000 Ry
     internal energy E=F+TS    =    -226.32749322 Ry

     The total energy is F=E-TS. E is the sum of the following terms:
     one-electron contribution =   -1075.84056460 Ry
     hartree contribution      =     554.70945773 Ry
     xc contribution           =     -62.17503660 Ry
     ewald contribution        =     356.97865025 Ry

     convergence has been achieved in  18 iterations

     Forces acting on atoms (cartesian axes, Ry/au):

     atom    1 type  1   force =     0.00077865    0.03145586    0.05034328
     atom    2 type  1   force =    -0.02426273   -0.00149523    0.03166070
     atom    3 type  1   force =    -0.04263777    0.00852063   -0.07904573
     atom    4 type  2   force =    -0.04245467    0.00923251   -0.01815005
     atom    5 type  2   force =     0.07089711   -0.02768175    0.04277263
     atom    6 type  2   force =     0.01130264   -0.05066710    0.00580245
     atom    7 type  2   force =    -0.04384284    0.00516074    0.00456102
     atom    8 type  2   force =     0.05553187    0.02629774   -0.04518040
     atom    9 type  2   force =    -0.06395634    0.00471253    0.04709469
     atom   10 type  3   force =     0.04215927    0.04382215   -0.02568952
     atom   11 type  3   force =     0.03648481   -0.04935809   -0.01416908

     Total force =     0.219698     Total SCF correction =     0.000693


     Computing stress (Cartesian axis) and pressure

          total   stress  (Ry/bohr**3)                   (kbar)     P=      -17.98
   0.00035128   0.00007127  -0.00008447           51.68       10.48      -12.43
   0.00007127   0.00014835  -0.00004471           10.48       21.82       -6.58
  -0.00008447  -0.00004471  -0.00086623          -12.43       -6.58     -127.43

     Energy error            =      6.3E-02 Ry
     Gradient error          =      7.9E-02 Ry/Bohr
     Cell gradient error     =      5.2E+01 kbar

     number of scf cycles    =   4
     number of bfgs steps    =   3

     enthalpy           old  =    -226.2648794537 Ry
     enthalpy           new  =    -226.3274932236 Ry

     CASE: enthalpy          _new < enthalpy          _old

     new trust radius        =       0.1980054026 bohr
     new conv_thr            =       0.0000007905 Ry

     new unit-cell volume =   1554.28681 a.u.^3 (   230.32154 Ang^3 )
     density =      1.31155 g/cm^3

CELL_PARAMETERS (angstrom)
   4.147126259  -0.081890896   0.000000000
  -2.143952967   3.744843717   0.000000000
   0.000000000   0.000000000  15.000000000

ATOMIC_POSITIONS (angstrom)
Si           -0.4703394933        0.3305586447        0.0575273687
Si           -3.0350047939        1.7715040994       -1.8149507501
Si            1.1695406010       -1.8878711389       -3.6985413853
O            -1.2432776176        0.7270192886       -4.7769682907
O            -1.4988048541        1.5747391707       -2.1712991733
O             0.6346967872        0.3196090367       -1.2069551648
O             0.7415014235       -0.5507567548       -4.4143467441
O             2.7270715421       -1.7104104647       -3.3052972037
O            -1.1525944762       -0.9921284698       -0.5977632672
H             1.5949581476       -0.0625126232       -4.6090467878
H            -0.4756299692        0.0916173967       -4.6411097645



     Writing config-only to output data dir /lustre/ukt/milias/scratch/QEjob.main.N2.n160.jid5154256/qe.save/
     NEW-OLD atomic charge density approx. for the potential

     Check: negative core charge=   -0.000105

     negative rho (up, down):  1.011E-03 0.000E+00
     extrapolated charge   47.74956, renormalised to   50.00000

     total cpu time spent up to now is      471.5 secs

     per-process dynamical memory:   102.3 Mb

     Self-consistent Calculation

     iteration #  1     ecut=    42.00 Ry     beta= 0.70
     Davidson diagonalization with overlap
     c_bands:  2 eigenvalues not converged
     c_bands:  2 eigenvalues not converged
     c_bands:  2 eigenvalues not converged
     c_bands:  2 eigenvalues not converged
     c_bands:  2 eigenvalues not converged
     c_bands:  2 eigenvalues not converged
     c_bands:  2 eigenvalues not converged
     c_bands:  2 eigenvalues not converged
     c_bands:  2 eigenvalues not converged
     c_bands:  2 eigenvalues not converged
     c_bands:  2 eigenvalues not converged
     c_bands:  2 eigenvalues not converged
     c_bands:  2 eigenvalues not converged
     c_bands:  2 eigenvalues not converged
     c_bands:  2 eigenvalues not converged
     c_bands:  2 eigenvalues not converged
     c_bands:  2 eigenvalues not converged
     c_bands:  2 eigenvalues not converged
     c_bands:  3 eigenvalues not converged
     c_bands:  2 eigenvalues not converged
     c_bands:  2 eigenvalues not converged
     c_bands:  2 eigenvalues not converged
     c_bands:  2 eigenvalues not converged
     c_bands:  2 eigenvalues not converged
     c_bands:  3 eigenvalues not converged
     c_bands:  3 eigenvalues not converged
     c_bands:  3 eigenvalues not converged
     c_bands:  2 eigenvalues not converged
     c_bands:  1 eigenvalues not converged
     c_bands:  1 eigenvalues not converged
     c_bands:  4 eigenvalues not converged
     c_bands:  4 eigenvalues not converged
     c_bands:  3 eigenvalues not converged
     c_bands:  3 eigenvalues not converged
     c_bands:  3 eigenvalues not converged
     c_bands:  3 eigenvalues not converged
     c_bands:  2 eigenvalues not converged
     c_bands:  2 eigenvalues not converged
     c_bands:  2 eigenvalues not converged
     c_bands:  2 eigenvalues not converged
     c_bands:  2 eigenvalues not converged
     c_bands:  2 eigenvalues not converged
     c_bands:  2 eigenvalues not converged
     c_bands:  2 eigenvalues not converged
     c_bands:  2 eigenvalues not converged
     c_bands:  2 eigenvalues not converged
     c_bands:  2 eigenvalues not converged
     c_bands:  2 eigenvalues not converged
     c_bands:  2 eigenvalues not converged
     c_bands:  3 eigenvalues not converged
     c_bands:  4 eigenvalues not converged
     c_bands:  4 eigenvalues not converged
     c_bands:  4 eigenvalues not converged
     c_bands:  4 eigenvalues not converged
     c_bands:  3 eigenvalues not converged
     c_bands:  3 eigenvalues not converged
     c_bands:  3 eigenvalues not converged
     c_bands:  3 eigenvalues not converged
     c_bands:  3 eigenvalues not converged
     c_bands:  3 eigenvalues not converged
     c_bands:  4 eigenvalues not converged
     c_bands:  3 eigenvalues not converged
     c_bands:  3 eigenvalues not converged
     c_bands:  3 eigenvalues not converged
     c_bands:  2 eigenvalues not converged
     c_bands:  2 eigenvalues not converged
     c_bands:  2 eigenvalues not converged
     c_bands:  2 eigenvalues not converged
     c_bands:  2 eigenvalues not converged
     c_bands:  2 eigenvalues not converged
     c_bands:  2 eigenvalues not converged
     c_bands:  2 eigenvalues not converged
     c_bands:  1 eigenvalues not converged
     c_bands:  1 eigenvalues not converged
     c_bands:  1 eigenvalues not converged
     c_bands:  1 eigenvalues not converged
     c_bands:  1 eigenvalues not converged
     c_bands:  1 eigenvalues not converged
     c_bands:  2 eigenvalues not converged
     c_bands:  1 eigenvalues not converged
     c_bands:  2 eigenvalues not converged
     c_bands:  2 eigenvalues not converged
     c_bands:  2 eigenvalues not converged
     c_bands:  1 eigenvalues not converged
     c_bands:  2 eigenvalues not converged
     c_bands:  2 eigenvalues not converged
     c_bands:  2 eigenvalues not converged
     c_bands:  2 eigenvalues not converged
     c_bands:  2 eigenvalues not converged
     c_bands:  2 eigenvalues not converged
     c_bands:  2 eigenvalues not converged
     c_bands:  2 eigenvalues not converged
     c_bands:  2 eigenvalues not converged
     c_bands:  2 eigenvalues not converged
     c_bands:  2 eigenvalues not converged
     c_bands:  2 eigenvalues not converged
     c_bands:  2 eigenvalues not converged
     c_bands:  2 eigenvalues not converged
     c_bands:  2 eigenvalues not converged
     c_bands:  3 eigenvalues not converged
     c_bands:  3 eigenvalues not converged
     c_bands:  3 eigenvalues not converged
     c_bands:  3 eigenvalues not converged
     c_bands:  3 eigenvalues not converged
     c_bands:  3 eigenvalues not converged
     c_bands:  3 eigenvalues not converged
     c_bands:  4 eigenvalues not converged
     c_bands:  4 eigenvalues not converged
     c_bands:  4 eigenvalues not converged
     c_bands:  4 eigenvalues not converged
     c_bands:  4 eigenvalues not converged
     c_bands:  4 eigenvalues not converged
     c_bands:  4 eigenvalues not converged
     c_bands:  4 eigenvalues not converged
     c_bands:  2 eigenvalues not converged
     c_bands:  2 eigenvalues not converged
     c_bands:  2 eigenvalues not converged
     c_bands:  2 eigenvalues not converged
     c_bands:  2 eigenvalues not converged
     c_bands:  2 eigenvalues not converged
     c_bands:  3 eigenvalues not converged
     c_bands:  3 eigenvalues not converged
     c_bands:  4 eigenvalues not converged
     c_bands:  4 eigenvalues not converged
     c_bands:  3 eigenvalues not converged
     c_bands:  3 eigenvalues not converged
     ethr =  1.00E-06,  avg # of iterations = 20.0

     negative rho (up, down):  2.658E-04 0.000E+00

     total cpu time spent up to now is      495.1 secs

     total energy              =    -221.02132394 Ry
     estimated scf accuracy    <       4.57069116 Ry

     iteration #  2     ecut=    42.00 Ry     beta= 0.70
     Davidson diagonalization with overlap
     ethr =  9.14E-03,  avg # of iterations = 10.5

     total cpu time spent up to now is      509.4 secs

     total energy              =    -197.48823512 Ry
     estimated scf accuracy    <     619.05831684 Ry

     iteration #  3     ecut=    42.00 Ry     beta= 0.70
     Davidson diagonalization with overlap
     ethr =  9.14E-03,  avg # of iterations = 10.6

     total cpu time spent up to now is      522.5 secs

     total energy              =    -225.67257662 Ry
     estimated scf accuracy    <       6.37959726 Ry

     iteration #  4     ecut=    42.00 Ry     beta= 0.70
     Davidson diagonalization with overlap
     ethr =  9.14E-03,  avg # of iterations =  2.4

     total cpu time spent up to now is      527.1 secs

     total energy              =    -226.42271412 Ry
     estimated scf accuracy    <       0.59602902 Ry

     iteration #  5     ecut=    42.00 Ry     beta= 0.70
     Davidson diagonalization with overlap
     ethr =  1.19E-03,  avg # of iterations =  3.4

     total cpu time spent up to now is      533.1 secs

     total energy              =    -226.41174465 Ry
     estimated scf accuracy    <       0.32420876 Ry

     iteration #  6     ecut=    42.00 Ry     beta= 0.70
     Davidson diagonalization with overlap
     ethr =  6.48E-04,  avg # of iterations =  2.2

     negative rho (up, down):  2.086E-05 0.000E+00

     total cpu time spent up to now is      537.6 secs

     total energy              =    -226.38344611 Ry
     estimated scf accuracy    <       0.19921340 Ry

     iteration #  7     ecut=    42.00 Ry     beta= 0.70
     Davidson diagonalization with overlap
     ethr =  3.98E-04,  avg # of iterations =  4.2

     negative rho (up, down):  1.398E-03 0.000E+00

     total cpu time spent up to now is      542.8 secs

     total energy              =    -226.36973736 Ry
     estimated scf accuracy    <       0.09780976 Ry

     iteration #  8     ecut=    42.00 Ry     beta= 0.70
     Davidson diagonalization with overlap
     ethr =  1.96E-04,  avg # of iterations =  3.9

     negative rho (up, down):  5.911E-03 0.000E+00

     total cpu time spent up to now is      548.2 secs

     total energy              =    -226.36630978 Ry
     estimated scf accuracy    <       0.04009903 Ry

     iteration #  9     ecut=    42.00 Ry     beta= 0.70
     Davidson diagonalization with overlap
     ethr =  8.02E-05,  avg # of iterations =  4.1

     negative rho (up, down):  7.899E-03 0.000E+00

     total cpu time spent up to now is      553.1 secs

     total energy              =    -226.36633686 Ry
     estimated scf accuracy    <       0.01858901 Ry

     iteration # 10     ecut=    42.00 Ry     beta= 0.70
     Davidson diagonalization with overlap
     ethr =  3.72E-05,  avg # of iterations =  2.9

     negative rho (up, down):  1.867E-02 0.000E+00

     total cpu time spent up to now is      557.8 secs

     total energy              =    -226.36385326 Ry
     estimated scf accuracy    <       0.01361061 Ry

     iteration # 11     ecut=    42.00 Ry     beta= 0.70
     Davidson diagonalization with overlap
     ethr =  2.72E-05,  avg # of iterations =  5.4

     negative rho (up, down):  2.637E-03 0.000E+00

     total cpu time spent up to now is      563.2 secs

     total energy              =    -226.36071621 Ry
     estimated scf accuracy    <       0.00574761 Ry

     iteration # 12     ecut=    42.00 Ry     beta= 0.70
     Davidson diagonalization with overlap
     ethr =  1.15E-05,  avg # of iterations = 11.1

     negative rho (up, down):  4.454E-04 0.000E+00

     total cpu time spent up to now is      572.4 secs

     total energy              =    -226.36165801 Ry
     estimated scf accuracy    <       0.00373438 Ry

     iteration # 13     ecut=    42.00 Ry     beta= 0.70
     Davidson diagonalization with overlap
     ethr =  7.47E-06,  avg # of iterations =  6.6

     negative rho (up, down):  9.152E-08 0.000E+00

     total cpu time spent up to now is      578.8 secs

     total energy              =    -226.36217604 Ry
     estimated scf accuracy    <       0.00011905 Ry

     iteration # 14     ecut=    42.00 Ry     beta= 0.70
     Davidson diagonalization with overlap
     ethr =  2.38E-07,  avg # of iterations =  3.1

     total cpu time spent up to now is      584.1 secs

     total energy              =    -226.36221538 Ry
     estimated scf accuracy    <       0.00001174 Ry

     iteration # 15     ecut=    42.00 Ry     beta= 0.70
     Davidson diagonalization with overlap
     ethr =  2.35E-08,  avg # of iterations =  2.2

     total cpu time spent up to now is      589.2 secs

     total energy              =    -226.36221769 Ry
     estimated scf accuracy    <       0.00000136 Ry

     iteration # 16     ecut=    42.00 Ry     beta= 0.70
     Davidson diagonalization with overlap
     ethr =  2.73E-09,  avg # of iterations =  2.0

     total cpu time spent up to now is      594.8 secs

     End of self-consistent calculation

     Number of k-points >= 100: set verbosity='high' to print the bands.

     the Fermi energy is     0.8829 ev

!    total energy              =    -226.36221790 Ry
     estimated scf accuracy    <       0.00000016 Ry
     smearing contrib. (-TS)   =      -0.00000000 Ry
     internal energy E=F+TS    =    -226.36221790 Ry

     The total energy is F=E-TS. E is the sum of the following terms:
     one-electron contribution =   -1091.06409416 Ry
     hartree contribution      =     563.05674942 Ry
     xc contribution           =     -62.06980716 Ry
     ewald contribution        =     363.71493401 Ry

     convergence has been achieved in  16 iterations

     Forces acting on atoms (cartesian axes, Ry/au):

     atom    1 type  1   force =     0.01042557    0.01062155    0.01542510
     atom    2 type  1   force =     0.00093108    0.00663837   -0.00299456
     atom    3 type  1   force =    -0.00357467   -0.00460991    0.04472897
     atom    4 type  2   force =    -0.02747027   -0.02100361   -0.03555231
     atom    5 type  2   force =     0.04076064   -0.00831562   -0.01402387
     atom    6 type  2   force =     0.00217474   -0.03376888    0.02176777
     atom    7 type  2   force =    -0.00435991    0.04079540   -0.01717962
     atom    8 type  2   force =     0.01537226    0.00699069   -0.02289556
     atom    9 type  2   force =    -0.05606684    0.00369708    0.04846461
     atom   10 type  3   force =     0.00886632    0.02743203   -0.01883531
     atom   11 type  3   force =     0.01294106   -0.02847711   -0.01890522

     Total force =     0.139174     Total SCF correction =     0.000959


     Computing stress (Cartesian axis) and pressure

          total   stress  (Ry/bohr**3)                   (kbar)     P=      -20.95
   0.00025249   0.00003347  -0.00005395           37.14        4.92       -7.94
   0.00003347   0.00035945  -0.00005271            4.92       52.88       -7.75
  -0.00005395  -0.00005271  -0.00103915           -7.94       -7.75     -152.86

     Energy error            =      3.5E-02 Ry
     Gradient error          =      5.6E-02 Ry/Bohr
     Cell gradient error     =      5.3E+01 kbar

     number of scf cycles    =   5
     number of bfgs steps    =   4

     enthalpy           old  =    -226.3274932236 Ry
     enthalpy           new  =    -226.3622178958 Ry

     CASE: enthalpy          _new < enthalpy          _old

     new trust radius        =       0.1237896128 bohr
     new conv_thr            =       0.0000005607 Ry

     new unit-cell volume =   1551.12018 a.u.^3 (   229.85230 Ang^3 )
     density =      1.31423 g/cm^3

CELL_PARAMETERS (angstrom)
   4.140270444  -0.073416580   0.000000000
  -2.132746001   3.738901967   0.000000000
   0.000000000   0.000000000  15.000000000

ATOMIC_POSITIONS (angstrom)
Si           -0.4636056066        0.3435432196        0.0868496726
Si           -3.0299910518        1.7669377400       -1.8083009315
Si            1.1529487746       -1.8858574763       -3.6912112533
O            -1.2632366092        0.7090242412       -4.8096345931
O            -1.4556628835        1.5601030672       -2.1646572398
O             0.6369970616        0.2891475995       -1.1900178506
O             0.7285399931       -0.5197835199       -4.4287113549
O             2.7404427293       -1.6932493282       -3.3357506279
O            -1.1964605816       -0.9897467824       -0.5492078157
H             1.6045220281       -0.0365323943       -4.6292424445
H            -0.4615558770        0.0658945061       -4.6588667243



     Writing config-only to output data dir /lustre/ukt/milias/scratch/QEjob.main.N2.n160.jid5154256/qe.save/
     NEW-OLD atomic charge density approx. for the potential

     Check: negative core charge=   -0.000105

     negative rho (up, down):  6.294E-04 0.000E+00
     extrapolated charge   49.89793, renormalised to   50.00000

     total cpu time spent up to now is      600.1 secs

     per-process dynamical memory:   102.3 Mb

     Self-consistent Calculation

     iteration #  1     ecut=    42.00 Ry     beta= 0.70
     Davidson diagonalization with overlap
     c_bands:  1 eigenvalues not converged
     c_bands:  1 eigenvalues not converged
     c_bands:  1 eigenvalues not converged
     c_bands:  1 eigenvalues not converged
     c_bands:  1 eigenvalues not converged
     c_bands:  1 eigenvalues not converged
     c_bands:  1 eigenvalues not converged
     c_bands:  1 eigenvalues not converged
     c_bands:  1 eigenvalues not converged
     c_bands:  1 eigenvalues not converged
     c_bands:  1 eigenvalues not converged
     c_bands:  1 eigenvalues not converged
     c_bands:  1 eigenvalues not converged
     c_bands:  1 eigenvalues not converged
     c_bands:  1 eigenvalues not converged
     c_bands:  1 eigenvalues not converged
     ethr =  1.00E-06,  avg # of iterations = 17.0

     negative rho (up, down):  1.079E-04 0.000E+00

     total cpu time spent up to now is      617.7 secs

     total energy              =    -226.37355119 Ry
     estimated scf accuracy    <       0.00911653 Ry

     iteration #  2     ecut=    42.00 Ry     beta= 0.70
     Davidson diagonalization with overlap
     ethr =  1.82E-05,  avg # of iterations =  9.3

     negative rho (up, down):  4.588E-05 0.000E+00

     total cpu time spent up to now is      626.0 secs

     total energy              =    -226.37554508 Ry
     estimated scf accuracy    <       0.00997607 Ry

     iteration #  3     ecut=    42.00 Ry     beta= 0.70
     Davidson diagonalization with overlap
     ethr =  1.82E-05,  avg # of iterations =  6.5

     negative rho (up, down):  2.736E-06 0.000E+00

     total cpu time spent up to now is      632.5 secs

     total energy              =    -226.37733604 Ry
     estimated scf accuracy    <       0.00024960 Ry

     iteration #  4     ecut=    42.00 Ry     beta= 0.70
     Davidson diagonalization with overlap
     c_bands:  1 eigenvalues not converged
     ethr =  4.99E-07,  avg # of iterations =  5.2

     total cpu time spent up to now is      639.2 secs

     total energy              =    -226.37740637 Ry
     estimated scf accuracy    <       0.00009196 Ry

     iteration #  5     ecut=    42.00 Ry     beta= 0.70
     Davidson diagonalization with overlap
     ethr =  1.84E-07,  avg # of iterations =  2.1

     total cpu time spent up to now is      644.2 secs

     total energy              =    -226.37742780 Ry
     estimated scf accuracy    <       0.00000505 Ry

     iteration #  6     ecut=    42.00 Ry     beta= 0.70
     Davidson diagonalization with overlap
     ethr =  1.01E-08,  avg # of iterations =  2.9

     total cpu time spent up to now is      649.7 secs

     total energy              =    -226.37742847 Ry
     estimated scf accuracy    <       0.00000138 Ry

     iteration #  7     ecut=    42.00 Ry     beta= 0.70
     Davidson diagonalization with overlap
     ethr =  2.76E-09,  avg # of iterations =  2.0

     total cpu time spent up to now is      654.3 secs

     End of self-consistent calculation

     Number of k-points >= 100: set verbosity='high' to print the bands.

     the Fermi energy is     0.8402 ev

!    total energy              =    -226.37742863 Ry
     estimated scf accuracy    <       0.00000009 Ry
     smearing contrib. (-TS)   =      -0.00000000 Ry
     internal energy E=F+TS    =    -226.37742863 Ry

     The total energy is F=E-TS. E is the sum of the following terms:
     one-electron contribution =   -1074.47366812 Ry
     hartree contribution      =     554.80209206 Ry
     xc contribution           =     -61.85189098 Ry
     ewald contribution        =     355.14603841 Ry

     convergence has been achieved in   7 iterations

     Forces acting on atoms (cartesian axes, Ry/au):

     atom    1 type  1   force =     0.00532773   -0.00622665    0.00614508
     atom    2 type  1   force =     0.00660452    0.00102943    0.01385056
     atom    3 type  1   force =    -0.00117217    0.00208479   -0.03455440
     atom    4 type  2   force =    -0.00231444    0.00887461    0.00828918
     atom    5 type  2   force =    -0.01435800   -0.00436319    0.00892571
     atom    6 type  2   force =     0.01299092    0.01050126    0.00400400
     atom    7 type  2   force =     0.01813779   -0.00398841    0.00846551
     atom    8 type  2   force =     0.00772627   -0.00469112    0.01795313
     atom    9 type  2   force =    -0.03065245   -0.01563264    0.00578881
     atom   10 type  3   force =     0.00223834    0.02174106   -0.01685634
     atom   11 type  3   force =    -0.00452850   -0.00932915   -0.02201122

     Total force =     0.075404     Total SCF correction =     0.000819


     Computing stress (Cartesian axis) and pressure

          total   stress  (Ry/bohr**3)                   (kbar)     P=      -53.73
   0.00006521   0.00001634  -0.00007164            9.59        2.40      -10.54
   0.00001634   0.00006472  -0.00009301            2.40        9.52      -13.68
  -0.00007164  -0.00009301  -0.00122567          -10.54      -13.68     -180.30

     Energy error            =      1.5E-02 Ry
     Gradient error          =      3.5E-02 Ry/Bohr
     Cell gradient error     =      9.6E+00 kbar

     number of scf cycles    =   6
     number of bfgs steps    =   5

     enthalpy           old  =    -226.3622178958 Ry
     enthalpy           new  =    -226.3774286261 Ry

     CASE: enthalpy          _new < enthalpy          _old

     new trust radius        =       0.0453927573 bohr
     new conv_thr            =       0.0000003455 Ry

     new unit-cell volume =   1561.09007 a.u.^3 (   231.32968 Ang^3 )
     density =      1.30584 g/cm^3

CELL_PARAMETERS (angstrom)
   4.151812022  -0.071119891   0.000000000
  -2.136337345   3.751112702   0.000000000
   0.000000000   0.000000000  15.000000000

ATOMIC_POSITIONS (angstrom)
Si           -0.4612957544        0.3431854657        0.0932051084
Si           -3.0339885927        1.7722270452       -1.8005788186
Si            1.1543094042       -1.8914134144       -3.7048287308
O            -1.2699649401        0.7108420422       -4.8107914944
O            -1.4602323569        1.5616507755       -2.1604682968
O             0.6448847013        0.2908810676       -1.1843868133
O             0.7383606777       -0.5166712910       -4.4271255962
O             2.7519868249       -1.6984612630       -3.3302188179
O            -1.2206400774       -1.0000831410       -0.5375640020
H             1.6104047411       -0.0236843080       -4.6415520588
H            -0.4639537137        0.0589713869       -4.6744416425



     Writing config-only to output data dir /lustre/ukt/milias/scratch/QEjob.main.N2.n160.jid5154256/qe.save/
     NEW-OLD atomic charge density approx. for the potential

     Check: negative core charge=   -0.000107

     negative rho (up, down):  7.316E-05 0.000E+00
     extrapolated charge   50.31931, renormalised to   50.00000

     total cpu time spent up to now is      659.3 secs

     per-process dynamical memory:   102.3 Mb

     Self-consistent Calculation

     iteration #  1     ecut=    42.00 Ry     beta= 0.70
     Davidson diagonalization with overlap
     c_bands:  1 eigenvalues not converged
     c_bands:  1 eigenvalues not converged
     c_bands:  1 eigenvalues not converged
     c_bands:  1 eigenvalues not converged
     ethr =  1.00E-06,  avg # of iterations = 16.2

     total cpu time spent up to now is      674.9 secs

     total energy              =    -226.29875288 Ry
     estimated scf accuracy    <       0.06535025 Ry

     iteration #  2     ecut=    42.00 Ry     beta= 0.70
     Davidson diagonalization with overlap
     ethr =  1.31E-04,  avg # of iterations = 13.6

     total cpu time spent up to now is      685.9 secs

     total energy              =    -226.36436859 Ry
     estimated scf accuracy    <       0.29029301 Ry

     iteration #  3     ecut=    42.00 Ry     beta= 0.70
     Davidson diagonalization with overlap
     ethr =  1.31E-04,  avg # of iterations =  8.0

     total cpu time spent up to now is      693.7 secs

     total energy              =    -226.38431604 Ry
     estimated scf accuracy    <       0.03224208 Ry

     iteration #  4     ecut=    42.00 Ry     beta= 0.70
     Davidson diagonalization with overlap
     ethr =  6.45E-05,  avg # of iterations =  6.6

     total cpu time spent up to now is      700.0 secs

     total energy              =    -226.38194729 Ry
     estimated scf accuracy    <       0.01361033 Ry

     iteration #  5     ecut=    42.00 Ry     beta= 0.70
     Davidson diagonalization with overlap
     ethr =  2.72E-05,  avg # of iterations =  6.9

     total cpu time spent up to now is      706.5 secs

     total energy              =    -226.38148120 Ry
     estimated scf accuracy    <       0.00388398 Ry

     iteration #  6     ecut=    42.00 Ry     beta= 0.70
     Davidson diagonalization with overlap
     ethr =  7.77E-06,  avg # of iterations =  7.2

     total cpu time spent up to now is      712.8 secs

[...]

     Energy error            =      1.6E-05 Ry
     Gradient error          =      8.6E-04 Ry/Bohr
     Cell gradient error     =      4.7E-01 kbar

     bfgs converged in  40 scf cycles and  39 bfgs steps
     (criteria: energy <  1.0E-04 Ry, force <  1.0E-03 Ry/Bohr, cell <  5.0E-01 kbar)

     End of BFGS Geometry Optimization

     Final enthalpy           =    -226.4015554587 Ry

     File /lustre/ukt/milias/scratch/QEjob.main.N2.n160.jid5154256/qe.bfgs deleted, as requested
Begin final coordinates
     new unit-cell volume =   1508.93532 a.u.^3 (   223.60115 Ang^3 )
     density =      1.35097 g/cm^3

CELL_PARAMETERS (angstrom)
   4.085451758  -0.092157108   0.000000000
  -2.122499415   3.696616028   0.000000000
   0.000000000   0.000000000  15.000000000

ATOMIC_POSITIONS (angstrom)
Si           -0.1390870420       -0.1111040136        0.3242670138
Si           -3.0467081352        1.6512957998       -1.7428536392
Si            1.1278021812       -1.7394963842       -3.7203437992
O            -1.2319466770        0.9566695539       -5.0092685526
O            -1.5208575401        1.4018170518       -2.2576513415
O             0.5855574874        0.1098618103       -1.1778768649
O             0.7366798092       -0.3090024928       -4.3713768539
O             2.6664296665       -1.5316065969       -3.1927255244
O            -1.2071948329       -1.2157898723       -0.3317725993
H             1.5528912554        0.1649530663       -4.7544626409
H            -0.5153091231        0.2421723214       -4.9446863608
End final coordinates



     Writing config-only to output data dir /lustre/ukt/milias/scratch/QEjob.main.N2.n160.jid5154256/qe.save/

     Final scf calculation at the relaxed structure.
     The G-vectors are recalculated for the final unit cell
     Results may differ from those at the preceding step.

     Parallelization info
     --------------------
     sticks:   dense  smooth     PW     G-vecs:    dense   smooth      PW
     Min          17      17      5                 1377     1377     239
     Max          18      18      6                 1398     1398     258
     Sum         705     705    223                55473    55473    9859

     Using Slab Decomposition



     bravais-lattice index     =            0
     lattice parameter (alat)  =       8.9933  a.u.
     unit-cell volume          =    1508.9353 (a.u.)^3
     number of atoms/cell      =           11
     number of atomic types    =            3
     number of electrons       =        50.00
     number of Kohn-Sham states=           30
     kinetic-energy cutoff     =      42.0000  Ry
     charge density cutoff     =     168.0000  Ry
     scf convergence threshold =      1.0E-08
     mixing beta               =       0.7000
     number of iterations used =            8  plain     mixing
     press convergence thresh. =      5.0E-01
     Exchange-correlation= PBE
                           (   1   4   3   4   0   0   0)

     celldm(1)=   8.993258  celldm(2)=   0.000000  celldm(3)=   0.000000
     celldm(4)=   0.000000  celldm(5)=   0.000000  celldm(6)=   0.000000

     crystal axes: (cart. coord. in units of alat)
               a(1) = (   0.858464  -0.019365   0.000000 )  
               a(2) = (  -0.445994   0.776759   0.000000 )  
               a(3) = (   0.000000   0.000000   3.151905 )  

     reciprocal axes: (cart. coord. in units 2 pi/alat)
               b(1) = (  1.180157  0.677615 -0.000000 )  
               b(2) = (  0.029421  1.304294 -0.000000 )  
               b(3) = ( -0.000000 -0.000000  0.317268 )  


     PseudoPot. # 1 for Si read from file:
     ./Si.upf
     MD5 check sum: 02fab3f35e82123ef5bf1cb05d5b1a5e
     Pseudo is Norm-conserving + core correction, Zval =  4.0
     Generated using ONCVPSP code by D. R. Hamann
     Using radial grid of 1510 points,  6 beta functions with: 
                l(1) =   0
                l(2) =   0
                l(3) =   1
                l(4) =   1
                l(5) =   2
                l(6) =   2

     PseudoPot. # 2 for O  read from file:
     ./O.upf
     MD5 check sum: 3e3f909f7470e8921608ab6b1f57bbae
     Pseudo is Norm-conserving + core correction, Zval =  6.0
     Generated using ONCVPSP code by D. R. Hamann
     Using radial grid of  936 points,  5 beta functions with: 
                l(1) =   0
                l(2) =   0
                l(3) =   1
                l(4) =   1
                l(5) =   2

     PseudoPot. # 3 for H  read from file:
     ./H.upf
     MD5 check sum: e96aa7e3e4a958db16958554ea960e2a
     Pseudo is Norm-conserving, Zval =  1.0
     Generated using ONCVPSP code by D. R. Hamann
     Using radial grid of 1166 points,  3 beta functions with: 
                l(1) =   0
                l(2) =   0
                l(3) =   1

     atomic species   valence    mass     pseudopotential
        Si             4.00    27.97693     Si( 1.00)
        O              6.00    15.99491     O ( 1.00)
        H              1.00     1.00782     H ( 1.00)

     No symmetry found



   Cartesian axes

     site n.     atom                  positions (alat units)
         1           Si  tau(   1) = (  -0.0292259  -0.0233460   0.0681372  )
         2           Si  tau(   2) = (  -0.6401956   0.3469818  -0.3662206  )
         3           Si  tau(   3) = (   0.2369817  -0.3655151  -0.7817446  )
         4           O   tau(   4) = (  -0.2588652   0.2010221  -1.0525825  )
         5           O   tau(   5) = (  -0.3195732   0.2945596  -0.4743935  )
         6           O   tau(   6) = (   0.1230414   0.0230849  -0.2475037  )
         7           O   tau(   7) = (   0.1547963  -0.0649298  -0.9185442  )
         8           O   tau(   8) = (   0.5602888  -0.3218319  -0.6708778  )
         9           O   tau(   9) = (  -0.2536642  -0.2554703  -0.0697144  )
        10           H   tau(  10) = (   0.3263043   0.0346611  -0.9990409  )
        11           H   tau(  11) = (  -0.1082803   0.0508869  -1.0390120  )

     number of k points=   504  Gaussian smearing, width (Ry)=  0.0200

     Number of k-points >= 100: set verbosity='high' to print them.

     Dense  grid:    55473 G-vectors     FFT dimensions: (  32,  36, 120)

     Estimated max dynamical RAM per process >      18.17 MB

     Estimated total dynamical RAM >       2.80 GB

     Check: negative core charge=   -0.000236

     Initial potential from superposition of free atoms

     starting charge      49.9981, renormalised to      50.0000

     negative rho (up, down):  2.074E-03 0.000E+00
     Starting wfcs are   38 randomized atomic wfcs

     total cpu time spent up to now is     2743.5 secs

     per-process dynamical memory:    96.3 Mb

     Self-consistent Calculation

     iteration #  1     ecut=    42.00 Ry     beta= 0.70
     Davidson diagonalization with overlap
     c_bands:  2 eigenvalues not converged
     c_bands:  2 eigenvalues not converged
     c_bands:  2 eigenvalues not converged
     c_bands:  2 eigenvalues not converged
     c_bands:  1 eigenvalues not converged
     c_bands:  1 eigenvalues not converged
     c_bands:  2 eigenvalues not converged
     c_bands:  2 eigenvalues not converged
     c_bands:  2 eigenvalues not converged
     c_bands:  1 eigenvalues not converged
     c_bands:  1 eigenvalues not converged
     c_bands:  1 eigenvalues not converged
     c_bands:  1 eigenvalues not converged
     c_bands:  1 eigenvalues not converged
     c_bands:  1 eigenvalues not converged
     c_bands:  1 eigenvalues not converged
     c_bands:  1 eigenvalues not converged
     c_bands:  1 eigenvalues not converged
     c_bands:  2 eigenvalues not converged
     c_bands:  1 eigenvalues not converged
     c_bands:  1 eigenvalues not converged
     c_bands:  1 eigenvalues not converged
     c_bands:  1 eigenvalues not converged
     c_bands:  1 eigenvalues not converged
     c_bands:  2 eigenvalues not converged
     c_bands:  2 eigenvalues not converged
     c_bands:  2 eigenvalues not converged
     c_bands:  1 eigenvalues not converged
     c_bands:  1 eigenvalues not converged
     c_bands:  2 eigenvalues not converged
     c_bands:  2 eigenvalues not converged
     c_bands:  2 eigenvalues not converged
     c_bands:  2 eigenvalues not converged
     c_bands:  2 eigenvalues not converged
     c_bands:  2 eigenvalues not converged
     c_bands:  2 eigenvalues not converged
     c_bands:  2 eigenvalues not converged
     c_bands:  2 eigenvalues not converged
     c_bands:  2 eigenvalues not converged
     c_bands:  2 eigenvalues not converged
     c_bands:  2 eigenvalues not converged
     c_bands:  2 eigenvalues not converged
     c_bands:  2 eigenvalues not converged
     c_bands:  2 eigenvalues not converged
     c_bands:  2 eigenvalues not converged
     c_bands:  2 eigenvalues not converged
     c_bands:  1 eigenvalues not converged
     c_bands:  1 eigenvalues not converged
     c_bands:  1 eigenvalues not converged
     c_bands:  1 eigenvalues not converged
     c_bands:  1 eigenvalues not converged
     c_bands:  1 eigenvalues not converged
     c_bands:  1 eigenvalues not converged
     c_bands:  1 eigenvalues not converged
     c_bands:  2 eigenvalues not converged
     c_bands:  2 eigenvalues not converged
     c_bands:  2 eigenvalues not converged
     c_bands:  2 eigenvalues not converged
     c_bands:  2 eigenvalues not converged
     c_bands:  2 eigenvalues not converged
     c_bands:  2 eigenvalues not converged
     c_bands:  2 eigenvalues not converged
     c_bands:  2 eigenvalues not converged
     c_bands:  2 eigenvalues not converged
     c_bands:  2 eigenvalues not converged
     c_bands:  2 eigenvalues not converged
     c_bands:  2 eigenvalues not converged
     c_bands:  2 eigenvalues not converged
     c_bands:  2 eigenvalues not converged
     c_bands:  2 eigenvalues not converged
     c_bands:  2 eigenvalues not converged
     c_bands:  2 eigenvalues not converged
     c_bands:  2 eigenvalues not converged
     c_bands:  2 eigenvalues not converged
     c_bands:  2 eigenvalues not converged
     c_bands:  2 eigenvalues not converged
     c_bands:  2 eigenvalues not converged
     c_bands:  2 eigenvalues not converged
     c_bands:  1 eigenvalues not converged
     c_bands:  1 eigenvalues not converged
     c_bands:  1 eigenvalues not converged
     c_bands:  2 eigenvalues not converged
     c_bands:  2 eigenvalues not converged
     c_bands:  3 eigenvalues not converged
     c_bands:  2 eigenvalues not converged
     c_bands:  2 eigenvalues not converged
     c_bands:  2 eigenvalues not converged
     c_bands:  2 eigenvalues not converged
     c_bands:  1 eigenvalues not converged
     c_bands:  2 eigenvalues not converged
     c_bands:  2 eigenvalues not converged
     c_bands:  1 eigenvalues not converged
     c_bands:  2 eigenvalues not converged
     c_bands:  1 eigenvalues not converged
     c_bands:  1 eigenvalues not converged
     c_bands:  1 eigenvalues not converged
     c_bands:  2 eigenvalues not converged
     c_bands:  2 eigenvalues not converged
     c_bands:  2 eigenvalues not converged
     c_bands:  2 eigenvalues not converged
     c_bands:  2 eigenvalues not converged
     c_bands:  2 eigenvalues not converged
     c_bands:  2 eigenvalues not converged
     c_bands:  2 eigenvalues not converged
     c_bands:  2 eigenvalues not converged
     c_bands:  2 eigenvalues not converged
     c_bands:  2 eigenvalues not converged
     c_bands:  2 eigenvalues not converged
     c_bands:  2 eigenvalues not converged
     c_bands:  2 eigenvalues not converged
     c_bands:  2 eigenvalues not converged
     c_bands:  2 eigenvalues not converged
     c_bands:  2 eigenvalues not converged
     c_bands:  2 eigenvalues not converged
     c_bands:  2 eigenvalues not converged
     c_bands:  2 eigenvalues not converged
     c_bands:  2 eigenvalues not converged
     c_bands:  2 eigenvalues not converged
     c_bands:  2 eigenvalues not converged
     c_bands:  2 eigenvalues not converged
     c_bands:  1 eigenvalues not converged
     c_bands:  1 eigenvalues not converged
     c_bands:  1 eigenvalues not converged
     c_bands:  2 eigenvalues not converged
     c_bands:  1 eigenvalues not converged
     c_bands:  1 eigenvalues not converged
     ethr =  1.00E-06,  avg # of iterations = 20.0

     negative rho (up, down):  4.740E-04 0.000E+00

     total cpu time spent up to now is     2760.0 secs

     total energy              =    -225.30455603 Ry
     estimated scf accuracy    <       1.60274366 Ry

     iteration #  2     ecut=    42.00 Ry     beta= 0.70
     Davidson diagonalization with overlap
     ethr =  3.21E-03,  avg # of iterations =  3.3

     negative rho (up, down):  1.487E-04 0.000E+00

     total cpu time spent up to now is     2764.8 secs

     total energy              =    -225.64582831 Ry
     estimated scf accuracy    <       0.95761370 Ry

     iteration #  3     ecut=    42.00 Ry     beta= 0.70
     Davidson diagonalization with overlap
     ethr =  1.92E-03,  avg # of iterations =  2.0

     negative rho (up, down):  4.729E-05 0.000E+00

     total cpu time spent up to now is     2768.6 secs

     total energy              =    -225.84717540 Ry
     estimated scf accuracy    <       0.06811562 Ry

     iteration #  4     ecut=    42.00 Ry     beta= 0.70
     Davidson diagonalization with overlap
     ethr =  1.36E-04,  avg # of iterations =  6.8

     total cpu time spent up to now is     2774.4 secs

     total energy              =    -225.86511950 Ry
     estimated scf accuracy    <       0.00770539 Ry

     iteration #  5     ecut=    42.00 Ry     beta= 0.70
     Davidson diagonalization with overlap
     ethr =  1.54E-05,  avg # of iterations =  7.2

     total cpu time spent up to now is     2780.2 secs

     total energy              =    -225.86588858 Ry
     estimated scf accuracy    <       0.00127593 Ry

     iteration #  6     ecut=    42.00 Ry     beta= 0.70
     Davidson diagonalization with overlap
     ethr =  2.55E-06,  avg # of iterations =  5.8

     total cpu time spent up to now is     2785.6 secs

     total energy              =    -225.86607787 Ry
     estimated scf accuracy    <       0.00013244 Ry

     iteration #  7     ecut=    42.00 Ry     beta= 0.70
     Davidson diagonalization with overlap
     ethr =  2.65E-07,  avg # of iterations =  2.1

     total cpu time spent up to now is     2789.6 secs

     total energy              =    -225.86609936 Ry
     estimated scf accuracy    <       0.00001213 Ry

     iteration #  8     ecut=    42.00 Ry     beta= 0.70
     Davidson diagonalization with overlap
     ethr =  2.43E-08,  avg # of iterations =  2.2

     total cpu time spent up to now is     2793.7 secs

     total energy              =    -225.86610342 Ry
     estimated scf accuracy    <       0.00000174 Ry

     iteration #  9     ecut=    42.00 Ry     beta= 0.70
     Davidson diagonalization with overlap
     ethr =  3.47E-09,  avg # of iterations =  2.2

     total cpu time spent up to now is     2797.7 secs

     total energy              =    -225.86610367 Ry
     estimated scf accuracy    <       0.00000044 Ry

     iteration # 10     ecut=    42.00 Ry     beta= 0.70
     Davidson diagonalization with overlap
     ethr =  8.88E-10,  avg # of iterations =  2.0

     total cpu time spent up to now is     2801.4 secs

     total energy              =    -225.86610371 Ry
     estimated scf accuracy    <       0.00000004 Ry

     iteration # 11     ecut=    42.00 Ry     beta= 0.70
     Davidson diagonalization with overlap
     ethr =  8.31E-11,  avg # of iterations =  2.6

     total cpu time spent up to now is     2805.8 secs

     End of self-consistent calculation

     Number of k-points >= 100: set verbosity='high' to print the bands.

     the Fermi energy is     0.3701 ev

!    total energy              =    -225.86610372 Ry
     estimated scf accuracy    <          2.1E-09 Ry
     smearing contrib. (-TS)   =      -0.00000000 Ry
     internal energy E=F+TS    =    -225.86610372 Ry

     The total energy is F=E-TS. E is the sum of the following terms:
     one-electron contribution =   -1032.83404512 Ry
     hartree contribution      =     534.33980307 Ry
     xc contribution           =     -61.55214691 Ry
     ewald contribution        =     334.18028524 Ry

     convergence has been achieved in  11 iterations

     Forces acting on atoms (cartesian axes, Ry/au):

     atom    1 type  1   force =     0.00059071    0.00073566    0.00171068
     atom    2 type  1   force =     0.00008003    0.00074979   -0.00046538
     atom    3 type  1   force =    -0.00005089   -0.00024260    0.00030210
     atom    4 type  2   force =    -0.00081858   -0.00585341   -0.00293519
     atom    5 type  2   force =     0.00081586   -0.00057488   -0.00521344
     atom    6 type  2   force =     0.00146050    0.00429994    0.00492815
     atom    7 type  2   force =    -0.00301582    0.00380843   -0.00357632
     atom    8 type  2   force =     0.00068243    0.00129487    0.00300011
     atom    9 type  2   force =     0.00094079   -0.00359462    0.00197245
     atom   10 type  3   force =     0.00033141   -0.00031923    0.00100471
     atom   11 type  3   force =    -0.00101646   -0.00030396   -0.00072787

     Total force =     0.013766     Total SCF correction =     0.000165


     Computing stress (Cartesian axis) and pressure

          total   stress  (Ry/bohr**3)                   (kbar)     P=     -217.80
  -0.00126148   0.00001134   0.00000562         -185.57        1.67        0.83
   0.00001134  -0.00129704  -0.00001726            1.67     -190.80       -2.54
   0.00000562  -0.00001726  -0.00188326            0.83       -2.54     -277.04


     Writing all to output data dir /lustre/ukt/milias/scratch/QEjob.main.N2.n160.jid5154256/qe.save/

     init_run     :      4.74s CPU      4.92s WALL (       2 calls)
     electrons    :   2483.77s CPU   2584.73s WALL (      41 calls)
     update_pot   :     23.38s CPU     23.70s WALL (      39 calls)
     forces       :     71.90s CPU     72.84s WALL (      41 calls)
     stress       :    115.68s CPU    116.90s WALL (      41 calls)

     Called by init_run:
     wfcinit      :      3.19s CPU      3.32s WALL (       2 calls)
     potinit      :      0.31s CPU      0.32s WALL (       2 calls)
     hinit0       :      1.21s CPU      1.24s WALL (       2 calls)

     Called by electrons:
     c_bands      :   2298.96s CPU   2389.35s WALL (     356 calls)
     sum_band     :    179.09s CPU    184.66s WALL (     356 calls)
     v_of_rho     :      2.53s CPU      3.12s WALL (     396 calls)
     mix_rho      :      0.33s CPU      0.53s WALL (     356 calls)

     Called by c_bands:
     init_us_2    :     18.17s CPU     19.81s WALL (  100296 calls)
     init_us_2:cp :     17.86s CPU     19.65s WALL (  100296 calls)
     cegterg      :   2049.80s CPU   2097.98s WALL (   44900 calls)

     Called by *egterg:
     cdiaghg      :    352.45s CPU    357.22s WALL (  294542 calls)
     h_psi        :   1438.32s CPU   1477.65s WALL (  299878 calls)
     g_psi        :      4.37s CPU      4.46s WALL (  254726 calls)

     Called by h_psi:
     h_psi:calbec :    172.99s CPU    177.43s WALL (  299878 calls)
     vloc_psi     :   1181.42s CPU   1214.84s WALL (  299878 calls)
     add_vuspsi   :     80.30s CPU     81.91s WALL (  299878 calls)

     General routines
     calbec       :    248.69s CPU    254.13s WALL (  325708 calls)
     fft          :      9.08s CPU      9.33s WALL (    4984 calls)
     ffts         :      0.25s CPU      0.25s WALL (     356 calls)
     fftw         :   1275.32s CPU   1312.02s WALL (10352788 calls)

     Parallel routines

     PWSCF        :  45m 5.49s CPU  47m31.66s WALL


   This run was terminated on:  23:36:35  27Jul2023            

=------------------------------------------------------------------------------=
   JOB DONE.
=------------------------------------------------------------------------------=
