 argument  1 = /lustre/ukt/milias/work/projects/open-collection/theoretical_chemistry/projects/adsorbate_on_surface/on_quartz/quartz/nwchem/Quartz-G_molecular_slab_117atoms/Bi_on_quartz/ecp/frequencies/BiQ.freq_crenbl_ecp_revpbe-d3bj_odft.nw



============================== echo of input deck ==============================
echo

start BionQ

memory total 360 gb
permanent_dir /lustre/ukt/milias/scratch/Bi-odft_on_quartz_freq

#print low

title "Bi@Quartz ecp"
charge 0

geometry units angstroms print xyz autosym
  load format xyz BiQgeo-008_converged.xyz
end

basis
 * library crenbl_ecp
end

ecp
  Si library crenbl_ecp
  Bi library crenbl_ecp
end

dft
  odft
  mult 4
  xc revpbe cpbe96
  disp vdw 4
  maxiter 500
end

freq
  animate
end


#task dft optimize

task dft frequencies

================================================================================


                                         
                                         


             Northwest Computational Chemistry Package (NWChem) 7.2.0
             --------------------------------------------------------


                    Environmental Molecular Sciences Laboratory
                       Pacific Northwest National Laboratory
                                Richland, WA 99352

                              Copyright (c) 1994-2022
                       Pacific Northwest National Laboratory
                            Battelle Memorial Institute

             NWChem is an open-source computational chemistry package
                        distributed under the terms of the
                      Educational Community License (ECL) 2.0
             A copy of the license is included with this distribution
                              in the LICENSE.TXT file

                                  ACKNOWLEDGMENT
                                  --------------

            This software and its documentation were developed at the
            EMSL at Pacific Northwest National Laboratory, a multiprogram
            national laboratory, operated for the U.S. Department of Energy
            by Battelle under Contract Number DE-AC05-76RL01830. Support
            for this work was provided by the Department of Energy Office
            of Biological and Environmental Research, Office of Basic
            Energy Sciences, and the Office of Advanced Scientific Computing.


           Job information
           ---------------

    hostname        = lxbk1148
    program         = /lustre/ukt/milias/work/software/nwchem/nwchem-7.2.0_gnu_openmpi_openblas/bin/LINUX64/nwchem
    date            = Sun Sep  3 07:48:52 2023

    compiled        = Sun_Jul_02_11:55:06_2023
    source          = /lustre/ukt/milias/work/software/nwchem/nwchem-7.2.0_gnu_openmpi_openblas
    nwchem branch   = 7.2.0
    nwchem revision = v7.2.0-beta1-192-gd0d141fdfb
    ga revision     = 5.8.0
    use scalapack   = F
    input           = /lustre/ukt/milias/work/projects/open-collection/theoretical_chemistry/projects/adsorbate_on_surface/on_quartz/quartz/nwchem/Quartz-G_molecular_slab_117atoms/Bi_on_quartz/ecp/frequencies/BiQ.freq_crenbl_ecp_revpbe-d3bj_odft.nw
    prefix          = BionQ.
    data base       = /lustre/ukt/milias/scratch/Bi-odft_on_quartz_freq/BionQ.db
    status          = startup
    nproc           =      140
    time left       =     -1s



           Memory information
           ------------------

    heap     = ********** doubles =  92160.0 Mbytes
    stack    = ********** doubles =  92160.0 Mbytes
    global   = ********** doubles = 184320.0 Mbytes (distinct from heap & stack)
    total    = ********** doubles = 368640.0 Mbytes
    verify   = yes
    hardfail = no 


           Directory information
           ---------------------

  0 permanent = /lustre/ukt/milias/scratch/Bi-odft_on_quartz_freq
  0 scratch   = .




                                NWChem Input Module
                                -------------------


                                   Bi@Quartz ecp
                                   -------------

 Scaling coordinates for geometry "geometry" by  1.889725989
 (inverse scale =  0.529177249)

 C1  symmetry detected

          ------
          auto-z
          ------
  autoz: The atoms group into disjoint clusters
 cluster   1:    1    2    3    4    5    6    7    8    9   10   11
                12   13   14   15   16   17   18   19   20   21   22
                23   24   25   26   27   28   29   30   31   32   33
                34   35   36   37   38   39   40   41   42   43   44
                45   46   47   48   49   50   51   52   53   54   55
                56   57   58   59   60   61   62   63   64   65   66
                67   68   69   70   71   72   73   74   75   76   77
                78   79   80   81   82   83   84   85   86   87   88
                89   90   91   92   93   94   95   96   97   98   99
               100  101  102  103  104  105  106  107  108  109  110
               111  112  113  114  115  116  117
 cluster   2:  118
 Connecting clusters   1   2 via atoms   81  118 r = 3.50
  autoz: regenerating connections with new bonds
  no constraints, skipping    0.0000000000000000     
  no constraints, skipping    0.0000000000000000     


                             Geometry "geometry" -> ""
                             -------------------------

 Output coordinates in angstroms (scale by  1.889725989 to convert to a.u.)

  No.       Tag          Charge          X              Y              Z
 ---- ---------------- ---------- -------------- -------------- --------------
    1 O                    8.0000    -2.74651876     4.48960075    -3.40615965
    2 H                    1.0000    -1.03456946    -4.33853627    -1.14222158
    3 O                    8.0000     2.68460293     0.61624084    -2.63249927
    4 O                    8.0000    -4.18346539     5.24903261     1.27635888
    5 O                    8.0000    -2.11123031    -7.06314199     4.21671611
    6 Si                  14.0000     1.63990831    -2.00956257     2.59706087
    7 O                    8.0000    -1.77572537     2.10966411    -2.46589546
    8 Si                  14.0000    -0.10030017    -6.04932980     0.58489424
    9 Si                  14.0000    -2.00434044    -1.64164537    -1.50462558
   10 Si                  14.0000    -2.96751930     3.28402207    -2.29783215
   11 H                    1.0000     0.04170498    -2.70674270    -2.42835943
   12 Si                  14.0000     2.96461727    -3.27765490    -2.31249816
   13 Si                  14.0000     2.00145126     1.64341159    -1.50383013
   14 Si                  14.0000     0.10263500     6.04576878     0.60342871
   15 Si                  14.0000    -2.79356059     4.50246738     0.78753132
   16 H                    1.0000    -2.57718233    -7.84400980     4.50437855
   17 H                    1.0000     1.03329165     4.33927709    -1.12986453
   18 H                    1.0000    -4.32756934     1.03384534     2.21189578
   19 O                    8.0000     1.77197101    -2.10370700    -2.47682867
   20 O                    8.0000    -4.49081204    -2.79001476     4.51631673
   21 O                    8.0000    -7.62185207     0.15126682     0.96744542
   22 O                    8.0000    -1.47627400     5.51838864     0.77891752
   23 O                    8.0000     0.90053318     2.70521558    -2.15876385
   24 O                    8.0000     0.61330454    -2.68690241     3.72962366
   25 O                    8.0000    -2.70394161     0.90303376     3.25311089
   26 O                    8.0000    -2.94608758     3.90383730    -0.76069950
   27 O                    8.0000     0.15264802     7.63165936     0.12077668
   28 O                    8.0000     5.03186740    -0.82620307     1.56705292
   29 O                    8.0000     2.11664529     1.75937448     3.62886359
   30 H                    1.0000     1.75817646    -1.13182255    -2.53239291
   31 H                    1.0000    -5.61744608    -5.02536890    -0.41564193
   32 O                    8.0000     0.81732231     5.03986858    -0.49390277
   33 O                    8.0000    -2.68633672    -0.60755973    -2.62791311
   34 O                    8.0000    -0.10564853    -5.27763953     4.64473679
   35 O                    8.0000     4.39519782    -2.45268024    -2.54314784
   36 Si                  14.0000     6.03684607    -0.09928781     0.47684145
   37 Si                  14.0000     3.27525432     2.95943973     3.42292134
   38 O                    8.0000    -3.88225299    -2.93201931     1.87512880
   39 O                    8.0000    -5.90277007     0.79707458    -1.03219508
   40 H                    1.0000     0.17714249     8.53561769    -0.17984253
   41 H                    1.0000     2.58317662     7.82849663     4.52553763
   42 Si                  14.0000    -1.39152640    -5.69039595     3.63208860
   43 O                    8.0000     5.23881801    -0.12311866    -3.59559368
   44 O                    8.0000     5.23126343     4.19556723    -0.13158928
   45 Si                  14.0000     0.00058830    -0.00228055     0.54660749
   46 Si                  14.0000    -4.49031048    -2.79894877     0.32887468
   47 O                    8.0000     3.88382165     2.92370667     1.88079083
   48 H                    1.0000     2.57537286    -5.17519208    -4.05529970
   49 H                    1.0000    -0.57153896     5.44005453     5.30680527
   50 Si                  14.0000    -5.67506855     1.39909011    -2.55895353
   51 O                    8.0000     5.50786488     1.48113110     0.32153904
   52 Si                  14.0000    -3.27042991    -2.97179960     3.41586678
   53 O                    8.0000    -5.23552870    -4.19706646    -0.13776060
   54 O                    8.0000     0.81267864     5.91077436     2.11532666
   55 O                    8.0000     4.18642473    -5.25323494     1.25307602
   56 H                    1.0000     2.72074983     0.02467279     3.53260391
   57 O                    8.0000    -5.24050148     0.13307543    -3.58827903
   58 Si                  14.0000    -6.03609022     0.09676535     0.48472305
   59 O                    8.0000     0.72328795    -1.12655222     1.52455109
   60 H                    1.0000    -2.57841936     5.18561695    -4.03620101
   61 H                    1.0000     3.48771423     0.32788547    -3.10326881
   62 O                    8.0000    -0.71866106     1.12207445     1.52708456
   63 O                    8.0000    -2.39324995     3.23833825     1.80254418
   64 H                    1.0000     8.52822331    -0.18000525     1.25481039
   65 O                    8.0000     1.47832904    -5.52114787     0.76025257
   66 Si                  14.0000     2.79548711    -4.50506730     0.76965871
   67 H                    1.0000     5.20952970     2.63118316     5.13876795
   68 O                    8.0000     2.11690096     7.04847258     4.23611678
   69 H                    1.0000    -7.83742916     2.56950396    -3.42940744
   70 H                    1.0000    -5.00884085     5.63172718     1.56171467
   71 H                    1.0000     7.83323310    -2.56277256    -3.44524288
   72 H                    1.0000    -5.20116309    -2.64728648     5.13641714
   73 H                    1.0000    -8.52608495     0.17785797     1.26705103
   74 O                    8.0000    -0.80882468    -5.91945392     2.09793371
   75 O                    8.0000    -3.23337741    -2.40735856    -0.69881589
   76 H                    1.0000     0.32044618    -3.49179571     4.19262007
   77 H                    1.0000    -2.71394914    -0.03787745     3.53245842
   78 O                    8.0000     0.11132085     5.26205067     4.66080736
   79 O                    8.0000     2.44418239     4.38983722     3.63611194
   80 H                    1.0000    -5.40695079    -0.51739344    -4.27008657
   81 H                    1.0000    -1.76340622     1.13769899    -2.52335259
   82 H                    1.0000    -0.17358976    -8.53684488    -0.20584087
   83 O                    8.0000    -4.39865657     2.46023716    -2.52946238
   84 O                    8.0000    -2.11095100    -1.77268449     3.62259741
   85 O                    8.0000    -5.02862048     0.81975548     1.57523907
   86 O                    8.0000     7.04944135    -2.10221308    -3.15672887
   87 H                    1.0000     4.33230966    -1.04256284     2.20455436
   88 O                    8.0000     2.71036835    -0.91510823     3.24960565
   89 O                    8.0000    -0.60726962     2.67367305     3.73855598
   90 H                    1.0000    -3.49003211    -0.31840584    -3.09735462
   91 O                    8.0000    -2.43932326    -4.40293462     3.62398411
   92 O                    8.0000     7.62344116    -0.15352720     0.95686699
   93 O                    8.0000     4.49794787     2.77530945     4.52040794
   94 O                    8.0000    -0.14946842    -7.63376243     0.09743188
   95 O                    8.0000    -5.50894380    -1.48374458     0.32416823
   96 H                    1.0000     1.14631047     1.73134820     3.70402037
   97 O                    8.0000     5.90181861    -0.79541072    -1.04183911
   98 O                    8.0000    -0.90426524    -2.70032971    -2.16590896
   99 H                    1.0000    -0.04609415     2.71221850    -2.41897484
  100 H                    1.0000     0.57718788    -5.45736589     5.29028441
  101 O                    8.0000    -7.05299491     2.10893035    -3.14266492
  102 H                    1.0000     5.40521996     0.53010372    -4.27475754
  103 O                    8.0000     2.94485571    -3.90139593    -0.77692168
  104 O                    8.0000     2.74352285    -4.48068980    -3.42361083
  105 H                    1.0000     5.01233167    -5.63682338     1.53566822
  106 Si                  14.0000     5.67253659    -1.39259326    -2.57028848
  107 O                    8.0000     1.12113221     0.71836820    -0.43719794
  108 O                    8.0000    -1.12387738    -0.72340295    -0.43240734
  109 O                    8.0000     2.39730097    -3.24436409     1.78974090
  110 Si                  14.0000     4.48822814     2.79550173     0.33272899
  111 O                    8.0000    -0.81717453    -5.04079068    -0.50862331
  112 H                    1.0000    -0.31428547     3.47702980     4.20411025
  113 H                    1.0000    -1.14053230    -1.74522125     3.69703168
  114 Si                  14.0000     1.39654482     5.67739235     3.64839094
  115 O                    8.0000     3.22933415     2.40603818    -0.69333182
  116 Si                  14.0000    -1.63451291     2.00058565     2.60403863
  117 H                    1.0000     5.61169470     5.02506407    -0.40792488
  118 Bi                  83.0000    -0.00529184     0.01574719    -5.33951572

      Atomic Mass 
      ----------- 

      O                 15.994910
      H                  1.007825
      Si                27.976930
      Bi               208.980400


 Effective nuclear repulsion energy (a.u.)   33372.0666806057

            Nuclear Dipole moment (a.u.) 
            ----------------------------
        X                 Y               Z
 ---------------- ---------------- ----------------
    -0.0000000000     0.0000000000     0.0000000000



                                Z-matrix (autoz)
                                -------- 

 Units are Angstrom for bonds and degrees for angles

      Type          Name      I     J     K     L     M      Value
      ----------- --------  ----- ----- ----- ----- ----- ----------
    1 Stretch                  1    10                       1.65247
    2 Stretch                  1    60                       0.95375
    3 Stretch                  2   111                       0.97050
    4 Stretch                  3    13                       1.67203
    5 Stretch                  3    61                       0.97456
    6 Stretch                  4    15                       1.65171
    7 Stretch                  4    70                       0.95348
    8 Stretch                  5    16                       0.95374
    9 Stretch                  5    42                       1.65656
   10 Stretch                  6    24                       1.67195
   11 Stretch                  6    59                       1.66438
   12 Stretch                  6    88                       1.66419
   13 Stretch                  6   109                       1.65836
   14 Stretch                  7    10                       1.68159
   15 Stretch                  7    81                       0.97374
   16 Stretch                  8    65                       1.67386
   17 Stretch                  8    74                       1.67576
   18 Stretch                  8    94                       1.65845
   19 Stretch                  8   111                       1.65131
   20 Stretch                  9    33                       1.67219
   21 Stretch                  9    75                       1.65716
   22 Stretch                  9    98                       1.66381
   23 Stretch                  9   108                       1.66374
   24 Stretch                 10    26                       1.65753
   25 Stretch                 10    83                       1.66746
   26 Stretch                 11    98                       0.98172
   27 Stretch                 12    19                       1.68154
   28 Stretch                 12    35                       1.66744
   29 Stretch                 12   103                       1.65754
   30 Stretch                 12   104                       1.65250
   31 Stretch                 13    23                       1.66385
   32 Stretch                 13   107                       1.66384
   33 Stretch                 13   115                       1.65717
   34 Stretch                 14    22                       1.67388
   35 Stretch                 14    27                       1.65846
   36 Stretch                 14    32                       1.65129
   37 Stretch                 14    54                       1.67577
   38 Stretch                 15    22                       1.66355
   39 Stretch                 15    26                       1.66693
   40 Stretch                 15    63                       1.66989
   41 Stretch                 17    32                       0.97052
   42 Stretch                 18    85                       0.97090
   43 Stretch                 19    30                       0.97357
   44 Stretch                 20    52                       1.65329
   45 Stretch                 20    72                       0.95367
   46 Stretch                 21    58                       1.65850
   47 Stretch                 21    73                       0.95295
   48 Stretch                 23    99                       0.98176
   49 Stretch                 24    76                       0.97365
   50 Stretch                 25    77                       0.98155
   51 Stretch                 25   116                       1.66421
   52 Stretch                 27    40                       0.95295
   53 Stretch                 28    36                       1.65135
   54 Stretch                 28    87                       0.97088
   55 Stretch                 29    37                       1.68076
   56 Stretch                 29    96                       0.97364
   57 Stretch                 31    53                       0.95350
   58 Stretch                 33    90                       0.97463
   59 Stretch                 34    42                       1.68799
   60 Stretch                 34   100                       0.95671
   61 Stretch                 35   106                       1.66016
   62 Stretch                 36    51                       1.67382
   63 Stretch                 36    92                       1.65851
   64 Stretch                 36    97                       1.67607
   65 Stretch                 37    47                       1.65825
   66 Stretch                 37    79                       1.66798
   67 Stretch                 37    93                       1.65329
   68 Stretch                 38    46                       1.66684
   69 Stretch                 38    52                       1.65825
   70 Stretch                 39    50                       1.65688
   71 Stretch                 39    58                       1.67608
   72 Stretch                 41    68                       0.95374
   73 Stretch                 42    74                       1.65700
   74 Stretch                 42    91                       1.65997
   75 Stretch                 43   102                       0.95690
   76 Stretch                 43   106                       1.68847
   77 Stretch                 44   110                       1.65163
   78 Stretch                 44   117                       0.95350
   79 Stretch                 45    59                       1.65610
   80 Stretch                 45    62                       1.65615
   81 Stretch                 45   107                       1.65615
   82 Stretch                 45   108                       1.65617
   83 Stretch                 46    53                       1.65161
   84 Stretch                 46    75                       1.67014
   85 Stretch                 46    95                       1.66355
   86 Stretch                 47   110                       1.66681
   87 Stretch                 48   104                       0.95375
   88 Stretch                 49    78                       0.95671
   89 Stretch                 50    57                       1.68854
   90 Stretch                 50    83                       1.66016
   91 Stretch                 50   101                       1.65628
   92 Stretch                 51   110                       1.66354
   93 Stretch                 52    84                       1.68078
   94 Stretch                 52    91                       1.66799
   95 Stretch                 54   114                       1.65700
   96 Stretch                 55    66                       1.65171
   97 Stretch                 55   105                       0.95348
   98 Stretch                 56    88                       0.98152
   99 Stretch                 57    80                       0.95691
  100 Stretch                 58    85                       1.65134
  101 Stretch                 58    95                       1.67382
  102 Stretch                 62   116                       1.66445
  103 Stretch                 63   116                       1.65834
  104 Stretch                 64    92                       0.95294
  105 Stretch                 65    66                       1.66355
  106 Stretch                 66   103                       1.66693
  107 Stretch                 66   109                       1.66988
  108 Stretch                 67    93                       0.95367
  109 Stretch                 68   114                       1.65656
  110 Stretch                 69   101                       0.95377
  111 Stretch                 71    86                       0.95377
  112 Stretch                 78   114                       1.68799
  113 Stretch                 79   114                       1.65997
  114 Stretch                 81   118                       3.50436
  115 Stretch                 82    94                       0.95295
  116 Stretch                 84   113                       0.97366
  117 Stretch                 86   106                       1.65630
  118 Stretch                 89   112                       0.97363
  119 Stretch                 89   116                       1.67195
  120 Stretch                 97   106                       1.65691
  121 Stretch                110   115                       1.67012
  122 Bend                     1    10     7               110.34553
  123 Bend                     1    10    26               110.33149
  124 Bend                     1    10    83               112.46042
  125 Bend                     2   111     8               166.29132
  126 Bend                     3    13    23               113.37041
  127 Bend                     3    13   107               107.90058
  128 Bend                     3    13   115               108.06675
  129 Bend                     4    15    22               113.06902
  130 Bend                     4    15    26               111.11260
  131 Bend                     4    15    63               111.34624
  132 Bend                     5    42    34               108.77622
  133 Bend                     5    42    74               111.40643
  134 Bend                     5    42    91               111.72797
  135 Bend                     6    24    76               147.32138
  136 Bend                     6    59    45               168.81625
  137 Bend                     6    88    56               138.55065
  138 Bend                     6   109    66               165.56539
  139 Bend                     7    10    26               110.16135
  140 Bend                     7    10    83               104.44118
  141 Bend                     7    81   118               111.92185
  142 Bend                     8    65    66               160.06061
  143 Bend                     8    42     5               113.71709
  144 Bend                     8    42    34               106.26205
  145 Bend                     8    42    91               108.90482
  146 Bend                     9    33    90               147.49386
  147 Bend                     9    75    46               164.95227
  148 Bend                     9    98    11               138.37492
  149 Bend                     9   108    45               168.68978
  150 Bend                    10     7    81               135.39411
  151 Bend                    10    15     4               113.36659
  152 Bend                    10    15    22               105.10940
  153 Bend                    10    15    63               107.42449
  154 Bend                    10    83    50               167.99494
  155 Bend                    12    19    30               135.44352
  156 Bend                    12    35   106               168.04288
  157 Bend                    12    66    55               113.33136
  158 Bend                    12    66    65               105.11452
  159 Bend                    12    66   109               107.45608
  160 Bend                    13     3    61               147.62373
  161 Bend                    13    23    99               138.31992
  162 Bend                    13   107    45               168.72917
  163 Bend                    13   115   110               165.08422
  164 Bend                    14    22    15               160.03022
  165 Bend                    14    32    17               166.28747
  166 Bend                    14   114    68               113.70046
  167 Bend                    14   114    78               106.25427
  168 Bend                    14   114    79               108.92773
  169 Bend                    15    10     1               110.38716
  170 Bend                    15    10     7               108.17231
  171 Bend                    15    10    83               110.80479
  172 Bend                    15    63   116               165.57423
  173 Bend                    16    42    34               110.33544
  174 Bend                    16    42    74               110.81259
  175 Bend                    16    42    91               110.79663
  176 Bend                    18    85    58               165.95556
  177 Bend                    19    12    35               104.45288
  178 Bend                    19    12   103               110.16919
  179 Bend                    19    12   104               110.34357
  180 Bend                    20    52    38               110.08778
  181 Bend                    20    52    84               110.42012
  182 Bend                    20    52    91               112.27725
  183 Bend                    21    58    39               109.01061
  184 Bend                    21    58    85               112.13160
  185 Bend                    21    58    95               111.10461
  186 Bend                    22    14    27               111.11451
  187 Bend                    22    14    32               106.61826
  188 Bend                    22    14    54               106.24246
  189 Bend                    22    15    26               106.67605
  190 Bend                    22    15    63               105.99933
  191 Bend                    23    13   107               104.89546
  192 Bend                    23    13   115               112.89866
  193 Bend                    24     6    59               108.25686
  194 Bend                    24     6    88               113.31408
  195 Bend                    24     6   109               107.97169
  196 Bend                    25   116    62               104.94262
  197 Bend                    25   116    63               112.75119
  198 Bend                    25   116    89               113.30751
  199 Bend                    26    10    83               108.94487
  200 Bend                    26    15    63               108.33826
  201 Bend                    27    14    32               112.08976
  202 Bend                    27    14    54               109.07573
  203 Bend                    28    36    51               106.53231
  204 Bend                    28    36    92               112.13035
  205 Bend                    28    36    97               111.49040
  206 Bend                    29    37    47               110.58189
  207 Bend                    29    37    79               104.66565
  208 Bend                    29    37    93               110.42273
  209 Bend                    31    46    38               110.78425
  210 Bend                    31    46    75               110.50393
  211 Bend                    31    46    95               114.21018
  212 Bend                    32    14    54               111.53620
  213 Bend                    33     9    75               108.05342
  214 Bend                    33     9    98               113.33842
  215 Bend                    33     9   108               107.90530
  216 Bend                    34    42    74               108.74475
  217 Bend                    34    42    91               107.10500
  218 Bend                    35    12   103               108.93867
  219 Bend                    35    12   104               112.45567
  220 Bend                    35   106    43               107.00047
  221 Bend                    35   106    86               111.82859
  222 Bend                    35   106    97               108.75572
  223 Bend                    36    28    87               165.95524
  224 Bend                    36    51   110               159.90120
  225 Bend                    36   106    35               108.49329
  226 Bend                    36   106    43               106.96196
  227 Bend                    36   106    86               113.54141
  228 Bend                    37    29    96               135.80777
  229 Bend                    37   110    44               112.56551
  230 Bend                    37   110    51               105.59925
  231 Bend                    37   110   115               107.91520
  232 Bend                    37    79   114               168.68640
  233 Bend                    38    46    53               111.04564
  234 Bend                    38    46    75               108.36036
  235 Bend                    38    46    95               106.80504
  236 Bend                    38    52    84               110.59078
  237 Bend                    38    52    91               108.68421
  238 Bend                    39    50    57               108.94539
  239 Bend                    39    50    83               108.75575
  240 Bend                    39    50   101               111.47729
  241 Bend                    39    58    85               111.48207
  242 Bend                    39    58    95               106.41961
  243 Bend                    40    14    22               111.02554
  244 Bend                    40    14    32               111.66406
  245 Bend                    40    14    54               109.59402
  246 Bend                    41   114    54               110.80853
  247 Bend                    41   114    78               110.33948
  248 Bend                    41   114    79               110.79436
  249 Bend                    42    34   100               154.49758
  250 Bend                    42     8    65               103.64447
  251 Bend                    42     8    94               111.13494
  252 Bend                    42     8   111               111.83470
  253 Bend                    42    91    52               168.69004
  254 Bend                    43   106    86               108.70263
  255 Bend                    43   106    97               108.94887
  256 Bend                    44   110    47               111.04074
  257 Bend                    44   110    51               113.08684
  258 Bend                    44   110   115               111.35040
  259 Bend                    45    62   116               168.62303
  260 Bend                    46    52    20               109.97203
  261 Bend                    46    52    84               109.28812
  262 Bend                    46    52    91               110.08259
  263 Bend                    46    95    58               159.90089
  264 Bend                    47    37    79               108.67482
  265 Bend                    47    37    93               110.09178
  266 Bend                    47   110    51               106.81471
  267 Bend                    47   110   115               108.37313
  268 Bend                    48    12    19               109.69988
  269 Bend                    48    12    35               113.32481
  270 Bend                    48    12   103               110.10953
  271 Bend                    49    78   114               154.50955
  272 Bend                    50    58    21               110.90488
  273 Bend                    50    58    85               111.48185
  274 Bend                    50    58    95               104.32685
  275 Bend                    50    57    80               154.05841
  276 Bend                    51    36    92               111.10406
  277 Bend                    51    36    97               106.41690
  278 Bend                    51   110   115               105.88052
  279 Bend                    52    46    53               112.58058
  280 Bend                    52    46    75               107.90715
  281 Bend                    52    46    95               105.57357
  282 Bend                    52    84   113               135.81389
  283 Bend                    53    46    75               111.35840
  284 Bend                    53    46    95               113.08972
  285 Bend                    54   114    68               111.40154
  286 Bend                    54   114    78               108.74069
  287 Bend                    54   114    79               108.95265
  288 Bend                    55    66    65               113.06380
  289 Bend                    55    66   103               111.10794
  290 Bend                    55    66   109               111.34548
  291 Bend                    57    50    83               106.98951
  292 Bend                    57    50   101               108.69967
  293 Bend                    58    50    57               106.96801
  294 Bend                    58    50    83               108.48611
  295 Bend                    58    50   101               113.54754
  296 Bend                    59     6    88               104.95205
  297 Bend                    59     6   109               109.44212
  298 Bend                    59    45    62               107.50596
  299 Bend                    59    45   107               110.54386
  300 Bend                    59    45   108               110.47306
  301 Bend                    60    10     7               109.70343
  302 Bend                    60    10    26               110.11247
  303 Bend                    60    10    83               113.33059
  304 Bend                    62    45   107               110.49388
  305 Bend                    62    45   108               110.53021
  306 Bend                    62   116    63               109.44964
  307 Bend                    62   116    89               108.26822
  308 Bend                    63   116    89               107.97395
  309 Bend                    64    36    28               111.73672
  310 Bend                    64    36    51               110.99903
  311 Bend                    64    36    97               109.51029
  312 Bend                    65     8    74               106.24279
  313 Bend                    65     8    94               111.11355
  314 Bend                    65     8   111               106.62343
  315 Bend                    65    66   103               106.67232
  316 Bend                    65    66   109               106.00847
  317 Bend                    66    12    19               108.21126
  318 Bend                    66    12    35               110.78336
  319 Bend                    66    12   104               110.36842
  320 Bend                    67    37    29               109.93710
  321 Bend                    67    37    47               109.70348
  322 Bend                    67    37    79               113.18027
  323 Bend                    68   114    78               108.78109
  324 Bend                    68   114    79               111.72561
  325 Bend                    69    50    39               110.89285
  326 Bend                    69    50    57               110.26505
  327 Bend                    69    50    83               110.88573
  328 Bend                    70    15    22               114.22440
  329 Bend                    70    15    26               110.73209
  330 Bend                    70    15    63               110.57807
  331 Bend                    71   106    35               110.87773
  332 Bend                    71   106    43               110.26682
  333 Bend                    71   106    97               110.88546
  334 Bend                    72    52    38               109.69712
  335 Bend                    72    52    84               109.93754
  336 Bend                    72    52    91               113.17627
  337 Bend                    73    58    39               109.51300
  338 Bend                    73    58    85               111.73494
  339 Bend                    73    58    95               111.00025
  340 Bend                    74     8    94               109.08037
  341 Bend                    74     8   111               111.53214
  342 Bend                    74    42    91               108.94551
  343 Bend                    75     9    98               112.93066
  344 Bend                    75     9   108               109.51971
  345 Bend                    75    46    95               105.88580
  346 Bend                    77    25   116               138.56832
  347 Bend                    78   114    79               107.10435
  348 Bend                    79    37    93               112.28074
  349 Bend                    82     8    65               111.02632
  350 Bend                    82     8    74               109.59592
  351 Bend                    82     8   111               111.66022
  352 Bend                    83    50   101               111.83643
  353 Bend                    84    52    91               104.65786
  354 Bend                    85    58    95               106.53597
  355 Bend                    86   106    97               111.46884
  356 Bend                    88     6   109               112.75529
  357 Bend                    92    36    97               109.01037
  358 Bend                    94     8   111               112.08483
  359 Bend                    98     9   108               104.91735
  360 Bend                   102    43   106               154.10160
  361 Bend                   103    12   104               110.32593
  362 Bend                   103    66   109               108.34440
  363 Bend                   105    66    65               114.21856
  364 Bend                   105    66   103               110.73273
  365 Bend                   105    66   109               110.57269
  366 Bend                   106    36    28               111.50281
  367 Bend                   106    36    51               104.31282
  368 Bend                   106    36    92               110.90255
  369 Bend                   107    13   115               109.53293
  370 Bend                   107    45   108               107.31901
  371 Bend                   110    37    29               109.28504
  372 Bend                   110    37    79               110.05727
  373 Bend                   110    37    93               109.98569
  374 Bend                   112    89   116               147.30066
  375 Bend                   114    14    22               103.64308
  376 Bend                   114    14    27               111.11831
  377 Bend                   114    14    32               111.85202
  378 Bend                   117   110    47               110.77707
  379 Bend                   117   110    51               114.21183
  380 Bend                   117   110   115               110.49375
  381 Torsion                  1    10     7    81        -131.86724
  382 Torsion                  1    10    15     4          79.49503
  383 Torsion                  1    10    15    22         -44.47663
  384 Torsion                  1    10    15    63        -157.05614
  385 Torsion                 10     1    26    15         171.97428
  386 Torsion                  1    10    83    50         162.72183
  387 Torsion                  2   111     8    65          -3.70273
  388 Torsion                  2   111     8    74         111.86686
  389 Torsion                  2   111     8    94        -125.49463
  390 Torsion                  3    13    23    99          82.76832
  391 Torsion                  3    13   107    45        -125.75615
  392 Torsion                  3    13   115   110         -78.28707
  393 Torsion                  4    15    22    14         178.39026
  394 Torsion                  4    15    10     7        -159.68269
  395 Torsion                  4    15    10    83         -45.75979
  396 Torsion                 10    26     4    15        -178.49459
  397 Torsion                  4    15    63   116        -167.80905
  398 Torsion                  5    42    34   100          23.35707
  399 Torsion                  5    42     8    65        -127.31781
  400 Torsion                  5    42     8    94          -7.89507
  401 Torsion                  5    42     8   111         118.20052
  402 Torsion                  8    74     5    42         173.89425
  403 Torsion                  5    42    91    52        -164.48767
  404 Torsion                  6    59    45    62         -65.32097
  405 Torsion                  6    59    45   107          55.35922
  406 Torsion                  6    59    45   108         173.99622
  407 Torsion                  6   109    66    55        -167.76305
  408 Torsion                  6   109    66    65         -44.41664
  409 Torsion                  6   109    66   103          69.76204
  410 Torsion                 10     7     1    60         177.02284
  411 Torsion                  7    10    15    22          76.34565
  412 Torsion                  7    10    15    63         -36.23386
  413 Torsion                 10     7    26    15        -176.34912
  414 Torsion                  7    10    83    50          43.05503
  415 Torsion                  8    65    66    55         178.55177
  416 Torsion                  8    65    66   103         -59.02920
  417 Torsion                  8    65    66   109          56.29367
  418 Torsion                  9    75    46    38         -69.38090
  419 Torsion                  9    75    46    53         168.20306
  420 Torsion                  9    75    46    95          44.89749
  421 Torsion                  9   108    45    59         -54.70822
  422 Torsion                  9   108    45    62        -173.56852
  423 Torsion                  9   108    45   107          65.87537
  424 Torsion                 10     7    81   118         127.17804
  425 Torsion                 10    83    50    39          42.56823
  426 Torsion                 10    83    50    57         -74.96536
  427 Torsion                 10    83    50   101         166.11520
  428 Torsion                 11    98     9    33          82.58763
  429 Torsion                 11    98     9    75        -154.11334
  430 Torsion                 11    98     9   108         -34.89391
  431 Torsion                 12    35   106    43         -75.25115
  432 Torsion                 12    35   106    86         165.82340
  433 Torsion                 12    35   106    97          42.29246
  434 Torsion                 13   107    45    59        -171.36344
  435 Torsion                 13   107    45    62         -52.48130
  436 Torsion                 13   107    45   108          68.09783
  437 Torsion                 13   115   110    44         167.60511
  438 Torsion                 13   115   110    47         -69.98151
  439 Torsion                 13   115   110    51          44.31131
  440 Torsion                 14    22    15    26         -59.17901
  441 Torsion                 14    22    15    63          56.13430
  442 Torsion                 15    22    14    27         148.20354
  443 Torsion                 15    22    14    32          25.79529
  444 Torsion                 15    22    14    54         -93.28054
  445 Torsion                 15    63   116    25        -154.71770
  446 Torsion                 15    63   116    62         -38.31888
  447 Torsion                 15    63   116    89          79.33014
  448 Torsion                 17    32    14    22          -3.70006
  449 Torsion                 17    32    14    27        -125.49270
  450 Torsion                 17    32    14    54         111.86826
  451 Torsion                 18    85    58    21         124.34311
  452 Torsion                 18    85    58    39        -113.11192
  453 Torsion                 18    85    58    95           2.59203
  454 Torsion                 19    12    35   106          43.36562
  455 Torsion                 19    12    66    55        -159.75342
  456 Torsion                 19    12    66    65          76.29957
  457 Torsion                 19    12    66   109         -36.30596
  458 Torsion                 12    19   103    66        -176.35469
  459 Torsion                 12    19   104    48         177.03216
  460 Torsion                 20    52    46    53         -77.82104
  461 Torsion                 20    52    46    75         158.88764
  462 Torsion                 20    52    46    95          46.01537
  463 Torsion                 46    38    20    52        -174.44299
  464 Torsion                 20    52    84   113         131.34847
  465 Torsion                 20    52    91    42        -166.19404
  466 Torsion                 21    58    50    57        -112.64442
  467 Torsion                 21    58    50    83         132.26022
  468 Torsion                 21    58    50   101           7.26423
  469 Torsion                 50    39    21    58         174.92948
  470 Torsion                 21    58    95    46        -148.20383
  471 Torsion                 14    22    27    40         177.43036
  472 Torsion                 22    14   114    68        -127.27713
  473 Torsion                 22    14   114    78          -7.65790
  474 Torsion                 22    14   114    79         107.41996
  475 Torsion                 14    22    54   114        -177.37455
  476 Torsion                 15    22     4    70         178.75599
  477 Torsion                 22    15    10    83        -169.73145
  478 Torsion                 10    26    22    15        -174.77281
  479 Torsion                 22    15    63   116         -44.46177
  480 Torsion                 23    13     3    61         115.15414
  481 Torsion                 23    13   107    45          -4.60718
  482 Torsion                 23    13   115   110         155.50434
  483 Torsion                 24     6    59    45         122.79061
  484 Torsion                 24     6    88    56         -80.76404
  485 Torsion                 24     6   109    66          79.19616
  486 Torsion                 25   116    62    45           1.30233
  487 Torsion                 25   116    89   112        -116.07566
  488 Torsion                 10    26     1    60        -175.81381
  489 Torsion                 26    10     7    81         106.06596
  490 Torsion                 26    10    83    50         -74.63504
  491 Torsion                 15    26     4    70        -174.77479
  492 Torsion                 26    15    63   116          69.71386
  493 Torsion                 27    14   114    68          -7.86232
  494 Torsion                 27    14   114    78         111.75691
  495 Torsion                 27    14   114    79        -133.16523
  496 Torsion                 14    27    54   114        -172.96124
  497 Torsion                 28    36    51   110         -25.68346
  498 Torsion                 36    28    92    64         178.38260
  499 Torsion                 28    36   106    35           6.66443
  500 Torsion                 28    36   106    43         121.77299
  501 Torsion                 28    36   106    86        -118.32247
  502 Torsion                 36    28    97   106        -171.67736
  503 Torsion                 29    37   110    44         160.78784
  504 Torsion                 29    37   110    51         -75.37094
  505 Torsion                 29    37   110   115          37.51088
  506 Torsion                 37    29    47   110         176.94695
  507 Torsion                 29    37    79   114         -46.59933
  508 Torsion                 37    29    93    67        -176.48610
  509 Torsion                 30    19    12    35         -10.75148
  510 Torsion                 30    19    12   103         106.10330
  511 Torsion                 30    19    12   104        -131.83295
  512 Torsion                 14    32    27    40        -178.38548
  513 Torsion                 32    14   114    68         118.24021
  514 Torsion                 32    14   114    78        -122.14057
  515 Torsion                 32    14   114    79          -7.06271
  516 Torsion                 14    32    54   114         170.09321
  517 Torsion                 33     9    75    46         -78.81589
  518 Torsion                 33     9   108    45        -123.59543
  519 Torsion                 16     5    34    42        -178.86274
  520 Torsion                 34    42     8    65          -7.68966
  521 Torsion                 34    42     8    94         111.73307
  522 Torsion                 34    42     8   111        -122.17134
  523 Torsion                  8    74    34    42         176.21172
  524 Torsion                 34    42    91    52          76.48920
  525 Torsion                 35    12    66    55         -45.80601
  526 Torsion                 35    12    66    65        -169.75302
  527 Torsion                 35    12    66   109          77.64145
  528 Torsion                 12    35   103    66        -175.05968
  529 Torsion                 12    35   104    48         178.49599
  530 Torsion                 35   106    43   102        -139.64232
  531 Torsion                 71    86    35   106         174.20338
  532 Torsion                 35   106    36    51        -107.92764
  533 Torsion                 35   106    36    92         132.38844
  534 Torsion                 36    97    35   106         172.16788
  535 Torsion                 36    51   110    44        -178.79416
  536 Torsion                 36    51   110    47          58.75759
  537 Torsion                 36    51   110   115         -56.60344
  538 Torsion                 37    79   114    54         -40.83566
  539 Torsion                 37    79   114    68        -164.35057
  540 Torsion                 37    79   114    78          76.62212
  541 Torsion                 31    53    38    46         174.59845
  542 Torsion                 38    46    95    58          58.83986
  543 Torsion                 52    38    20    72         176.21673
  544 Torsion                 38    52    84   113        -106.55353
  545 Torsion                 38    52    91    42          71.77683
  546 Torsion                 39    50    57    80         103.09001
  547 Torsion                 50    39   101    69        -173.12919
  548 Torsion                 58    39    21    73         179.32215
  549 Torsion                 39    58    95    46          93.25783
  550 Torsion                 42    91    52    84         -46.40028
  551 Torsion                 71    86    43   106         178.74784
  552 Torsion                 43   106    36    51           7.18092
  553 Torsion                 43   106    36    92        -112.50300
  554 Torsion                 36    97    43   106        -176.11375
  555 Torsion                 44   110    37    79          46.37569
  556 Torsion                 44   110    37    93         -77.83744
  557 Torsion                 37    47    44   110         178.30025
  558 Torsion                 45    59     6    88           1.49521
  559 Torsion                 45    59     6   109        -119.75827
  560 Torsion                 45    62   116    63        -119.94483
  561 Torsion                 45    62   116    89         122.59070
  562 Torsion                 45   107    13   115         116.83142
  563 Torsion                 45   108     9    75         119.01262
  564 Torsion                 45   108     9    98          -2.46960
  565 Torsion                 46    75     9    98         155.00440
  566 Torsion                 46    75     9   108          38.48312
  567 Torsion                 46    95    58    85         -25.80334
  568 Torsion                 47    37    29    96        -106.45514
  569 Torsion                 47    37    79   114          71.56708
  570 Torsion                 37    47    93    67         176.20663
  571 Torsion                110    47    44   117         174.58079
  572 Torsion                 49    78   114    54         -98.04064
  573 Torsion                 49    78   114    68          23.45103
  574 Torsion                 49    78   114    79         144.36275
  575 Torsion                 51    36    28    87           2.49981
  576 Torsion                 36    51    92    64        -177.56881
  577 Torsion                 51    36   106    86         127.08545
  578 Torsion                 36    51    97   106         176.99742
  579 Torsion                110    51    44   117        -178.10835
  580 Torsion                 51   110    37    79         170.21691
  581 Torsion                 51   110    37    93          46.00378
  582 Torsion                 37    47    51   110         176.73752
  583 Torsion                 52    91    42    74         -40.96998
  584 Torsion                 53    46    52    84         160.81413
  585 Torsion                 53    46    52    91          46.39566
  586 Torsion                 46    53    38    52         178.25107
  587 Torsion                 53    46    95    58        -178.71066
  588 Torsion                 14    54    27    40        -179.20559
  589 Torsion                 41    68    54   114         173.20427
  590 Torsion                 55    66    12   104          79.41355
  591 Torsion                 12   103    55    66        -178.45551
  592 Torsion                 56    88     6    59          37.15184
  593 Torsion                 56    88     6   109         156.20438
  594 Torsion                 57    50    58    85         121.64396
  595 Torsion                 57    50    58    95           7.04956
  596 Torsion                 50    57    39    58        -176.10391
  597 Torsion                 50    57   101    69         178.75072
  598 Torsion                 58    95    46    75         -56.50465
  599 Torsion                 59     6    24    76         127.99817
  600 Torsion                 59     6   109    66         -38.43385
  601 Torsion                 59    45    62   116         -65.32322
  602 Torsion                 61     3    13   107        -129.13353
  603 Torsion                 61     3    13   115         -10.77775
  604 Torsion                 62   116    25    77          37.16122
  605 Torsion                 62   116    89   112         127.95556
  606 Torsion                 15    63     4    70         175.90263
  607 Torsion                 63    15    10    83          77.68905
  608 Torsion                 10    26    63    15         173.13145
  609 Torsion                 63   116    25    77         156.21474
  610 Torsion                 63   116    89   112           9.54846
  611 Torsion                 65     8    42    91         107.38191
  612 Torsion                  8    65    74    42        -177.33158
  613 Torsion                  8    65    94    82         177.44059
  614 Torsion                 66    65    55   105         178.72642
  615 Torsion                 65    66    12   104         -44.53347
  616 Torsion                 12   103    65    66        -174.86745
  617 Torsion                 66    65     8    74         -93.39421
  618 Torsion                 66    65     8    94         148.08462
  619 Torsion                 66    65     8   111          25.67966
  620 Torsion                 66   109     6    88        -154.84200
  621 Torsion                 14    54    68   114         173.85488
  622 Torsion                  8    74    94    82        -179.20284
  623 Torsion                 16     5    74    42         173.20193
  624 Torsion                 74    42    34   100         -98.14008
  625 Torsion                 75     9    33    90         -10.94925
  626 Torsion                 75    46    52    84          37.52281
  627 Torsion                 75    46    52    91         -76.89565
  628 Torsion                 46    75    38    52        -174.85763
  629 Torsion                 31    53    75    46        -176.32202
  630 Torsion                 76    24     6    88        -116.02491
  631 Torsion                 76    24     6   109           9.60746
  632 Torsion                 77    25   116    89         -80.75899
  633 Torsion                 14    54    78   114         176.25965
  634 Torsion                 41    68    78   114        -178.86099
  635 Torsion                 79    37    29    96          10.40541
  636 Torsion                 79    37   110   115         -76.90127
  637 Torsion                 37    79    47   110         177.09693
  638 Torsion                 37    79    93    67        -179.51121
  639 Torsion                 14    54    79   114        -170.57620
  640 Torsion                 41    68    79   114        -174.18671
  641 Torsion                 80    57    50    83        -139.50093
  642 Torsion                 80    57    50   101         -18.56887
  643 Torsion                 81     7    10    83         -10.78599
  644 Torsion                 10    83     1    60         178.50708
  645 Torsion                 10    83    26    15        -174.95218
  646 Torsion                 83    50    58    85           6.54860
  647 Torsion                 83    50    58    95        -108.04580
  648 Torsion                 50    83    39    58         172.19540
  649 Torsion                 50    83   101    69         174.19610
  650 Torsion                 52    84    20    72        -176.48107
  651 Torsion                 84    52    46    95         -75.34946
  652 Torsion                 46    38    84    52         176.89890
  653 Torsion                 58    85    21    73         178.37829
  654 Torsion                 85    58    50   101        -118.44740
  655 Torsion                 50    39    85    58        -171.70641
  656 Torsion                 86   106    43   102         -18.71164
  657 Torsion                 86   106    36    92           7.40153
  658 Torsion                 36    97    86   106        -175.68676
  659 Torsion                 87    28    36    92         124.24704
  660 Torsion                 87    28    36    97        -113.20310
  661 Torsion                 90    33     9    98         114.99119
  662 Torsion                 90    33     9   108        -129.28472
  663 Torsion                 16     5    91    42        -174.18249
  664 Torsion                 91    42    34   100         144.26925
  665 Torsion                 91    42     8    94        -133.19535
  666 Torsion                 91    42     8   111          -7.09976
  667 Torsion                  8    74    91    42        -170.57229
  668 Torsion                 52    91    20    72        -179.52670
  669 Torsion                 91    52    46    95         170.23208
  670 Torsion                 46    38    91    52         177.09760
  671 Torsion                 91    52    84   113          10.31802
  672 Torsion                 92    36    51   110        -148.07974
  673 Torsion                 36    92    97   106         174.87545
  674 Torsion                 93    37    29    96         131.44603
  675 Torsion                 93    37   110   115         158.88561
  676 Torsion                 37    93    47   110        -174.48415
  677 Torsion                 93    37    79   114        -166.40297
  678 Torsion                  8    94    74    42        -172.98745
  679 Torsion                 46    95    38    52         176.73505
  680 Torsion                 31    53    95    46        -178.11000
  681 Torsion                 58    95    21    73        -177.55374
  682 Torsion                 95    58    50   101         126.95820
  683 Torsion                 50    39    95    58         176.96914
  684 Torsion                 97    36    51   110          93.38415
  685 Torsion                 36    97    92    64         179.33225
  686 Torsion                 97   106    43   102         102.94086
  687 Torsion                 71    86    97   106        -173.13289
  688 Torsion                 99    23    13   107         -34.71060
  689 Torsion                 99    23    13   115        -153.91489
  690 Torsion                 50   101    39    58        -175.72487
  691 Torsion                103    12    35   106         -74.33674
  692 Torsion                 12   103   104    48        -175.81178
  693 Torsion                 66   103    55   105        -174.76249
  694 Torsion                104    12    35   106         163.03481
  695 Torsion                104    12    66   109        -157.13899
  696 Torsion                 12   104   103    66         172.07781
  697 Torsion                107    13   115   110          39.02113
  698 Torsion                107    45    62   116         173.96508
  699 Torsion                108    45    62   116          55.32354
  700 Torsion                 66   109    55   105         175.91903
  701 Torsion                 12   103   109    66         173.18857
  702 Torsion                  8   111    74    42         170.08211
  703 Torsion                  8   111    94    82        -178.39773
  704 Torsion                110   115    44   117        -176.30430
  705 Torsion                 37    47   115   110        -174.90895


            XYZ format geometry
            -------------------
   118
 geometry
 O                    -2.74651876     4.48960075    -3.40615965
 H                    -1.03456946    -4.33853627    -1.14222158
 O                     2.68460293     0.61624084    -2.63249927
 O                    -4.18346539     5.24903261     1.27635888
 O                    -2.11123031    -7.06314199     4.21671611
 Si                    1.63990831    -2.00956257     2.59706087
 O                    -1.77572537     2.10966411    -2.46589546
 Si                   -0.10030017    -6.04932980     0.58489424
 Si                   -2.00434044    -1.64164537    -1.50462558
 Si                   -2.96751930     3.28402207    -2.29783215
 H                     0.04170498    -2.70674270    -2.42835943
 Si                    2.96461727    -3.27765490    -2.31249816
 Si                    2.00145126     1.64341159    -1.50383013
 Si                    0.10263500     6.04576878     0.60342871
 Si                   -2.79356059     4.50246738     0.78753132
 H                    -2.57718233    -7.84400980     4.50437855
 H                     1.03329165     4.33927709    -1.12986453
 H                    -4.32756934     1.03384534     2.21189578
 O                     1.77197101    -2.10370700    -2.47682867
 O                    -4.49081204    -2.79001476     4.51631673
 O                    -7.62185207     0.15126682     0.96744542
 O                    -1.47627400     5.51838864     0.77891752
 O                     0.90053318     2.70521558    -2.15876385
 O                     0.61330454    -2.68690241     3.72962366
 O                    -2.70394161     0.90303376     3.25311089
 O                    -2.94608758     3.90383730    -0.76069950
 O                     0.15264802     7.63165936     0.12077668
 O                     5.03186740    -0.82620307     1.56705292
 O                     2.11664529     1.75937448     3.62886359
 H                     1.75817646    -1.13182255    -2.53239291
 H                    -5.61744608    -5.02536890    -0.41564193
 O                     0.81732231     5.03986858    -0.49390277
 O                    -2.68633672    -0.60755973    -2.62791311
 O                    -0.10564853    -5.27763953     4.64473679
 O                     4.39519782    -2.45268024    -2.54314784
 Si                    6.03684607    -0.09928781     0.47684145
 Si                    3.27525432     2.95943973     3.42292134
 O                    -3.88225299    -2.93201931     1.87512880
 O                    -5.90277007     0.79707458    -1.03219508
 H                     0.17714249     8.53561769    -0.17984253
 H                     2.58317662     7.82849663     4.52553763
 Si                   -1.39152640    -5.69039595     3.63208860
 O                     5.23881801    -0.12311866    -3.59559368
 O                     5.23126343     4.19556723    -0.13158928
 Si                    0.00058830    -0.00228055     0.54660749
 Si                   -4.49031048    -2.79894877     0.32887468
 O                     3.88382165     2.92370667     1.88079083
 H                     2.57537286    -5.17519208    -4.05529970
 H                    -0.57153896     5.44005453     5.30680527
 Si                   -5.67506855     1.39909011    -2.55895353
 O                     5.50786488     1.48113110     0.32153904
 Si                   -3.27042991    -2.97179960     3.41586678
 O                    -5.23552870    -4.19706646    -0.13776060
 O                     0.81267864     5.91077436     2.11532666
 O                     4.18642473    -5.25323494     1.25307602
 H                     2.72074983     0.02467279     3.53260391
 O                    -5.24050148     0.13307543    -3.58827903
 Si                   -6.03609022     0.09676535     0.48472305
 O                     0.72328795    -1.12655222     1.52455109
 H                    -2.57841936     5.18561695    -4.03620101
 H                     3.48771423     0.32788547    -3.10326881
 O                    -0.71866106     1.12207445     1.52708456
 O                    -2.39324995     3.23833825     1.80254418
 H                     8.52822331    -0.18000525     1.25481039
 O                     1.47832904    -5.52114787     0.76025257
 Si                    2.79548711    -4.50506730     0.76965871
 H                     5.20952970     2.63118316     5.13876795
 O                     2.11690096     7.04847258     4.23611678
 H                    -7.83742916     2.56950396    -3.42940744
 H                    -5.00884085     5.63172718     1.56171467
 H                     7.83323310    -2.56277256    -3.44524288
 H                    -5.20116309    -2.64728648     5.13641714
 H                    -8.52608495     0.17785797     1.26705103
 O                    -0.80882468    -5.91945392     2.09793371
 O                    -3.23337741    -2.40735856    -0.69881589
 H                     0.32044618    -3.49179571     4.19262007
 H                    -2.71394914    -0.03787745     3.53245842
 O                     0.11132085     5.26205067     4.66080736
 O                     2.44418239     4.38983722     3.63611194
 H                    -5.40695079    -0.51739344    -4.27008657
 H                    -1.76340622     1.13769899    -2.52335259
 H                    -0.17358976    -8.53684488    -0.20584087
 O                    -4.39865657     2.46023716    -2.52946238
 O                    -2.11095100    -1.77268449     3.62259741
 O                    -5.02862048     0.81975548     1.57523907
 O                     7.04944135    -2.10221308    -3.15672887
 H                     4.33230966    -1.04256284     2.20455436
 O                     2.71036835    -0.91510823     3.24960565
 O                    -0.60726962     2.67367305     3.73855598
 H                    -3.49003211    -0.31840584    -3.09735462
 O                    -2.43932326    -4.40293462     3.62398411
 O                     7.62344116    -0.15352720     0.95686699
 O                     4.49794787     2.77530945     4.52040794
 O                    -0.14946842    -7.63376243     0.09743188
 O                    -5.50894380    -1.48374458     0.32416823
 H                     1.14631047     1.73134820     3.70402037
 O                     5.90181861    -0.79541072    -1.04183911
 O                    -0.90426524    -2.70032971    -2.16590896
 H                    -0.04609415     2.71221850    -2.41897484
 H                     0.57718788    -5.45736589     5.29028441
 O                    -7.05299491     2.10893035    -3.14266492
 H                     5.40521996     0.53010372    -4.27475754
 O                     2.94485571    -3.90139593    -0.77692168
 O                     2.74352285    -4.48068980    -3.42361083
 H                     5.01233167    -5.63682338     1.53566822
 Si                    5.67253659    -1.39259326    -2.57028848
 O                     1.12113221     0.71836820    -0.43719794
 O                    -1.12387738    -0.72340295    -0.43240734
 O                     2.39730097    -3.24436409     1.78974090
 Si                    4.48822814     2.79550173     0.33272899
 O                    -0.81717453    -5.04079068    -0.50862331
 H                    -0.31428547     3.47702980     4.20411025
 H                    -1.14053230    -1.74522125     3.69703168
 Si                    1.39654482     5.67739235     3.64839094
 O                     3.22933415     2.40603818    -0.69333182
 Si                   -1.63451291     2.00058565     2.60403863
 H                     5.61169470     5.02506407    -0.40792488
 Bi                   -0.00529184     0.01574719    -5.33951572

 ==============================================================================
                                internuclear distances
 ------------------------------------------------------------------------------
       center one      |      center two      | atomic units |  angstroms
 ------------------------------------------------------------------------------
   10 Si               |   1 O                |     3.12271  |     1.65247
   10 Si               |   7 O                |     3.17774  |     1.68159
   13 Si               |   3 O                |     3.15967  |     1.67203
   15 Si               |   4 O                |     3.12128  |     1.65171
   16 H                |   5 O                |     1.80230  |     0.95374
   19 O                |  12 Si               |     3.17764  |     1.68154
   22 O                |  14 Si               |     3.16318  |     1.67388
   22 O                |  15 Si               |     3.14366  |     1.66355
   23 O                |  13 Si               |     3.14421  |     1.66385
   24 O                |   6 Si               |     3.15952  |     1.67195
   26 O                |  10 Si               |     3.13228  |     1.65753
   26 O                |  15 Si               |     3.15003  |     1.66693
   27 O                |  14 Si               |     3.13404  |     1.65846
   30 H                |  19 O                |     1.83978  |     0.97357
   32 O                |  14 Si               |     3.12048  |     1.65129
   32 O                |  17 H                |     1.83403  |     0.97052
   33 O                |   9 Si               |     3.15999  |     1.67219
   35 O                |  12 Si               |     3.15100  |     1.66744
   36 Si               |  28 O                |     3.12059  |     1.65135
   37 Si               |  29 O                |     3.17617  |     1.68076
   40 H                |  27 O                |     1.80081  |     0.95295
   42 Si               |   5 O                |     3.13045  |     1.65656
   42 Si               |  34 O                |     3.18984  |     1.68799
   46 Si               |  38 O                |     3.14986  |     1.66684
   47 O                |  37 Si               |     3.13364  |     1.65825
   50 Si               |  39 O                |     3.13106  |     1.65688
   51 O                |  36 Si               |     3.16306  |     1.67382
   52 Si               |  20 O                |     3.12427  |     1.65329
   52 Si               |  38 O                |     3.13363  |     1.65825
   53 O                |  31 H                |     1.80186  |     0.95350
   53 O                |  46 Si               |     3.12110  |     1.65161
   54 O                |  14 Si               |     3.16676  |     1.67577
   57 O                |  50 Si               |     3.19087  |     1.68854
   58 Si               |  21 O                |     3.13412  |     1.65850
   58 Si               |  39 O                |     3.16733  |     1.67608
   59 O                |   6 Si               |     3.14523  |     1.66438
   59 O                |  45 Si               |     3.12957  |     1.65610
   60 H                |   1 O                |     1.80234  |     0.95375
   61 H                |   3 O                |     1.84164  |     0.97456
   62 O                |  45 Si               |     3.12967  |     1.65615
   63 O                |  15 Si               |     3.15563  |     1.66989
   65 O                |   8 Si               |     3.16313  |     1.67386
   66 Si               |  55 O                |     3.12128  |     1.65171
   66 Si               |  65 O                |     3.14366  |     1.66355
   68 O                |  41 H                |     1.80230  |     0.95374
   70 H                |   4 O                |     1.80182  |     0.95348
   72 H                |  20 O                |     1.80218  |     0.95367
   73 H                |  21 O                |     1.80081  |     0.95295
   74 O                |   8 Si               |     3.16672  |     1.67576
   74 O                |  42 Si               |     3.13127  |     1.65700
   75 O                |   9 Si               |     3.13158  |     1.65716
   75 O                |  46 Si               |     3.15611  |     1.67014
   76 H                |  24 O                |     1.83992  |     0.97365
   77 H                |  25 O                |     1.85487  |     0.98155
   78 O                |  49 H                |     1.80792  |     0.95671
   79 O                |  37 Si               |     3.15203  |     1.66798
   80 H                |  57 O                |     1.80830  |     0.95691
   81 H                |   7 O                |     1.84010  |     0.97374
   83 O                |  10 Si               |     3.15105  |     1.66746
   83 O                |  50 Si               |     3.13725  |     1.66016
   84 O                |  52 Si               |     3.17620  |     1.68078
   85 O                |  18 H                |     1.83473  |     0.97090
   85 O                |  58 Si               |     3.12059  |     1.65134
   86 O                |  71 H                |     1.80237  |     0.95377
   87 H                |  28 O                |     1.83469  |     0.97088
   88 O                |   6 Si               |     3.14486  |     1.66419
   88 O                |  56 H                |     1.85481  |     0.98152
   90 H                |  33 O                |     1.84179  |     0.97463
   91 O                |  42 Si               |     3.13689  |     1.65997
   91 O                |  52 Si               |     3.15205  |     1.66799
   92 O                |  36 Si               |     3.13413  |     1.65851
   92 O                |  64 H                |     1.80080  |     0.95294
   93 O                |  37 Si               |     3.12426  |     1.65329
   93 O                |  67 H                |     1.80218  |     0.95367
   94 O                |   8 Si               |     3.13402  |     1.65845
   94 O                |  82 H                |     1.80081  |     0.95295
   95 O                |  46 Si               |     3.14365  |     1.66355
   95 O                |  58 Si               |     3.16306  |     1.67382
   96 H                |  29 O                |     1.83992  |     0.97364
   97 O                |  36 Si               |     3.16731  |     1.67607
   98 O                |   9 Si               |     3.14415  |     1.66381
   98 O                |  11 H                |     1.85519  |     0.98172
   99 H                |  23 O                |     1.85527  |     0.98176
  100 H                |  34 O                |     1.80792  |     0.95671
  101 O                |  50 Si               |     3.12992  |     1.65628
  101 O                |  69 H                |     1.80237  |     0.95377
  102 H                |  43 O                |     1.80827  |     0.95690
  103 O                |  12 Si               |     3.13230  |     1.65754
  103 O                |  66 Si               |     3.15003  |     1.66693
  104 O                |  12 Si               |     3.12277  |     1.65250
  104 O                |  48 H                |     1.80233  |     0.95375
  105 H                |  55 O                |     1.80181  |     0.95348
  106 Si               |  35 O                |     3.13724  |     1.66016
  106 Si               |  43 O                |     3.19074  |     1.68847
  106 Si               |  86 O                |     3.12996  |     1.65630
  106 Si               |  97 O                |     3.13111  |     1.65691
  107 O                |  13 Si               |     3.14421  |     1.66384
  107 O                |  45 Si               |     3.12967  |     1.65615
  108 O                |   9 Si               |     3.14402  |     1.66374
  108 O                |  45 Si               |     3.12971  |     1.65617
  109 O                |   6 Si               |     3.13384  |     1.65836
  109 O                |  66 Si               |     3.15561  |     1.66988
[...]
 overlap   0.999  1.000  0.999  0.999  1.000  0.999  0.998  0.999  0.995  0.996


   alpha    731    732    733    734    735    736    737    738    739    740
    beta    731    732    733    734    735    736    737    738    739    740
 overlap   0.999  0.998  1.000  0.998  1.000  0.999  0.999  0.999  0.998  0.998


   alpha    741    742    743    744    745    746    747    748    749    750
    beta    741    742    743    744    745    746    747    748    749    750
 overlap   1.000  1.000  1.000  1.000  1.000  1.000  0.999  1.000  1.000  1.000


   alpha    751    752    753    754    755    756    757    758    759    760
    beta    751    752    753    754    755    756    757    758    759    760
 overlap   1.000  0.999  0.980  0.981  0.996  1.000  1.000  0.999  0.999  1.000


   alpha    761    762    763    764    765    766    767    768    769    770
    beta    761    762    763    764    765    766    767    768    769    770
 overlap   1.000  0.999  0.999  0.990  1.000  0.989  0.999  0.999  0.977  0.974


   alpha    771    772    773    774    775    776    777    778    779    780
    beta    771    772    773    774    775    776    777    778    779    780
 overlap   1.000  0.996  0.998  0.990  0.997  0.996  0.996  1.000  1.000  1.000


   alpha    781    782    783    784    785    786    787    788    789    790
    beta    781    782    783    784    785    786    787    788    789    790
 overlap   0.999  1.000  1.000  0.894  0.890  0.997  1.000  1.000  0.998  1.000


   alpha    791    792    793    794    795    796    797    798    799    800
    beta    791    792    793    794    797    795    796    797    798    800
 overlap   0.938  0.983  0.970  1.000  0.600  0.843  0.869  0.707  0.997  1.000


   alpha    801    802    803    804    805    806    807    808    809    810
    beta    801    801    802    804    805    806    808    807    811    813
 overlap   0.563  0.787  0.999  1.000  0.886  0.890  0.805  0.935  0.838  0.681


   alpha    811    812    813    814    815    816    817    818    819    820
    beta    810    809    812    814    815    816    818    817    819    820
 overlap   0.837  0.963  0.753  0.722  0.993  0.711  0.788  0.931  0.996  0.984


   alpha    821    822    823    824    825    826    827    828    829    830
    beta    821    822    823    824    825    826    827    828    829    830
 overlap   0.988  0.991  0.984  0.980  0.977  0.992  0.981  0.999  0.984  0.982


   alpha    831    832    833    834    835    836    837    838    839    840
    beta    831    832    833    834    835    836    837    838    839    840
 overlap   0.994  1.000  0.999  0.967  0.967  1.000  1.000  0.999  0.999  0.998


   alpha    841    842    843    844    845    846    847    848    849    850
    beta    841    842    843    844    845    846    847    848    849    850
 overlap   0.994  0.944  0.935  0.997  0.992  0.996  1.000  0.976  0.998  0.939


   alpha    851    852    853    854    855    856    857    858    859    860
    beta    858    851    852    853    854    855    856    857    859    861
 overlap   0.510  0.942  0.992  0.999  0.991  0.921  0.851  0.999  0.816  0.915


   alpha    861    862    863    864    865    866    867    868    869    870
    beta    860    862    863    864    865    866    867    868    869    870
 overlap   0.998  1.000  0.998  1.000  1.000  0.966  0.999  0.995  0.999  1.000


   alpha    871    872    873    874    875    876    877    878    879    880
    beta    871    872    873    874    875    876    877    878    879    880
 overlap   0.989  1.000  1.000  0.998  1.000  1.000  1.000  1.000  1.000  1.000


   alpha    881    882    883    884    885    886    887    888    889    890
    beta    881    882    883    884    885    886    887    888    889    890
 overlap   1.000  1.000  1.000  1.000  1.000  1.000  1.000  1.000  1.000  1.000


   alpha    891    892    893    894    895    896    897    898    899    900
    beta    891    892    893    894    895    896    897    898    899    900
 overlap   1.000  1.000  1.000  1.000  1.000  1.000  1.000  1.000  1.000  1.000


   alpha    901    902    903    904    905    906    907    908    909    910
    beta    901    902    903    904    905    906    907    908    909    910
 overlap   1.000  1.000  1.000  1.000  1.000  1.000  1.000  1.000  1.000  1.000


   alpha    911    912    913    914    915    916    917    918    919    920
    beta    911    912    913    914    915    916    917    918    919    920
 overlap   1.000  1.000  1.000  1.000  1.000  1.000  1.000  1.000  1.000  1.000


   alpha    921    922    923    924    925    926    927    928    929    930
    beta    921    922    923    924    925    926    927    928    929    930
 overlap   1.000  1.000  1.000  1.000  1.000  1.000  1.000  1.000  1.000  1.000


   alpha    931    932    933    934    935    936    937    938    939    940
    beta    931    932    933    934    935    936    937    938    939    940
 overlap   1.000  1.000  1.000  1.000  1.000  1.000  1.000  1.000  1.000  1.000


   alpha    941    942    943    944    945    946    947    948    949    950
    beta    941    942    943    944    945    946    947    948    949    950
 overlap   1.000  1.000  1.000  1.000  1.000  1.000  1.000  1.000  1.000  1.000


   alpha    951    952    953    954    955    956    957    958    959    960
    beta    951    952    953    954    955    956    957    958    959    960
 overlap   1.000  1.000  1.000  1.000  1.000  1.000  1.000  1.000  1.000  1.000


   alpha    961    962    963    964    965    966    967    968    969    970
    beta    961    962    963    964    965    966    967    968    969    970
 overlap   1.000  1.000  1.000  1.000  1.000  1.000  0.998  0.998  0.999  1.000


   alpha    971    972    973    974    975    976    977    978    979    980
    beta    971    972    973    974    975    976    977    978    979    980
 overlap   0.999  0.998  0.998  0.995  0.995  1.000  1.000  1.000  1.000  1.000


   alpha    981    982    983    984    985    986    987    988    989    990
    beta    981    982    983    984    985    986    987    988    989    990
 overlap   1.000  1.000  1.000  1.000  1.000  1.000  1.000  1.000  1.000  1.000


   alpha    991    992    993    994    995    996    997    998    999   1000
    beta    991    992    993    994    995    996    997    998    999   1000
 overlap   1.000  1.000  1.000  1.000  1.000  1.000  1.000  1.000  1.000  1.000


   alpha   1001   1002   1003   1004   1005   1006   1007   1008   1009   1010
    beta   1001   1002   1003   1004   1005   1006   1007   1008   1009   1010
 overlap   1.000  1.000  1.000  0.997  0.997  1.000  1.000  1.000  1.000  1.000


   alpha   1011   1012   1013   1014   1015   1016   1017   1018   1019   1020
    beta   1011   1012   1013   1014   1015   1016   1017   1018   1019   1020
 overlap   0.999  0.999  1.000  1.000  1.000  1.000  1.000  1.000  1.000  1.000


   alpha   1021   1022   1023   1024   1025   1026   1027   1028   1029   1030
    beta   1021   1022   1023   1024   1025   1026   1027   1028   1029   1030
 overlap   1.000  1.000  1.000  1.000  1.000  1.000  1.000  1.000  1.000  1.000


   alpha   1031   1032   1033   1034   1035   1036   1037   1038   1039   1040
    beta   1031   1032   1033   1034   1035   1036   1037   1038   1039   1040
 overlap   1.000  1.000  1.000  0.999  0.999  1.000  1.000  1.000  1.000  1.000


   alpha   1041   1042   1043   1044   1045   1046   1047   1048   1049   1050
    beta   1041   1042   1043   1044   1045   1046   1047   1048   1049   1050
 overlap   1.000  1.000  1.000  1.000  1.000  0.999  0.999  1.000  1.000  1.000


   alpha   1051   1052   1053   1054   1055   1056   1057   1058   1059   1060
    beta   1051   1052   1053   1054   1055   1056   1057   1058   1059   1060
 overlap   0.981  0.981  1.000  1.000  1.000  1.000  1.000  1.000  1.000  1.000


   alpha   1061   1062   1063   1064   1065   1066   1067   1068   1069   1070
    beta   1061   1062   1063   1064   1065   1066   1067   1068   1069   1070
 overlap   1.000  1.000  1.000  1.000  1.000  1.000  1.000  1.000  1.000  1.000


   alpha   1071   1072   1073   1074   1075   1076   1077   1078   1079   1080
    beta   1071   1072   1073   1074   1075   1076   1077   1078   1079   1080
 overlap   1.000  1.000  1.000  1.000  1.000  1.000  1.000  1.000  1.000  1.000


   alpha   1081   1082   1083   1084   1085   1086   1087   1088   1089   1090
    beta   1081   1082   1083   1084   1085   1086   1087   1088   1089   1090
 overlap   1.000  1.000  1.000  1.000  1.000  1.000  1.000  1.000  1.000  1.000


   alpha   1091   1092   1093   1094   1095   1096   1097   1098   1099   1100
    beta   1091   1092   1093   1094   1095   1096   1097   1098   1099   1100
 overlap   1.000  1.000  1.000  1.000  1.000  1.000  1.000  1.000  1.000  1.000


   alpha   1101   1102   1103   1104   1105   1106   1107   1108   1109   1110
    beta   1101   1102   1103   1104   1105   1106   1107   1108   1109   1110
 overlap   1.000  1.000  0.999  0.999  1.000  1.000  1.000  1.000  1.000  1.000


   alpha   1111   1112   1113   1114   1115   1116   1117   1118   1119   1120
    beta   1111   1112   1113   1114   1115   1116   1117   1118   1119   1120
 overlap   1.000  1.000  1.000  1.000  1.000  1.000  1.000  1.000  1.000  1.000


   alpha   1121   1122   1123   1124   1125   1126   1127   1128   1129   1130
    beta   1121   1122   1123   1124   1125   1126   1127   1128   1129   1130
 overlap   1.000  1.000  1.000  1.000  1.000  1.000  1.000  1.000  1.000  1.000


   alpha   1131   1132   1133   1134   1135   1136   1137   1138   1139   1140
    beta   1131   1132   1133   1134   1135   1136   1137   1138   1139   1140
 overlap   1.000  1.000  1.000  1.000  1.000  1.000  1.000  1.000  1.000  1.000


   alpha   1141   1142   1143   1144   1145   1146   1147   1148   1149   1150
    beta   1141   1142   1143   1144   1145   1146   1147   1148   1149   1150
 overlap   1.000  1.000  1.000  1.000  1.000  1.000  1.000  1.000  1.000  1.000


   alpha   1151   1152   1153   1154   1155   1156   1157   1158   1159   1160
    beta   1151   1152   1153   1154   1155   1156   1157   1158   1159   1160
 overlap   1.000  1.000  1.000  1.000  1.000  1.000  1.000  1.000  1.000  1.000


   alpha   1161   1162   1163   1164   1165   1166   1167   1168   1169   1170
    beta   1161   1162   1163   1164   1165   1166   1167   1168   1169   1170
 overlap   1.000  1.000  1.000  1.000  1.000  1.000  1.000  1.000  1.000  1.000


   alpha   1171   1172   1173   1174   1175   1176   1177   1178   1179   1180
    beta   1171   1172   1173   1174   1175   1176   1177   1178   1179   1180
 overlap   1.000  1.000  1.000  1.000  1.000  1.000  1.000  1.000  1.000  1.000


   alpha   1181   1182   1183   1184   1185   1186   1187   1188   1189   1190
    beta   1181   1182   1183   1184   1185   1186   1187   1188   1189   1190
 overlap   1.000  1.000  1.000  1.000  1.000  1.000  1.000  1.000  1.000  1.000


   alpha   1191   1192   1193   1194   1195   1196   1197   1198   1199   1200
    beta   1191   1192   1193   1194   1195   1196   1197   1198   1199   1200
 overlap   1.000  1.000  1.000  1.000  1.000  1.000  1.000  1.000  1.000  1.000


   alpha   1201   1202   1203   1204   1205   1206   1207   1208   1209   1210
    beta   1201   1202   1203   1204   1205   1206   1207   1208   1209   1210
 overlap   1.000  1.000  1.000  1.000  1.000  1.000  1.000  1.000  1.000  1.000


   alpha   1211   1212   1213   1214   1215   1216   1217   1218   1219   1220
    beta   1211   1212   1213   1214   1215   1216   1217   1218   1219   1220
 overlap   1.000  1.000  1.000  1.000  1.000  1.000  1.000  1.000  1.000  1.000


   alpha   1221   1222   1223   1224   1225   1226   1227   1228   1229   1230
    beta   1221   1222   1223   1224   1225   1226   1227   1228   1229   1230
 overlap   1.000  1.000  1.000  1.000  1.000  1.000  1.000  1.000  1.000  1.000


   alpha   1231   1232   1233   1234   1235   1236   1237   1238   1239   1240
    beta   1231   1232   1233   1234   1235   1236   1237   1238   1239   1240
 overlap   1.000  1.000  1.000  1.000  1.000  1.000  1.000  1.000  1.000  1.000


   alpha   1241   1242   1243   1244   1245   1246   1247   1248   1249   1250
    beta   1241   1242   1243   1244   1245   1246   1247   1248   1249   1250
 overlap   1.000  1.000  1.000  1.000  1.000  1.000  1.000  1.000  1.000  1.000


   alpha   1251   1252   1253   1254   1255   1256   1257   1258   1259   1260
    beta   1251   1252   1253   1254   1255   1256   1257   1258   1259   1260
 overlap   1.000  1.000  1.000  1.000  1.000  1.000  1.000  1.000  1.000  1.000


   alpha   1261   1262   1263   1264   1265   1266   1267   1268   1269   1270
    beta   1261   1262   1263   1264   1265   1266   1267   1268   1269   1270
 overlap   1.000  1.000  1.000  0.921  0.921  1.000  0.998  0.998  1.000  0.993


   alpha   1271   1272   1273   1274   1275   1276   1277   1278   1279   1280
    beta   1271   1272   1273   1274   1275   1276   1277   1278   1279   1280
 overlap   0.992  1.000  1.000  0.999  0.998  0.998  0.998  0.870  0.869  0.999


   alpha   1281   1282   1283   1284   1285   1286   1287   1288   1289   1290
    beta   1281   1282   1283   1284   1285   1286   1287   1288   1289   1290
 overlap   1.000  1.000  1.000  1.000  1.000  1.000  1.000  1.000  1.000  1.000


   alpha   1291   1292   1293   1294   1295   1296   1297   1298   1299   1300
    beta   1291   1292   1293   1294   1295   1296   1297   1298   1299   1300
 overlap   1.000  1.000  1.000  1.000  1.000  1.000  1.000  1.000  0.999  0.998


   alpha   1301   1302   1303   1304   1305   1306   1307   1308   1309   1310
    beta   1301   1302   1303   1304   1305   1306   1307   1308   1309   1310
 overlap   0.999  0.999  0.993  0.994  1.000  1.000  1.000  1.000  0.999  0.999


   alpha   1311   1312   1313   1314   1315   1316   1317   1318   1319   1320
    beta   1311   1312   1313   1314   1315   1316   1317   1318   1319   1320
 overlap   1.000  1.000  1.000  1.000  1.000  1.000  1.000  1.000  1.000  1.000


   alpha   1321   1322   1323   1324   1325   1326   1327   1328   1329   1330
    beta   1321   1322   1323   1324   1325   1326   1327   1328   1329   1330
 overlap   1.000  1.000  0.999  0.999  1.000  1.000  1.000  1.000  1.000  1.000


   alpha   1331   1332   1333   1334   1335   1336   1337   1338   1339   1340
    beta   1331   1332   1333   1334   1335   1336   1337   1338   1339   1340
 overlap   1.000  1.000  1.000  1.000  1.000  1.000  1.000  0.999  0.999  1.000


   alpha   1341   1342   1343   1344   1345   1346   1347   1348   1349   1350
    beta   1341   1342   1343   1344   1345   1346   1347   1348   1349   1350
 overlap   1.000  1.000  1.000  1.000  1.000  1.000  1.000  1.000  1.000  1.000


   alpha   1351   1352   1353   1354   1355   1356   1357   1358   1359   1360
    beta   1351   1352   1353   1354   1355   1356   1357   1358   1359   1360
 overlap   1.000  1.000  1.000  1.000  1.000  1.000  1.000  1.000  1.000  1.000


   alpha   1361   1362   1363   1364   1365   1366   1367   1368   1369   1370
    beta   1361   1362   1363   1364   1365   1366   1367   1368   1369   1370
 overlap   1.000  1.000  1.000  1.000  1.000  1.000  1.000  1.000  1.000  1.000


   alpha   1371   1372   1373   1374   1375   1376   1377   1378   1379   1380
    beta   1371   1372   1373   1374   1375   1376   1377   1378   1379   1380
 overlap   1.000  1.000  1.000  1.000  1.000  1.000  1.000  1.000  1.000  0.997


   alpha   1381   1382   1383   1384   1385   1386   1387   1388   1389   1390
    beta   1381   1382   1383   1384   1385   1386   1387   1388   1389   1390
 overlap   0.997  1.000  1.000  1.000  1.000  1.000  1.000  1.000  1.000  1.000


   alpha   1391   1392   1393   1394   1395   1396   1397   1398   1399   1400
    beta   1391   1392   1393   1394   1395   1396   1397   1398   1399   1400
 overlap   1.000  1.000  1.000  1.000  1.000  1.000  1.000  1.000  1.000  1.000


   alpha   1401   1402   1403   1404   1405   1406   1407   1408   1409   1410
    beta   1401   1402   1403   1404   1405   1406   1407   1408   1409   1410
 overlap   1.000  1.000  1.000  1.000  1.000  1.000  1.000  1.000  1.000  1.000


   alpha   1411   1412   1413   1414   1415   1416   1417   1418   1419   1420
    beta   1411   1412   1413   1414   1415   1416   1417   1418   1419   1420
 overlap   1.000  1.000  1.000  1.000  1.000  1.000  1.000  1.000  1.000  1.000


   alpha   1421   1422   1423   1424   1425   1426   1427   1428   1429   1430
    beta   1421   1422   1423   1424   1425   1426   1427   1428   1429   1430
 overlap   1.000  1.000  1.000  1.000  1.000  1.000  1.000  1.000  1.000  1.000


   alpha   1431   1432   1433   1434   1435   1436   1437   1438   1439   1440
    beta   1431   1432   1433   1434   1435   1436   1437   1438   1439   1440
 overlap   1.000  1.000  1.000  1.000  1.000  1.000  1.000  1.000  1.000  1.000


   alpha   1441   1442   1443   1444   1445   1446   1447   1448   1449   1450
    beta   1441   1442   1443   1444   1445   1446   1447   1448   1449   1450
 overlap   1.000  1.000  1.000  1.000  1.000  1.000  1.000  1.000  1.000  1.000


   alpha   1451   1452   1453   1454   1455   1456   1457   1458   1459   1460
    beta   1451   1452   1453   1454   1455   1456   1457   1458   1459   1460
 overlap   1.000  1.000  1.000  1.000  1.000  1.000  1.000  1.000  1.000  1.000


   alpha   1461   1462   1463   1464   1465   1466   1467   1468   1469   1470
    beta   1461   1462   1463   1464   1465   1466   1467   1468   1469   1470
 overlap   1.000  1.000  1.000  1.000  1.000  1.000  1.000  1.000  1.000  1.000


   alpha   1471   1472   1473   1474   1475   1476
    beta   1471   1472   1473   1474   1475   1476
 overlap   1.000  1.000  1.000  1.000  1.000  1.000

     --------------------------
     Expectation value of S2:  
     --------------------------
      <S2> =      3.7515 (Exact =     3.7500)


 center of mass
 --------------
 x =  -0.00026609 y =   0.00077433 z =  -0.26301298

 moments of inertia (a.u.)
 ------------------
      126579.482483175947           0.000000000037           0.000000000026
           0.000000000037      126314.331002264458           0.000000000053
           0.000000000026           0.000000000053      145153.230802362930

     Multipole analysis of the density
     ---------------------------------

     L   x y z        total         alpha         beta         nuclear
     -   - - -        -----         -----         ----         -------
     0   0 0 0      0.000000   -309.000000   -306.000000    615.000000

     1   1 0 0     -0.000259     -0.226352     -0.256662      0.482754
     1   0 1 0     -0.001025      0.644417      0.733298     -1.378739
     1   0 0 1      0.492324   -219.000127   -249.557932    469.050383

     2   2 0 0   -351.171102 -14385.844103 -14374.345580  28409.018581
     2   1 1 0     -0.142481     -1.045432     -1.054030      1.956981
     2   1 0 1     -0.032242      2.977452      3.286528     -6.296223
     2   0 2 0   -351.930658 -14437.009162 -14425.668375  28510.746879
     2   0 1 1      0.058565     -8.848728     -9.754462     18.661756
     2   0 0 2   -388.912869  -7962.629498  -7639.807147  15213.523777


 Parallel integral file used  698131 records with       0 large values


 HESSIAN: the one electron contributions are done in      29.9s


 HESSIAN: 2-el 1st deriv. term done in                   636.1s


 HESSIAN: 2-el 2nd deriv. term done in                   121.1s

  stpr_wrt_fd_from_sq: overwrite of existing file:/lustre/ukt/milias/scratch/Bi-odft_on_quartz_freq/BionQ.hess
 stpr_wrt_fd_dipole: overwrite of existing file/lustre/ukt/milias/scratch/Bi-odft_on_quartz_freq/BionQ.fd_ddipole

 HESSIAN: the two electron contributions are done in    1188.9s

