

 Parallel Execution: Process Information
 ==============================================================================
 Rank   Node Name                              NodeID   MyNodeRank  NodeMaster
    0   adf1                                      0          0          0
    1   adf1                                      0          1         -1
    2   adf1                                      0          2         -1
    3   adf1                                      0          3         -1
    4   adf1                                      0          4         -1
    5   adf1                                      0          5         -1
    6   adf1                                      0          6         -1
    7   adf1                                      0          7         -1
    8   adf1                                      0          8         -1
    9   adf1                                      0          9         -1
   10   adf1                                      0         10         -1
   11   adf1                                      0         11         -1
 ==============================================================================


May use up to 22932MB of RAM as shared memory on node 0

 *******************************************************************************
 *                                                                             *
 *  --------------------------------                                           *
 *   Amsterdam Modeling Suite (AMS)              2020.202                      *
 *  --------------------------------                                           *
 *                                               r90167 2020-12-05             *
 *                                                                             *
 *                                                                             *
 *                              =================                              *
 *                              |               |                              *
 *                              |     A M S     |                              *
 *                              |               |                              *
 *                              =================                              *
 *                                                                             *
 *                                                                             *
 *   Online information and documentation:  https://www.scm.com/support/       *
 *   E-mail:  support@scm.com   info@scm.com                                   *
 *                                                                             *
 *   Scientific publications using AMS results must be properly referenced     *
 *   See the User Manuals (or the web site) for recommended citations          *
 *   The terms and conditions of the End User License Agreement apply to       *
 *   the use of AMS, https://www.scm.com/license-terms/                        *
 *                                                                             *
 **********************  x86_64_linux_intel / intelmpi  ************************
 
 Licensed to: Dr. Miroslav Ilias / Matej Bel University, Department Chemistry, Fac. Natural Sciences / Banska Bystrica / SLOVAKIA
 SCM User ID: u17848
  
 AMS 2020.202  RunTime: Feb08-2021 19:18:19  Nodes: 1  Procs: 12

 AMS jobname: ams
 AMS jobid  : 123393292

 Start   directory: /home/milias/Work/projects/open-collection/theoretical_chemistry/projects/nmr_diplomovky/reference_compounds/3-trimethylsilylpropane-1-sulfonic_acid/tmp.milias.10460.0.noindex/
 Results directory: /home/milias/Work/projects/open-collection/theoretical_chemistry/projects/nmr_diplomovky/reference_compounds/3-trimethylsilylpropane-1-sulfonic_acid/TSPSA.geopt_freq_nmrshield_pbe0_tz2p_good_cosmo-h2o.results/
 Scratch directory: /tmp/amstmp_ams_kid0.123393292/


 Communication costs MPI_COMM_WORLD:      2.757 usec per message,   0.0271 usec per 8-byte item
 Communication costs for intra-node:      2.711 usec per message,   0.0271 usec per 8-byte item

 RNG seed: -331891339 -577515848 -1959401061 1642939346 485258296 -523071565 -1142459390 -1019294487



                       *********************************************************************
                       *  ADF 2020.202  RunTime: Feb08-2021 19:18:20  Nodes: 1  Procs: 12  *
                       *********************************************************************
  
       ***************************
       *  GEOMETRY OPTIMIZATION  *
       ***************************

Optimization Method                    Quasi Newton
Optimization Coordinates               Delocalized Coordinates
Optimize lattice                       F
 
 ------------------------------------------------------
 Convergence criteria (Hartree,Angstrom)
 ------------------------------------------------------
 Maximum gradient               0.001000000000
 Maximum rms gradient           0.000666666667
 Maximum step allowed           0.010000000000
 Maximum rms step allowed       0.006666666667
 Maximum energy change allowe   0.000270000000
 Maximum stress energy allowe   0.000500000000
 
Initial model Hessian                  Automatic Hessian
 
------------------------------------
Quasi-Newton Optimizer Parameters
------------------------------------
Hessian Update Method                  BFGS
Maximum number of steps                  250
First GDIIS cycle                          0
Maximum GDIIS vectors                      0
Trust radius (bohr)                        0.200000
Trust radius varies                        T
Constraints converged at all steps         T
Use projector                              T
 
 Rigid motions settings for: old optimizer
 Atomic rotations (x,y,z):     T T T
 Atomic translations (x,y,z):  T T T
 Tolerance:                   1.000000000000000E-006
 
--------
Geometry
--------
Atoms
  Index Symbol   x (angstrom)   y (angstrom)   z (angstrom)
      1      S     2.80750000    -0.15410000     0.01810000       adf.R=1.792
      2     Si    -2.78950000    -0.01020000    -0.00290000       adf.R=1.908
      3      O     3.90310000     1.01890000    -0.27270000       adf.R=1.517
      4      O     2.78220000    -1.06040000    -1.11570000       adf.R=1.517
      5      O     2.99390000    -0.63990000     1.37350000       adf.R=1.517
      6      C    -1.15460000     0.90810000    -0.02190000       adf.R=1.700
      7      C     0.09570000     0.02520000     0.04030000       adf.R=1.700
      8      C    -2.84630000    -1.21430000    -1.43950000       adf.R=1.700
      9      C    -2.95870000    -0.95250000     1.60960000       adf.R=1.700
     10      C    -4.19830000     1.21750000    -0.16020000       adf.R=1.700
     11      C     1.36520000     0.86170000    -0.02860000       adf.R=1.700
     12      H    -1.14280000     1.60910000     0.82120000       adf.R=1.350
     13      H    -1.11920000     1.51560000    -0.93440000       adf.R=1.350
     14      H     0.08780000    -0.69560000    -0.78690000       adf.R=1.350
     15      H     0.09580000    -0.56630000     0.96460000       adf.R=1.350
     16      H    -2.70280000    -0.68990000    -2.38890000       adf.R=1.350
     17      H    -2.06330000    -1.97240000    -1.34470000       adf.R=1.350
     18      H    -3.81260000    -1.72630000    -1.47440000       adf.R=1.350
     19      H    -3.92080000    -1.47160000     1.65340000       adf.R=1.350
     20      H    -2.16450000    -1.69800000     1.70980000       adf.R=1.350
     21      H    -2.89850000    -0.27100000     2.46320000       adf.R=1.350
     22      H    -4.18330000     1.93100000     0.66900000       adf.R=1.350
     23      H    -4.11910000     1.77860000    -1.09610000       adf.R=1.350
     24      H    -5.16310000     0.70190000    -0.15080000       adf.R=1.350
     25      H     1.39430000     1.42680000    -0.96610000       adf.R=1.350
     26      H     1.42350000     1.56180000     0.81070000       adf.R=1.350
     27      H     3.91050000     1.37410000    -1.19260000       adf.R=1.350
 
Total System Charge             0.00000
Bonding info available!
 
 
----------------
ADF Engine Input
----------------
 
 Basis
 Type TZ2P
 Core None
 End
 Save TAPE10
 XC
 Hybrid PBE0
 End
 Relativity
 Level None
 End
 Solvation
 Surf Delley
 Solv name=Water cav0=0.0 cav1=0.0067639
 Charged method=CONJ
 C-Mat POT
 SCF VAR ALL
 CSMRSP
 End
 NumericalQuality Good
 

 Title: *** (NO TITLE) ***

 Using automatic Hessian for delocalized coordinates.
 *** GOStep1 ***

 SOLVATION
-------------------------------------------

  The Delley construction of COSMO surface surface is calculated

       Division Level for Surface Triangles (NDIV)                  3
       Final Division Level for Triangles (NFDIV)                   1
       Radius of the Solvent (RSOL)                           1.93000 angstr
  Dielectric Constant (EPSL)                                 78.39000

       COSMO equation is solved iteratively-               conjugate-gradient

       Maximun of Iterations for Charges (NCIX)                  1000
       Criterion for Charge convergence (CCNV)                1.0E-08

  COSMO charges included variationally in SCF

       COSMO included at every SCF cycle

  Geometry-dependent empirical factor                         0.00000

  C-Matrix calculated in cspmtx

  In cspmtx, C-Matrix calculated using fitted potential

-------------------------------------------



 -------------------------------------------
  COSMO surface
  Area             =          798.311
  Volume           =         1522.880
  Number of Points =         2024
 -------------------------------------------



 ======================
 RI Hartree-Fock Scheme
 ======================
  
 Fit Set Quality     : GOOD
 Integration Quality : GOOD
 Threshold Quality   : GOOD
 Response Quality    : DEFAULT
 Is Range Separated  :  F
 
 RIHartreeFock Dependency: number of modified vectors:          23
 cosmo_calcen: 0.5 (esolb+esolc) (Hartrees) =   -0.025045

 Solvation energy (screening term,uncorrected) =    -15.715726 kcal/mol

 Solvation energy (dispersion and cavitation terms) =      1.492780 kcal/mol
 Solvation Energy Contributions (Hartrees)
          esola   esolb+esolc
     0.02504460   -0.05008920
 esol last cycle   -0.02504460
  
 Hartree-Fock exchange energy:   -106.986961220344     
 cosmo_calcen: 0.5 (esolb+esolc) (Hartrees) =   -0.025045

 Solvation energy (screening term,uncorrected) =    -15.715727 kcal/mol

 Solvation energy (dispersion and cavitation terms) =      1.492780 kcal/mol
 Solvation Energy Contributions (Hartrees)
          esola   esolb+esolc
     0.02504460   -0.05008920
 esol last cycle   -0.02504460
  pauli hf:                             -4.851852545682618       -132.0256         -3044.58        -12738.54
  elstat hf:                            -2.537515206582817        -69.0493         -1592.32         -6662.25

 Energy gradients wrt nuclear displacements
 ==========================================

     Atom      Cartesian (a.u./angstrom)
                 X         Y         Z
 ----------------------------------------
     1 S     0.003100 -0.039632  0.026547
     2 Si    0.007977  0.006443 -0.000779
     3 O    -0.000155  0.030474 -0.013123
     4 O    -0.011535 -0.014186 -0.041317
     5 O    -0.016792 -0.014800  0.056027
     6 C    -0.012019 -0.002310 -0.000351
     7 C     0.010340  0.006737 -0.001642
     8 C    -0.000484 -0.000166 -0.000061
     9 C    -0.000394 -0.000119  0.000216
    10 C    -0.002901 -0.001575  0.000026
    11 C     0.022688  0.005619 -0.000264
    12 H     0.000880 -0.001139  0.001524
    13 H     0.000461 -0.001029 -0.001206
    14 H    -0.001592 -0.005249 -0.003277
    15 H    -0.000201 -0.004059  0.003332
    16 H     0.000343  0.001585 -0.000690
    17 H     0.001751 -0.000491  0.001388
    18 H    -0.001805 -0.000428  0.000332
    19 H    -0.001805 -0.000389 -0.000564
    20 H     0.001735 -0.000491 -0.001223
    21 H     0.000276  0.001557  0.000376
    22 H     0.001087  0.000326  0.001517
    23 H     0.001179  0.000134 -0.001598
    24 H    -0.001565 -0.000985 -0.000038
    25 H    -0.005460  0.004061 -0.004177
    26 H    -0.005783  0.004886  0.003804
    27 H     0.010675  0.025226 -0.024776
 ----------------------------------------
 Mulliken charges used for AMS results%charges...
 
----------------------------------------------------------------------
Geometry Convergence after Step   1       (Hartree/Angstrom,Angstrom)
----------------------------------------------------------------------
current energy                               -6.49440656 Hartree
energy change                      -6.49440656     0.00027000    F
constrained gradient max            0.05597771     0.00100000    F
constrained gradient rms            0.01199021     0.00066667    F
gradient max                        0.05597771
gradient rms                        0.01199021
cart. step max                      0.10774963     0.01000000    F
cart. step rms                      0.02607808     0.00666667    F
 
 
--------
Geometry
--------
Atoms
  Index Symbol   x (angstrom)   y (angstrom)   z (angstrom)
      1      S     2.80991508    -0.11216485     0.00240134       adf.R=1.792
      2     Si    -2.80257808    -0.01389624    -0.00146363       adf.R=1.908
      3      O     3.98739291     0.95610047    -0.23280958       adf.R=1.517
      4      O     2.82551885    -1.02836350    -1.10164964       adf.R=1.517
      5      O     3.04425700    -0.60694259     1.32268900       adf.R=1.517
      6      C    -1.17177976     0.91877225    -0.02593403       adf.R=1.700
      7      C     0.07882082     0.04026806     0.03090137       adf.R=1.700
      8      C    -2.85819067    -1.21809155    -1.43877735       adf.R=1.700
      9      C    -2.96206749    -0.95888552     1.61116786       adf.R=1.700
     10      C    -4.21425620     1.21086667    -0.15361171       adf.R=1.700
     11      C     1.34800374     0.87895386    -0.03998244       adf.R=1.700
     12      H    -1.16281423     1.62018763     0.81656922       adf.R=1.350
     13      H    -1.14330581     1.52866341    -0.93682605       adf.R=1.350
     14      H     0.07284902    -0.67612203    -0.79638760       adf.R=1.350
     15      H     0.08315330    -0.54996577     0.95317557       adf.R=1.350
     16      H    -2.72119707    -0.69494886    -2.38905733       adf.R=1.350
     17      H    -2.07300385    -1.97350557    -1.34983964       adf.R=1.350
     18      H    -3.82111099    -1.73479122    -1.47094457       adf.R=1.350
     19      H    -3.92044632    -1.48282301     1.65818366       adf.R=1.350
     20      H    -2.16591201    -1.70126665     1.71142713       adf.R=1.350
     21      H    -2.90342129    -0.27972007     2.46594127       adf.R=1.350
     22      H    -4.20144232     1.92449996     0.67459730       adf.R=1.350
     23      H    -4.14215886     1.77349185    -1.08832558       adf.R=1.350
     24      H    -5.17652616     0.69240841    -0.14156702       adf.R=1.350
     25      H     1.38219324     1.44481049    -0.97378540       adf.R=1.350
     26      H     1.41195752     1.57319437     0.80025005       adf.R=1.350
     27      H     4.01824963     1.27706998    -1.14934222       adf.R=1.350
 
Total System Charge             0.00000
Bonding info available!
 
 *** GOStep2 ***

 SOLVATION
-------------------------------------------

  The Delley construction of COSMO surface surface is calculated

       Division Level for Surface Triangles (NDIV)                  3
       Final Division Level for Triangles (NFDIV)                   1
       Radius of the Solvent (RSOL)                           1.93000 angstr
  Dielectric Constant (EPSL)                                 78.39000

       COSMO equation is solved iteratively-               conjugate-gradient

       Maximun of Iterations for Charges (NCIX)                  1000
       Criterion for Charge convergence (CCNV)                1.0E-08

  COSMO charges included variationally in SCF

       COSMO included at every SCF cycle

  Geometry-dependent empirical factor                         0.00000

  C-Matrix calculated in cspmtx

  In cspmtx, C-Matrix calculated using fitted potential

-------------------------------------------



 -------------------------------------------
  COSMO surface
  Area             =          800.034
  Volume           =         1522.001
  Number of Points =         2029
 -------------------------------------------



 ======================
 RI Hartree-Fock Scheme
 ======================
  
 Fit Set Quality     : GOOD
 Integration Quality : GOOD
 Threshold Quality   : GOOD
 Response Quality    : DEFAULT
 Is Range Separated  :  F
 
 RIHartreeFock Dependency: number of modified vectors:          23
 cosmo_calcen: 0.5 (esolb+esolc) (Hartrees) =   -0.026723

 Solvation energy (screening term,uncorrected) =    -16.768747 kcal/mol

 Solvation energy (dispersion and cavitation terms) =      1.496002 kcal/mol
 Solvation Energy Contributions (Hartrees)
          esola   esolb+esolc
     0.02672270   -0.05344539
 esol last cycle   -0.02672270
  
 Hartree-Fock exchange energy:   -107.052604828137     
 cosmo_calcen: 0.5 (esolb+esolc) (Hartrees) =   -0.026723

 Solvation energy (screening term,uncorrected) =    -16.768756 kcal/mol

 Solvation energy (dispersion and cavitation terms) =      1.496002 kcal/mol
 Solvation Energy Contributions (Hartrees)
          esola   esolb+esolc
     0.02672271   -0.05344542
 esol last cycle   -0.02672271
  pauli hf:                             -4.818750512657289       -131.1249         -3023.81        -12651.63
  elstat hf:                            -2.564247297808532        -69.7767         -1609.09         -6732.43

 Energy gradients wrt nuclear displacements
 ==========================================

     Atom      Cartesian (a.u./angstrom)
                 X         Y         Z
 ----------------------------------------
     1 S    -0.025332 -0.025965  0.017864
     2 Si    0.006639  0.005393 -0.000613
     3 O     0.017291  0.009734 -0.008908
     4 O     0.006283  0.002590 -0.000588
     5 O     0.000849  0.003032 -0.005445
     6 C    -0.010262 -0.002975  0.000110
     7 C     0.004453  0.007679 -0.001351
     8 C    -0.000783 -0.000785 -0.000303
     9 C    -0.000804 -0.000689  0.000495
    10 C    -0.002793 -0.001059 -0.000036
    11 C     0.007658 -0.000997  0.001800
    12 H     0.000697 -0.000653  0.000965
    13 H     0.000662 -0.000538 -0.000768
    14 H    -0.001169 -0.002700 -0.001142
    15 H    -0.000558 -0.002274  0.001438
    16 H     0.000221  0.000836 -0.000136
    17 H     0.000839  0.000017  0.000802
    18 H    -0.000729 -0.000113  0.000082
    19 H    -0.000757 -0.000056 -0.000213
    20 H     0.000827 -0.000012 -0.000783
    21 H     0.000197  0.000792 -0.000021
    22 H     0.000635  0.000123  0.000639
    23 H     0.000669  0.000057 -0.000688
    24 H    -0.000564 -0.000384 -0.000041
    25 H    -0.003290  0.000939 -0.001224
    26 H    -0.004441  0.001510  0.001608
    27 H     0.003563  0.006499 -0.003542
 ----------------------------------------
 Mulliken charges used for AMS results%charges...

 dE(predicted):    -0.80775E-02, dE(actual):    -0.67666E-02, Trust radius:    0.400000, all in a.u.
 
----------------------------------------------------------------------
Geometry Convergence after Step   2       (Hartree/Angstrom,Angstrom)
----------------------------------------------------------------------
current energy                               -6.50117316 Hartree
energy change                      -0.00676661     0.00027000    F
constrained gradient max            0.02598702     0.00100000    F
constrained gradient rms            0.00574173     0.00066667    F
gradient max                        0.02598702
gradient rms                        0.00574173
cart. step max                      0.08242239     0.01000000    F
cart. step rms                      0.02014734     0.00666667    F
 
 
--------
Geometry
--------
Atoms
  Index Symbol   x (angstrom)   y (angstrom)   z (angstrom)
      1      S     2.79999660    -0.10094210    -0.00938198       adf.R=1.792
      2     Si    -2.80005223    -0.02210477    -0.00147533       adf.R=1.908
      3      O     3.97538333     0.95864933    -0.15484914       adf.R=1.517
      4      O     2.81247094    -0.98779575    -1.13569723       adf.R=1.517
      5      O     2.98460454    -0.64366432     1.30069656       adf.R=1.517
      6      C    -1.16996257     0.91807714    -0.04549480       adf.R=1.700
      7      C     0.07682312     0.03879475     0.00513504       adf.R=1.700
      8      C    -2.86846815    -1.23346684    -1.43254992       adf.R=1.700
      9      C    -2.94598538    -0.95472508     1.61997273       adf.R=1.700
     10      C    -4.20212374     1.21341369    -0.14966186       adf.R=1.700
     11      C     1.33948596     0.88762208    -0.05606870       adf.R=1.700
     12      H    -1.15807716     1.62361559     0.79322818       adf.R=1.350
     13      H    -1.15153641     1.52672591    -0.95719820       adf.R=1.350
     14      H     0.07823259    -0.66805010    -0.82788427       adf.R=1.350
     15      H     0.08465498    -0.55342379     0.92408754       adf.R=1.350
     16      H    -2.74067129    -0.71765523    -2.38764329       adf.R=1.350
     17      H    -2.08514928    -1.99082991    -1.34949920       adf.R=1.350
     18      H    -3.83151943    -1.74944407    -1.45328539       adf.R=1.350
     19      H    -3.90334493    -1.47830357     1.67883066       adf.R=1.350
     20      H    -2.15114617    -1.69756073     1.72295200       adf.R=1.350
     21      H    -2.88183624    -0.27078939     2.47008490       adf.R=1.350
     22      H    -4.17977078     1.93260649     0.67294442       adf.R=1.350
     23      H    -4.13622244     1.77004779    -1.08787493       adf.R=1.350
     24      H    -5.16746495     0.70211955    -0.12631366       adf.R=1.350
     25      H     1.39204122     1.46314011    -0.98177034       adf.R=1.350
     26      H     1.41243415     1.56829617     0.79263603       adf.R=1.350
     27      H     4.03930372     1.27344706    -1.06691983       adf.R=1.350
 
Total System Charge             0.00000
Bonding info available!
 
 *** GOStep3 ***

 SOLVATION
-------------------------------------------

  The Delley construction of COSMO surface surface is calculated

       Division Level for Surface Triangles (NDIV)                  3
       Final Division Level for Triangles (NFDIV)                   1
       Radius of the Solvent (RSOL)                           1.93000 angstr
  Dielectric Constant (EPSL)                                 78.39000

       COSMO equation is solved iteratively-               conjugate-gradient

       Maximun of Iterations for Charges (NCIX)                  1000
       Criterion for Charge convergence (CCNV)                1.0E-08

  COSMO charges included variationally in SCF

       COSMO included at every SCF cycle

  Geometry-dependent empirical factor                         0.00000

  C-Matrix calculated in cspmtx

  In cspmtx, C-Matrix calculated using fitted potential

-------------------------------------------



 -------------------------------------------
  COSMO surface
  Area             =          800.358
  Volume           =         1522.685
  Number of Points =         2025
 -------------------------------------------



 ======================
 RI Hartree-Fock Scheme
 ======================
  
 Fit Set Quality     : GOOD
 Integration Quality : GOOD
 Threshold Quality   : GOOD
 Response Quality    : DEFAULT
 Is Range Separated  :  F
 
 RIHartreeFock Dependency: number of modified vectors:          24
 cosmo_calcen: 0.5 (esolb+esolc) (Hartrees) =   -0.026810

 Solvation energy (screening term,uncorrected) =    -16.823823 kcal/mol

 Solvation energy (dispersion and cavitation terms) =      1.496607 kcal/mol
 Solvation Energy Contributions (Hartrees)
          esola   esolb+esolc
     0.02681047   -0.05362093
 esol last cycle   -0.02681047
  
 Hartree-Fock exchange energy:   -107.072850195727     
 cosmo_calcen: 0.5 (esolb+esolc) (Hartrees) =   -0.026810

 Solvation energy (screening term,uncorrected) =    -16.823825 kcal/mol

 Solvation energy (dispersion and cavitation terms) =      1.496607 kcal/mol
 Solvation Energy Contributions (Hartrees)
          esola   esolb+esolc
     0.02681047   -0.05362094
 esol last cycle   -0.02681047
  pauli hf:                             -4.807957074897601       -130.8312         -3017.04        -12623.29
  elstat hf:                            -2.575423698697477        -70.0808         -1616.10         -6761.77

 Energy gradients wrt nuclear displacements
 ==========================================

     Atom      Cartesian (a.u./angstrom)
                 X         Y         Z
 ----------------------------------------
     1 S    -0.003720 -0.012268  0.000572
     2 Si    0.003812  0.001748 -0.000297
     3 O     0.009484  0.007123 -0.002749
     4 O    -0.002674  0.001801  0.004357
     5 O    -0.000482  0.005276 -0.006973
     6 C    -0.004374 -0.000492  0.000450
     7 C     0.001274 -0.000118 -0.000793
     8 C    -0.000446 -0.000653 -0.000516
     9 C    -0.000552 -0.000527  0.000629
    10 C    -0.001045  0.000220 -0.000082
    11 C     0.000061  0.000598  0.000075
    12 H     0.000313 -0.000056  0.000228
    13 H     0.000453  0.000121 -0.000266
    14 H    -0.000366 -0.001084 -0.000010
    15 H    -0.000525 -0.000722  0.000357
    16 H     0.000147  0.000151  0.000013
    17 H     0.000189  0.000140  0.000236
    18 H     0.000055  0.000143  0.000004
    19 H     0.000003  0.000184 -0.000059
    20 H     0.000211  0.000142 -0.000298
    21 H     0.000125  0.000145 -0.000041
    22 H     0.000128  0.000091  0.000028
    23 H     0.000145  0.000102 -0.000100
    24 H     0.000434 -0.000306 -0.000010
    25 H     0.000134  0.000040  0.000016
    26 H    -0.000765 -0.000708  0.000438
    27 H    -0.002019 -0.001094  0.004790
 ----------------------------------------
 Mulliken charges used for AMS results%charges...

 dE(predicted):    -0.78375E-03, dE(actual):    -0.77402E-03, Trust radius:    0.400000, all in a.u.
 
----------------------------------------------------------------------
Geometry Convergence after Step   3       (Hartree/Angstrom,Angstrom)
----------------------------------------------------------------------
current energy                               -6.50194719 Hartree
energy change                      -0.00077402     0.00027000    F
constrained gradient max            0.01226879     0.00100000    F
constrained gradient rms            0.00247161     0.00066667    F
gradient max                        0.01226879
gradient rms                        0.00247161
cart. step max                      0.05095689     0.01000000    F
cart. step rms                      0.01461148     0.00666667    F
 
 
--------
Geometry
--------
Atoms
  Index Symbol   x (angstrom)   y (angstrom)   z (angstrom)
      1      S     2.79776326    -0.09620667    -0.00951172       adf.R=1.792
      2     Si    -2.80285295    -0.02633174    -0.00180836       adf.R=1.908
      3      O     3.96689025     0.96245726    -0.10389225       adf.R=1.517
      4      O     2.84649045    -0.95533057    -1.15877925       adf.R=1.517
      5      O     2.95105364    -0.67800424     1.29276015       adf.R=1.517
      6      C    -1.17167481     0.91699233    -0.06095663       adf.R=1.700
      7      C     0.07686800     0.04217737    -0.01247088       adf.R=1.700
      8      C    -2.88274837    -1.24242852    -1.42808343       adf.R=1.700
      9      C    -2.93784945    -0.95193957     1.62447275       adf.R=1.700
     10      C    -4.20127740     1.21349156    -0.14458982       adf.R=1.700
     11      C     1.33840544     0.89262272    -0.06650810       adf.R=1.700
     12      H    -1.15878487     1.62632901     0.77436218       adf.R=1.350
     13      H    -1.16150107     1.52297671    -0.97428644       adf.R=1.350
     14      H     0.08364494    -0.65943082    -0.84879347       adf.R=1.350
     15      H     0.08712460    -0.55141963     0.90464310       adf.R=1.350
     16      H    -2.76385439    -0.73083076    -2.38644015       adf.R=1.350
     17      H    -2.09987471    -2.00065596    -1.35052954       adf.R=1.350
     18      H    -3.84591412    -1.75842604    -1.43874020       adf.R=1.350
     19      H    -3.89437698    -1.47600075     1.69128516       adf.R=1.350
     20      H    -2.14313327    -1.69469126     1.72787125       adf.R=1.350
     21      H    -2.87002836    -0.26493595     2.47167178       adf.R=1.350
     22      H    -4.17088416     1.93599983     0.67464408       adf.R=1.350
     23      H    -4.14091183     1.76622378    -1.08527552       adf.R=1.350
     24      H    -5.16911707     0.70733516    -0.11217866       adf.R=1.350
     25      H     1.40046001     1.47188762    -0.98898755       adf.R=1.350
     26      H     1.41093314     1.57006670     0.78456356       adf.R=1.350
     27      H     4.07725006     1.26587245    -1.01744205       adf.R=1.350
 
Total System Charge             0.00000
Bonding info available!
 
 *** GOStep4 ***

 SOLVATION
-------------------------------------------

  The Delley construction of COSMO surface surface is calculated

       Division Level for Surface Triangles (NDIV)                  3
       Final Division Level for Triangles (NFDIV)                   1
       Radius of the Solvent (RSOL)                           1.93000 angstr
  Dielectric Constant (EPSL)                                 78.39000

       COSMO equation is solved iteratively-               conjugate-gradient

       Maximun of Iterations for Charges (NCIX)                  1000
       Criterion for Charge convergence (CCNV)                1.0E-08

  COSMO charges included variationally in SCF

       COSMO included at every SCF cycle

  Geometry-dependent empirical factor                         0.00000

  C-Matrix calculated in cspmtx

  In cspmtx, C-Matrix calculated using fitted potential

-------------------------------------------



 -------------------------------------------
  COSMO surface
  Area             =          799.926
  Volume           =         1521.970
  Number of Points =         2023
 -------------------------------------------



 ======================
 RI Hartree-Fock Scheme
 ======================
  
 Fit Set Quality     : GOOD
 Integration Quality : GOOD
 Threshold Quality   : GOOD
 Response Quality    : DEFAULT
 Is Range Separated  :  F
 
 RIHartreeFock Dependency: number of modified vectors:          24
 cosmo_calcen: 0.5 (esolb+esolc) (Hartrees) =   -0.026964

 Solvation energy (screening term,uncorrected) =    -16.920453 kcal/mol

 Solvation energy (dispersion and cavitation terms) =      1.495799 kcal/mol
 Solvation Energy Contributions (Hartrees)
          esola   esolb+esolc
     0.02696446   -0.05392891
 esol last cycle   -0.02696446
  
 Hartree-Fock exchange energy:   -107.072985263664     
 cosmo_calcen: 0.5 (esolb+esolc) (Hartrees) =   -0.026964

 Solvation energy (screening term,uncorrected) =    -16.920459 kcal/mol

 Solvation energy (dispersion and cavitation terms) =      1.495799 kcal/mol
 Solvation Energy Contributions (Hartrees)
          esola   esolb+esolc
     0.02696447   -0.05392893
 esol last cycle   -0.02696447
  pauli hf:                             -4.783251104614735       -130.1589         -3001.54        -12558.42
  elstat hf:                            -2.575824088839749        -70.0917         -1616.35         -6762.83

 Energy gradients wrt nuclear displacements
 ==========================================

     Atom      Cartesian (a.u./angstrom)
                 X         Y         Z
 ----------------------------------------
     1 S    -0.001691  0.000657 -0.004385
     2 Si    0.001802  0.000539 -0.000110
     3 O     0.002023 -0.000230  0.000534
     4 O    -0.000386 -0.000153  0.001275
     5 O     0.001600 -0.000155  0.002222
     6 C    -0.001981  0.000030  0.000426
     7 C     0.000326 -0.001756 -0.000801
     8 C    -0.000175 -0.000373 -0.000388
     9 C    -0.000321 -0.000283  0.000447
    10 C    -0.000197  0.000508 -0.000090
    11 C    -0.000562  0.001551 -0.001013
    12 H     0.000176  0.000009 -0.000145
    13 H     0.000268  0.000239  0.000093
    14 H     0.000128  0.000081  0.000468
    15 H    -0.000129  0.000267 -0.000030
    16 H     0.000088 -0.000074  0.000053
    17 H    -0.000093  0.000084 -0.000006
    18 H     0.000236  0.000145 -0.000044
    19 H     0.000199  0.000157  0.000042
    20 H    -0.000052  0.000110 -0.000045
    21 H     0.000067 -0.000063 -0.000044
    22 H    -0.000081  0.000014 -0.000154
    23 H    -0.000062  0.000048  0.000114
    24 H     0.000384 -0.000146 -0.000016
    25 H     0.000310  0.000264  0.000424
    26 H     0.000161 -0.000918 -0.000045
    27 H    -0.002039 -0.000553  0.001218
 ----------------------------------------
 Mulliken charges used for AMS results%charges...

 dE(predicted):    -0.18004E-03, dE(actual):    -0.21537E-03, Trust radius:    0.400000, all in a.u.
 
----------------------------------------------------------------------
Geometry Convergence after Step   4       (Hartree/Angstrom,Angstrom)
----------------------------------------------------------------------
current energy                               -6.50216256 Hartree
energy change                      -0.00021537     0.00027000    T
constrained gradient max            0.00439906     0.00100000    F
constrained gradient rms            0.00086493     0.00066667    F
gradient max                        0.00439906
gradient rms                        0.00086493
cart. step max                      0.05942111     0.01000000    F
cart. step rms                      0.01719916     0.00666667    F
 
 
--------
Geometry
--------
Atoms
  Index Symbol   x (angstrom)   y (angstrom)   z (angstrom)
      1      S     2.80183779    -0.08884956    -0.01264028       adf.R=1.792
      2     Si    -2.80711981    -0.03025806    -0.00238474       adf.R=1.908
      3      O     3.96476470     0.97424804    -0.04899047       adf.R=1.517
      4      O     2.88521785    -0.91362290    -1.18653675       adf.R=1.517
      5      O     2.91467368    -0.71219480     1.27475922       adf.R=1.517
      6      C    -1.17279270     0.91190602    -0.07774928       adf.R=1.700
      7      C     0.07818526     0.04190514    -0.02997501       adf.R=1.700
      8      C    -2.90223237    -1.25258691    -1.42188055       adf.R=1.700
      9      C    -2.93214770    -0.94758045     1.62895971       adf.R=1.700
     10      C    -4.20152475     1.21423308    -0.13960317       adf.R=1.700
     11      C     1.33893246     0.89398392    -0.07576996       adf.R=1.700
     12      H    -1.15827613     1.62573473     0.75372891       adf.R=1.350
     13      H    -1.17004672     1.51345232    -0.99389303       adf.R=1.350
     14      H     0.08923889    -0.65503966    -0.87002160       adf.R=1.350
     15      H     0.08932119    -0.55515250     0.88458233       adf.R=1.350
     16      H    -2.79301047    -0.74591303    -2.38398298       adf.R=1.350
     17      H    -2.12012995    -2.01213595    -1.34936634       adf.R=1.350
     18      H    -3.86630210    -1.76737000    -1.42025077       adf.R=1.350
     19      H    -3.88886328    -1.47050634     1.70394656       adf.R=1.350
     20      H    -2.13819285    -1.69116402     1.73233897       adf.R=1.350
     21      H    -2.85935137    -0.25664143     2.47253440       adf.R=1.350
     22      H    -4.16060969     1.94069629     0.67567247       adf.R=1.350
     23      H    -4.14623353     1.76198515    -1.08349429       adf.R=1.350
     24      H    -5.17259883     0.71468966    -0.09667183       adf.R=1.350
     25      H     1.40660445     1.47669159    -0.99567205       adf.R=1.350
     26      H     1.40619292     1.56984743     0.77738148       adf.R=1.350
     27      H     4.13656307     1.26744223    -0.95802094       adf.R=1.350
 
Total System Charge             0.00000
Bonding info available!
 
 *** GOStep5 ***

 SOLVATION
-------------------------------------------

  The Delley construction of COSMO surface surface is calculated

       Division Level for Surface Triangles (NDIV)                  3
       Final Division Level for Triangles (NFDIV)                   1
       Radius of the Solvent (RSOL)                           1.93000 angstr
  Dielectric Constant (EPSL)                                 78.39000

       COSMO equation is solved iteratively-               conjugate-gradient

       Maximun of Iterations for Charges (NCIX)                  1000
       Criterion for Charge convergence (CCNV)                1.0E-08

  COSMO charges included variationally in SCF

       COSMO included at every SCF cycle

  Geometry-dependent empirical factor                         0.00000

  C-Matrix calculated in cspmtx

  In cspmtx, C-Matrix calculated using fitted potential

-------------------------------------------



 -------------------------------------------
  COSMO surface
  Area             =          800.658
  Volume           =         1523.265
  Number of Points =         2026
 -------------------------------------------



 ======================
 RI Hartree-Fock Scheme
 ======================
  
 Fit Set Quality     : GOOD
 Integration Quality : GOOD
 Threshold Quality   : GOOD
 Response Quality    : DEFAULT
 Is Range Separated  :  F
 
 RIHartreeFock Dependency: number of modified vectors:          24
 cosmo_calcen: 0.5 (esolb+esolc) (Hartrees) =   -0.026734

 Solvation energy (screening term,uncorrected) =    -16.775589 kcal/mol

 Solvation energy (dispersion and cavitation terms) =      1.497168 kcal/mol
 Solvation Energy Contributions (Hartrees)
          esola   esolb+esolc
     0.02673360   -0.05346720
 esol last cycle   -0.02673360
  
 Hartree-Fock exchange energy:   -107.072624158448     
 cosmo_calcen: 0.5 (esolb+esolc) (Hartrees) =   -0.026734

 Solvation energy (screening term,uncorrected) =    -16.775593 kcal/mol

 Solvation energy (dispersion and cavitation terms) =      1.497168 kcal/mol
 Solvation Energy Contributions (Hartrees)
          esola   esolb+esolc
     0.02673361   -0.05346721
 esol last cycle   -0.02673361
  pauli hf:                             -4.756534781474681       -129.4319         -2984.77        -12488.28
  elstat hf:                            -2.575458621539582        -70.0818         -1616.12         -6761.87

 Energy gradients wrt nuclear displacements
 ==========================================

     Atom      Cartesian (a.u./angstrom)
                 X         Y         Z
 ----------------------------------------
     1 S     0.002783  0.005949 -0.001517
     2 Si    0.000006  0.000033 -0.000060
     3 O    -0.001876 -0.003089  0.001581
     4 O    -0.000163 -0.001466 -0.000576
     5 O    -0.000349 -0.001710  0.002559
     6 C    -0.000283 -0.000034  0.000218
     7 C    -0.000473 -0.001078 -0.000608
     8 C     0.000075 -0.000058 -0.000129
     9 C    -0.000048 -0.000000  0.000114
    10 C     0.000291  0.000345 -0.000066
    11 C    -0.000994 -0.000110 -0.000732
    12 H     0.000145 -0.000087 -0.000246
    13 H     0.000088  0.000150  0.000218
    14 H     0.000279  0.000599  0.000431
    15 H     0.000158  0.000625 -0.000051
    16 H     0.000040 -0.000103  0.000040
    17 H    -0.000180 -0.000040 -0.000097
    18 H     0.000144  0.000044 -0.000070
    19 H     0.000145  0.000047  0.000074
    20 H    -0.000130 -0.000000  0.000079
    21 H     0.000023 -0.000089 -0.000033
    22 H    -0.000133 -0.000040 -0.000142
    23 H    -0.000094 -0.000028  0.000124
    24 H     0.000043  0.000004 -0.000027
    25 H     0.000494  0.000101  0.000465
    26 H     0.000492 -0.000668 -0.000063
    27 H    -0.000482  0.000705 -0.001486
 ----------------------------------------
 Mulliken charges used for AMS results%charges...

 dE(predicted):    -0.86027E-04, dE(actual):    -0.81683E-04, Trust radius:    0.400000, all in a.u.
 
----------------------------------------------------------------------
Geometry Convergence after Step   5       (Hartree/Angstrom,Angstrom)
----------------------------------------------------------------------
current energy                               -6.50224424 Hartree
energy change                      -0.00008168     0.00027000    T
constrained gradient max            0.00597669     0.00100000    F
constrained gradient rms            0.00100778     0.00066667    F
gradient max                        0.00597669
gradient rms                        0.00100778
cart. step max                      0.02506815     0.01000000    F
cart. step rms                      0.00637228     0.00666667    T
 
 
--------
Geometry
--------
Atoms
  Index Symbol   x (angstrom)   y (angstrom)   z (angstrom)
      1      S     2.80392428    -0.08671815    -0.01877983       adf.R=1.792
      2     Si    -2.80872641    -0.03142383    -0.00156145       adf.R=1.908
      3      O     3.96206892     0.98312184    -0.03418774       adf.R=1.517
      4      O     2.89963986    -0.89209187    -1.20503475       adf.R=1.517
      5      O     2.91232807    -0.72634427     1.25993320       adf.R=1.517
      6      C    -1.17238691     0.90873174    -0.07978168       adf.R=1.700
      7      C     0.07904547     0.03968202    -0.03042715       adf.R=1.700
      8      C    -2.90714490    -1.25602599    -1.41849270       adf.R=1.700
      9      C    -2.93525575    -0.94567085     1.63106260       adf.R=1.700
     10      C    -4.20093876     1.21513698    -0.14038097       adf.R=1.700
     11      C     1.33878573     0.89334429    -0.07628099       adf.R=1.700
     12      H    -1.15852396     1.62482780     0.74996217       adf.R=1.350
     13      H    -1.17060393     1.50749659    -0.99777659       adf.R=1.350
     14      H     0.09010030    -0.65684273    -0.87136204       adf.R=1.350
     15      H     0.09024200    -0.55903607     0.88324674       adf.R=1.350
     16      H    -2.80009007    -0.75095462    -2.38174464       adf.R=1.350
     17      H    -2.12486231    -2.01550640    -1.34619275       adf.R=1.350
     18      H    -3.87149818    -1.77054370    -1.41366377       adf.R=1.350
     19      H    -3.89255654    -1.46785809     1.70571621       adf.R=1.350
     20      H    -2.14182952    -1.68959533     1.73643838       adf.R=1.350
     21      H    -2.86316463    -0.25318243     2.47349055       adf.R=1.350
     22      H    -4.15716202     1.94329351     0.67334775       adf.R=1.350
     23      H    -4.14464723     1.76071965    -1.08558140       adf.R=1.350
     24      H    -5.17354674     0.71860539    -0.09567070       adf.R=1.350
     25      H     1.40272467     1.47674197    -0.99624660       adf.R=1.350
     26      H     1.40454733     1.57002752     0.77680069       adf.R=1.350
     27      H     4.16163122     1.26786502    -0.93983255       adf.R=1.350
 
Total System Charge             0.00000
Bonding info available!
 
 *** GOStep6 ***

 SOLVATION
-------------------------------------------

  The Delley construction of COSMO surface surface is calculated

       Division Level for Surface Triangles (NDIV)                  3
       Final Division Level for Triangles (NFDIV)                   1
       Radius of the Solvent (RSOL)                           1.93000 angstr
  Dielectric Constant (EPSL)                                 78.39000

       COSMO equation is solved iteratively-               conjugate-gradient

       Maximun of Iterations for Charges (NCIX)                  1000
       Criterion for Charge convergence (CCNV)                1.0E-08

  COSMO charges included variationally in SCF

       COSMO included at every SCF cycle

  Geometry-dependent empirical factor                         0.00000

  C-Matrix calculated in cspmtx

  In cspmtx, C-Matrix calculated using fitted potential

-------------------------------------------



 -------------------------------------------
  COSMO surface
  Area             =          800.936
  Volume           =         1523.490
  Number of Points =         2025
 -------------------------------------------



 ======================
 RI Hartree-Fock Scheme
 ======================
  
 Fit Set Quality     : GOOD
 Integration Quality : GOOD
 Threshold Quality   : GOOD
 Response Quality    : DEFAULT
 Is Range Separated  :  F
 
 RIHartreeFock Dependency: number of modified vectors:          24
 cosmo_calcen: 0.5 (esolb+esolc) (Hartrees) =   -0.026463

 Solvation energy (screening term,uncorrected) =    -16.605774 kcal/mol

 Solvation energy (dispersion and cavitation terms) =      1.497688 kcal/mol
 Solvation Energy Contributions (Hartrees)
          esola   esolb+esolc
     0.02646298   -0.05292596
 esol last cycle   -0.02646298
  
 Hartree-Fock exchange energy:   -107.072376929003     
 cosmo_calcen: 0.5 (esolb+esolc) (Hartrees) =   -0.026463

 Solvation energy (screening term,uncorrected) =    -16.605774 kcal/mol

 Solvation energy (dispersion and cavitation terms) =      1.497688 kcal/mol
 Solvation Energy Contributions (Hartrees)
          esola   esolb+esolc
     0.02646298   -0.05292596
 esol last cycle   -0.02646298
  pauli hf:                             -4.749798432688248       -129.2486         -2980.54        -12470.59
  elstat hf:                            -2.575088557907399        -70.0717         -1615.89         -6760.89

 Energy gradients wrt nuclear displacements
 ==========================================

     Atom      Cartesian (a.u./angstrom)
                 X         Y         Z
 ----------------------------------------
     1 S     0.001499  0.003246  0.000708
     2 Si   -0.000456 -0.000067 -0.000014
     3 O    -0.002142 -0.002815  0.000465
     4 O     0.000364 -0.000849 -0.000790
     5 O    -0.000021 -0.000514  0.000933
     6 C     0.000471  0.000009 -0.000074
     7 C    -0.000277 -0.000396 -0.000141
     8 C     0.000113  0.000074  0.000020
     9 C     0.000044  0.000076 -0.000053
    10 C     0.000273  0.000063 -0.000036
    11 C    -0.000297 -0.000145 -0.000467
    12 H     0.000032 -0.000054 -0.000087
    13 H    -0.000009  0.000047  0.000121
    14 H     0.000128  0.000370  0.000123
    15 H     0.000136  0.000236  0.000020
    16 H     0.000020 -0.000042 -0.000011
    17 H    -0.000095 -0.000073 -0.000044
    18 H    -0.000015 -0.000009 -0.000054
    19 H    -0.000002 -0.000017  0.000051
    20 H    -0.000084 -0.000054  0.000050
    21 H    -0.000005 -0.000017 -0.000011
    22 H    -0.000064 -0.000033 -0.000055
    23 H    -0.000041 -0.000028  0.000016
    24 H    -0.000111  0.000037 -0.000036
    25 H     0.000179  0.000163  0.000207
    26 H     0.000173 -0.000048  0.000106
    27 H     0.000188  0.000838 -0.000946
 ----------------------------------------
 Mulliken charges used for AMS results%charges...

 dE(predicted):    -0.25522E-04, dE(actual):    -0.44279E-04, Trust radius:    0.400000, all in a.u.
 
----------------------------------------------------------------------
Geometry Convergence after Step   6       (Hartree/Angstrom,Angstrom)
----------------------------------------------------------------------
current energy                               -6.50228852 Hartree
energy change                      -0.00004428     0.00027000    T
constrained gradient max            0.00326066     0.00100000    F
constrained gradient rms            0.00062715     0.00066667    T
gradient max                        0.00326066
gradient rms                        0.00062715
cart. step max                      0.03749943     0.01000000    F
cart. step rms                      0.01063796     0.00666667    F
 
 
--------
Geometry
--------
Atoms
  Index Symbol   x (angstrom)   y (angstrom)   z (angstrom)
      1      S     2.80426834    -0.08598072    -0.03126845       adf.R=1.792
      2     Si    -2.81036959    -0.03183559    -0.00020994       adf.R=1.908
      3      O     3.95977423     0.98938057    -0.00774866       adf.R=1.517
      4      O     2.91337737    -0.85730249    -1.23818789       adf.R=1.517
      5      O     2.90099810    -0.75812923     1.23086676       adf.R=1.517
      6      C    -1.17343144     0.90812557    -0.08331905       adf.R=1.700
      7      C     0.07808731     0.03931581    -0.03361169       adf.R=1.700
      8      C    -2.90978284    -1.26172543    -1.41206417       adf.R=1.700
      9      C    -2.93637145    -0.93985078     1.63554760       adf.R=1.700
     10      C    -4.20231339     1.21444091    -0.14275223       adf.R=1.700
     11      C     1.33793113     0.89308426    -0.07655063       adf.R=1.700
     12      H    -1.15987811     1.62685812     0.74438718       adf.R=1.350
     13      H    -1.17358441     1.50344319    -1.00362330       adf.R=1.350
     14      H     0.08864005    -0.65556968    -0.87657108       adf.R=1.350
     15      H     0.08807704    -0.56308140     0.87781456       adf.R=1.350
     16      H    -2.80739843    -0.75983109    -2.37752800       adf.R=1.350
     17      H    -2.12466986    -2.01830777    -1.33917011       adf.R=1.350
     18      H    -3.87268230    -1.77905047    -1.40196231       adf.R=1.350
     19      H    -3.89282564    -1.46374590     1.71046246       adf.R=1.350
     20      H    -2.14131312    -1.68151277     1.74466957       adf.R=1.350
     21      H    -2.86723861    -0.24386837     2.47539543       adf.R=1.350
     22      H    -4.15642277     1.94616631     0.66778112       adf.R=1.350
     23      H    -4.14619342     1.75592118    -1.09044175       adf.R=1.350
     24      H    -5.17547103     0.71934054    -0.09479210       adf.R=1.350
     25      H     1.39827950     1.48128145    -0.99390972       adf.R=1.350
     26      H     1.40348271     1.56605727     0.77971606       adf.R=1.350
     27      H     4.19913065     1.26417650    -0.90592966       adf.R=1.350
 
Total System Charge             0.00000
Bonding info available!
 
 *** GOStep7 ***

 SOLVATION
-------------------------------------------

  The Delley construction of COSMO surface surface is calculated

       Division Level for Surface Triangles (NDIV)                  3
       Final Division Level for Triangles (NFDIV)                   1
       Radius of the Solvent (RSOL)                           1.93000 angstr
  Dielectric Constant (EPSL)                                 78.39000

       COSMO equation is solved iteratively-               conjugate-gradient

       Maximun of Iterations for Charges (NCIX)                  1000
       Criterion for Charge convergence (CCNV)                1.0E-08

  COSMO charges included variationally in SCF

       COSMO included at every SCF cycle

  Geometry-dependent empirical factor                         0.00000

  C-Matrix calculated in cspmtx

  In cspmtx, C-Matrix calculated using fitted potential

-------------------------------------------



 -------------------------------------------
  COSMO surface
  Area             =          801.637
  Volume           =         1524.199
  Number of Points =         2025
 -------------------------------------------



 ======================
 RI Hartree-Fock Scheme
 ======================
  
 Fit Set Quality     : GOOD
 Integration Quality : GOOD
 Threshold Quality   : GOOD
 Response Quality    : DEFAULT
 Is Range Separated  :  F
 
 RIHartreeFock Dependency: number of modified vectors:          24
 cosmo_calcen: 0.5 (esolb+esolc) (Hartrees) =   -0.026102

 Solvation energy (screening term,uncorrected) =    -16.379477 kcal/mol

 Solvation energy (dispersion and cavitation terms) =      1.498999 kcal/mol
 Solvation Energy Contributions (Hartrees)
          esola   esolb+esolc
     0.02610236   -0.05220471
 esol last cycle   -0.02610236
  
 Hartree-Fock exchange energy:   -107.071915930060     
 cosmo_calcen: 0.5 (esolb+esolc) (Hartrees) =   -0.026102

 Solvation energy (screening term,uncorrected) =    -16.379482 kcal/mol

 Solvation energy (dispersion and cavitation terms) =      1.498999 kcal/mol
 Solvation Energy Contributions (Hartrees)
          esola   esolb+esolc
     0.02610236   -0.05220473
 esol last cycle   -0.02610236
  pauli hf:                             -4.740883661572212       -129.0060         -2974.95        -12447.19
  elstat hf:                            -2.574634720620896        -70.0594         -1615.61         -6759.70

 Energy gradients wrt nuclear displacements
 ==========================================

     Atom      Cartesian (a.u./angstrom)
                 X         Y         Z
 ----------------------------------------
     1 S     0.000675  0.000180  0.000706
     2 Si   -0.000810 -0.000292  0.000032
     3 O    -0.000965 -0.000903 -0.000742
     4 O    -0.000053  0.000100 -0.000003
     5 O    -0.000002  0.000344 -0.000109
     6 C     0.001019  0.000031 -0.000155
     7 C    -0.000142  0.000515  0.000220
     8 C     0.000135  0.000162  0.000140
     9 C     0.000133  0.000104 -0.000196
    10 C     0.000153 -0.000221  0.000007
    11 C     0.000262 -0.000516 -0.000063
    12 H    -0.000172  0.000043  0.000092
    13 H    -0.000092 -0.000083 -0.000057
    14 H    -0.000041 -0.000019 -0.000174
    15 H     0.000018 -0.000184  0.000029
    16 H     0.000010  0.000002 -0.000050
    17 H     0.000016 -0.000083  0.000010
    18 H    -0.000131 -0.000030 -0.000018
    19 H    -0.000126 -0.000036 -0.000010
    20 H    -0.000017 -0.000069  0.000005
    21 H    -0.000030  0.000037  0.000013
    22 H     0.000015  0.000002  0.000029
    23 H     0.000026 -0.000011 -0.000095
    24 H    -0.000145  0.000055 -0.000048
    25 H    -0.000093  0.000102 -0.000122
    26 H    -0.000114  0.000338  0.000160
    27 H     0.000473  0.000434  0.000400
 ----------------------------------------
 Mulliken charges used for AMS results%charges...

 dE(predicted):    -0.21511E-04, dE(actual):    -0.31191E-04, Trust radius:    0.400000, all in a.u.
 
----------------------------------------------------------------------
Geometry Convergence after Step   7       (Hartree/Angstrom,Angstrom)
----------------------------------------------------------------------
current energy                               -6.50231971 Hartree
energy change                      -0.00003119     0.00027000    T
constrained gradient max            0.00102114     0.00100000    F
constrained gradient rms            0.00029527     0.00066667    T
gradient max                        0.00102114
gradient rms                        0.00029527
cart. step max                      0.01664835     0.01000000    F
cart. step rms                      0.00455298     0.00666667    T
 
 
--------
Geometry
--------
Atoms
  Index Symbol   x (angstrom)   y (angstrom)   z (angstrom)
      1      S     2.80161394    -0.08904329    -0.03795276       adf.R=1.792
      2     Si    -2.80998848    -0.03047698     0.00050327       adf.R=1.908
      3      O     3.95900524     0.98521991    -0.00259033       adf.R=1.517
      4      O     2.91099910    -0.84745132    -1.25291699       adf.R=1.517
      5      O     2.89626177    -0.77477759     1.21689749       adf.R=1.517
      6      C    -1.17442173     0.91114945    -0.08239122       adf.R=1.700
      7      C     0.07640774     0.04113559    -0.03366950       adf.R=1.700
      8      C    -2.90493821    -1.26315843    -1.40925651       adf.R=1.700
      9      C    -2.93589295    -0.93582280     1.63776373       adf.R=1.700
     10      C    -4.20438387     1.21270069    -0.14582329       adf.R=1.700
     11      C     1.33727331     0.89339406    -0.07404844       adf.R=1.700
     12      H    -1.16050114     1.62945293     0.74565342       adf.R=1.350
     13      H    -1.17452430     1.50672989    -1.00254154       adf.R=1.350
     14      H     0.08637818    -0.65227457    -0.87788433       adf.R=1.350
     15      H     0.08529491    -0.56316938     0.87647563       adf.R=1.350
     16      H    -2.80373417    -0.76260977    -2.37552808       adf.R=1.350
     17      H    -2.11713926    -2.01675291    -1.33458901       adf.R=1.350
     18      H    -3.86596585    -1.78382322    -1.39862141       adf.R=1.350
     19      H    -3.89082816    -1.46247095     1.71210179       adf.R=1.350
     20      H    -2.13864151    -1.67472025     1.74942086       adf.R=1.350
     21      H    -2.87014812    -0.23806325     2.47639525       adf.R=1.350
     22      H    -4.16087547     1.94615731     0.66326039       adf.R=1.350
     23      H    -4.14855618     1.75240333    -1.09453584       adf.R=1.350
     24      H    -5.17631668     0.71532204    -0.09777836       adf.R=1.350
     25      H     1.39712372     1.48644899    -0.98824984       adf.R=1.350
     26      H     1.40535679     1.56116675     0.78593430       adf.R=1.350
     27      H     4.20324139     1.26113375    -0.89902866       adf.R=1.350
 
Total System Charge             0.00000
Bonding info available!
 
 *** GOStep8 ***

 SOLVATION
-------------------------------------------

  The Delley construction of COSMO surface surface is calculated

       Division Level for Surface Triangles (NDIV)                  3
       Final Division Level for Triangles (NFDIV)                   1
       Radius of the Solvent (RSOL)                           1.93000 angstr
  Dielectric Constant (EPSL)                                 78.39000

       COSMO equation is solved iteratively-               conjugate-gradient

       Maximun of Iterations for Charges (NCIX)                  1000
       Criterion for Charge convergence (CCNV)                1.0E-08

  COSMO charges included variationally in SCF

       COSMO included at every SCF cycle

  Geometry-dependent empirical factor                         0.00000

  C-Matrix calculated in cspmtx

  In cspmtx, C-Matrix calculated using fitted potential

-------------------------------------------



 -------------------------------------------
  COSMO surface
  Area             =          800.215
  Volume           =         1522.006
  Number of Points =         2021
 -------------------------------------------



 ======================
 RI Hartree-Fock Scheme
 ======================
  
 Fit Set Quality     : GOOD
 Integration Quality : GOOD
 Threshold Quality   : GOOD
 Response Quality    : DEFAULT
 Is Range Separated  :  F
 
 RIHartreeFock Dependency: number of modified vectors:          24
 cosmo_calcen: 0.5 (esolb+esolc) (Hartrees) =   -0.026013

 Solvation energy (screening term,uncorrected) =    -16.323466 kcal/mol

 Solvation energy (dispersion and cavitation terms) =      1.496340 kcal/mol
 Solvation Energy Contributions (Hartrees)
          esola   esolb+esolc
     0.02601310   -0.05202619
 esol last cycle   -0.02601310
  
 Hartree-Fock exchange energy:   -107.071942984021     
 cosmo_calcen: 0.5 (esolb+esolc) (Hartrees) =   -0.026013

 Solvation energy (screening term,uncorrected) =    -16.323467 kcal/mol

 Solvation energy (dispersion and cavitation terms) =      1.496340 kcal/mol
 Solvation Energy Contributions (Hartrees)
          esola   esolb+esolc
     0.02601310   -0.05202620
 esol last cycle   -0.02601310
  pauli hf:                             -4.738993649789247       -128.9546         -2973.76        -12442.23
  elstat hf:                            -2.574718608374670        -70.0617         -1615.66         -6759.92

 Energy gradients wrt nuclear displacements
 ==========================================

     Atom      Cartesian (a.u./angstrom)
                 X         Y         Z
 ----------------------------------------
     1 S    -0.000032 -0.000460  0.000453
     2 Si   -0.000560 -0.000300  0.000019
     3 O    -0.000337 -0.000166 -0.000577
     4 O     0.000023  0.000208  0.000155
     5 O     0.000066  0.000346 -0.000295
     6 C     0.000808  0.000060 -0.000047
     7 C    -0.000048  0.000426  0.000209
     8 C     0.000100  0.000110  0.000098
     9 C     0.000111  0.000058 -0.000153
    10 C     0.000049 -0.000189  0.000015
    11 C     0.000321 -0.000213  0.000057
    12 H    -0.000195  0.000068  0.000076
    13 H    -0.000088 -0.000078 -0.000100
    14 H    -0.000048 -0.000081 -0.000143
    15 H    -0.000015 -0.000194  0.000002
    16 H     0.000022 -0.000008 -0.000032
    17 H     0.000035 -0.000052  0.000019
    18 H    -0.000083 -0.000016 -0.000006
    19 H    -0.000095 -0.000006 -0.000033
    20 H    -0.000007 -0.000036 -0.000009
    21 H    -0.000021  0.000021  0.000006
    22 H     0.000017  0.000007  0.000011
    23 H     0.000033 -0.000005 -0.000086
    24 H    -0.000061  0.000035 -0.000051
    25 H    -0.000080  0.000025 -0.000101
    26 H    -0.000183  0.000270  0.000078
    27 H     0.000267  0.000171  0.000435
 ----------------------------------------
 Mulliken charges used for AMS results%charges...
 
----------------------------------------------------------------------
Geometry Convergence after Step   8       (Hartree/Angstrom,Angstrom)
----------------------------------------------------------------------
current energy                               -6.50231947 Hartree
energy change                       0.00000025     0.00027000    T
constrained gradient max            0.00081295     0.00100000    T
constrained gradient rms            0.00020172     0.00066667    T
gradient max                        0.00081295
gradient rms                        0.00020172
cart. step max                      0.01520446     0.01000000    F
cart. step rms                      0.00522891     0.00666667    T
 
 
--------
Geometry
--------
Atoms
  Index Symbol   x (angstrom)   y (angstrom)   z (angstrom)
      1      S     2.79799476    -0.09386143    -0.04453685       adf.R=1.792
      2     Si    -2.80905199    -0.02803175     0.00121871       adf.R=1.908
      3      O     3.95961456     0.97672276    -0.00357856       adf.R=1.517
      4      O     2.90234493    -0.84346436    -1.26544791       adf.R=1.517
      5      O     2.89275187    -0.78998205     1.20471626       adf.R=1.517
      6      C    -1.17568067     0.91604065    -0.07951795       adf.R=1.700
      7      C     0.07418689     0.04416629    -0.03253106       adf.R=1.700
      8      C    -2.89657077    -1.26332571    -1.40696353       adf.R=1.700
      9      C    -2.93531882    -0.93133395     1.63976290       adf.R=1.700
     10      C    -4.20769824     1.20996651    -0.14999110       adf.R=1.700
     11      C     1.33685903     0.89375211    -0.07005780       adf.R=1.700
     12      H    -1.16074806     1.63250113     0.74996502       adf.R=1.350
     13      H    -1.17489082     1.51351210    -0.99841366       adf.R=1.350
     14      H     0.08328100    -0.64753592    -0.87799428       adf.R=1.350
     15      H     0.08181613    -0.56179064     0.87643706       adf.R=1.350
     16      H    -2.79599472    -0.76373833    -2.37377196       adf.R=1.350
     17      H    -2.10526484    -2.01294535    -1.32988916       adf.R=1.350
     18      H    -3.85495889    -1.78863216    -1.39713525       adf.R=1.350
     19      H    -3.88789095    -1.46224894     1.71277570       adf.R=1.350
     20      H    -2.13487001    -1.66625362     1.75451372       adf.R=1.350
     21      H    -2.87460889    -0.23188508     2.47733344       adf.R=1.350
     22      H    -4.16885593     1.94500046     0.65783102       adf.R=1.350
     23      H    -4.15243525     1.74813672    -1.09955147       adf.R=1.350
     24      H    -5.17740486     0.70826716    -0.10281913       adf.R=1.350
     25      H     1.39679052     1.49297742    -0.98010170       adf.R=1.350
     26      H     1.40944835     1.55449730     0.79469776       adf.R=1.350
     27      H     4.19925565     1.25728867    -0.89995021       adf.R=1.350
 
Total System Charge             0.00000
Bonding info available!
 
 *** GOStep9 ***

 SOLVATION
-------------------------------------------

  The Delley construction of COSMO surface surface is calculated

       Division Level for Surface Triangles (NDIV)                  3
       Final Division Level for Triangles (NFDIV)                   1
       Radius of the Solvent (RSOL)                           1.93000 angstr
  Dielectric Constant (EPSL)                                 78.39000

       COSMO equation is solved iteratively-               conjugate-gradient

       Maximun of Iterations for Charges (NCIX)                  1000
       Criterion for Charge convergence (CCNV)                1.0E-08

  COSMO charges included variationally in SCF

       COSMO included at every SCF cycle

  Geometry-dependent empirical factor                         0.00000

  C-Matrix calculated in cspmtx

  In cspmtx, C-Matrix calculated using fitted potential

-------------------------------------------



 -------------------------------------------
  COSMO surface
  Area             =          799.037
  Volume           =         1519.130
  Number of Points =         2016
 -------------------------------------------



 ======================
 RI Hartree-Fock Scheme
 ======================
  
 Fit Set Quality     : GOOD
 Integration Quality : GOOD
 Threshold Quality   : GOOD
 Response Quality    : DEFAULT
 Is Range Separated  :  F
 
 RIHartreeFock Dependency: number of modified vectors:          24
 cosmo_calcen: 0.5 (esolb+esolc) (Hartrees) =   -0.025993

 Solvation energy (screening term,uncorrected) =    -16.310695 kcal/mol

 Solvation energy (dispersion and cavitation terms) =      1.494138 kcal/mol
 Solvation Energy Contributions (Hartrees)
          esola   esolb+esolc
     0.02599274   -0.05198549
 esol last cycle   -0.02599274
  
 Hartree-Fock exchange energy:   -107.071849971304     
 cosmo_calcen: 0.5 (esolb+esolc) (Hartrees) =   -0.025993

 Solvation energy (screening term,uncorrected) =    -16.310697 kcal/mol

 Solvation energy (dispersion and cavitation terms) =      1.494138 kcal/mol
 Solvation Energy Contributions (Hartrees)
          esola   esolb+esolc
     0.02599275   -0.05198550
 esol last cycle   -0.02599275
  pauli hf:                             -4.735105474486581       -128.8488         -2971.32        -12432.02
  elstat hf:                            -2.574821147155475        -70.0644         -1615.72         -6760.19

 Energy gradients wrt nuclear displacements
 ==========================================

     Atom      Cartesian (a.u./angstrom)
                 X         Y         Z
 ----------------------------------------
     1 S    -0.000354 -0.000250 -0.000062
     2 Si   -0.000020 -0.000130 -0.000004
     3 O     0.000366  0.000472  0.000031
     4 O    -0.000029 -0.000006  0.000123
     5 O     0.000009  0.000071 -0.000078
     6 C     0.000138  0.000016  0.000080
     7 C     0.000000  0.000135  0.000055
     8 C     0.000030  0.000001  0.000007
     9 C     0.000036 -0.000019 -0.000039
    10 C    -0.000084 -0.000069 -0.000001
    11 C     0.000155  0.000095  0.000112
    12 H    -0.000099  0.000035 -0.000012
    13 H    -0.000035 -0.000038 -0.000074
    14 H    -0.000025 -0.000057 -0.000009
    15 H    -0.000018 -0.000065 -0.000016
    16 H     0.000041 -0.000033 -0.000006
    17 H     0.000028 -0.000003  0.000017
    18 H     0.000024 -0.000001 -0.000008
    19 H    -0.000013  0.000022 -0.000032
    20 H    -0.000011  0.000011 -0.000021
    21 H    -0.000008 -0.000010 -0.000014
    22 H     0.000005 -0.000013 -0.000036
    23 H     0.000019 -0.000011 -0.000038
    24 H     0.000029 -0.000003 -0.000049
    25 H     0.000003 -0.000060 -0.000013
    26 H    -0.000111  0.000005 -0.000046
    27 H    -0.000076 -0.000094  0.000133
 ----------------------------------------
 Mulliken charges used for AMS results%charges...

 dE(predicted):    -0.36259E-05, dE(actual):     0.35105E-05, Trust radius:    0.020000, all in a.u.
 
----------------------------------------------------------------------
Geometry Convergence after Step   9       (Hartree/Angstrom,Angstrom)
----------------------------------------------------------------------
current energy                               -6.50231596 Hartree
energy change                       0.00000351     0.00027000    T
constrained gradient max            0.00043350     0.00100000    T
constrained gradient rms            0.00009707     0.00066667    T
gradient max                        0.00043350
gradient rms                        0.00009707
cart. step max                      0.01034306     0.01000000    F
cart. step rms                      0.00306518     0.00666667    T
 
 
--------
Geometry
--------
Atoms
  Index Symbol   x (angstrom)   y (angstrom)   z (angstrom)
      1      S     2.79724097    -0.09559485    -0.04904514       adf.R=1.792
      2     Si    -2.80893192    -0.02725519     0.00161341       adf.R=1.908
      3      O     3.95965573     0.97366766    -0.00085109       adf.R=1.517
      4      O     2.90131208    -0.83678630    -1.27513726       adf.R=1.517
      5      O     2.89119876    -0.80032511     1.19549048       adf.R=1.517
      6      C    -1.17590042     0.91715863    -0.07882554       adf.R=1.700
      7      C     0.07364706     0.04460574    -0.03339636       adf.R=1.700
      8      C    -2.89431203    -1.26475280    -1.40486849       adf.R=1.700
      9      C    -2.93587745    -0.92821858     1.64148065       adf.R=1.700
     10      C    -4.20876620     1.20906687    -0.15257738       adf.R=1.700
     11      C     1.33688699     0.89344180    -0.06802766       adf.R=1.700
     12      H    -1.16005364     1.63247683     0.75158019       adf.R=1.350
     13      H    -1.17497795     1.51591412    -0.99684946       adf.R=1.350
     14      H     0.08280655    -0.64500655    -0.88048749       adf.R=1.350
     15      H     0.08073107    -0.56329350     0.87423508       adf.R=1.350
     16      H    -2.79424007    -0.76638829    -2.37235554       adf.R=1.350
     17      H    -2.10186325    -2.01303044    -1.32655132       adf.R=1.350
     18      H    -3.85181653    -1.79162490    -1.39458309       adf.R=1.350
     19      H    -3.88754123    -1.46076413     1.71423291       adf.R=1.350
     20      H    -2.13425835    -1.66150259     1.75853113       adf.R=1.350
     21      H    -2.87745183    -0.22727195     2.47795871       adf.R=1.350
     22      H    -4.17145707     1.94550630     0.65401395       adf.R=1.350
     23      H    -4.15369136     1.74561605    -1.10304339       adf.R=1.350
     24      H    -5.17782250     0.70610295    -0.10511609       adf.R=1.350
     25      H     1.39663070     1.49743765    -0.97490990       adf.R=1.350
     26      H     1.41128927     1.54946170     0.80015080       adf.R=1.350
     27      H     4.19966260     1.25915890    -0.89566208       adf.R=1.350
 
Total System Charge             0.00000
Bonding info available!
 
 *** GOStep10 ***

 SOLVATION
-------------------------------------------

  The Delley construction of COSMO surface surface is calculated

       Division Level for Surface Triangles (NDIV)                  3
       Final Division Level for Triangles (NFDIV)                   1
       Radius of the Solvent (RSOL)                           1.93000 angstr
  Dielectric Constant (EPSL)                                 78.39000

       COSMO equation is solved iteratively-               conjugate-gradient

       Maximun of Iterations for Charges (NCIX)                  1000
       Criterion for Charge convergence (CCNV)                1.0E-08

  COSMO charges included variationally in SCF

       COSMO included at every SCF cycle

  Geometry-dependent empirical factor                         0.00000

  C-Matrix calculated in cspmtx

  In cspmtx, C-Matrix calculated using fitted potential

-------------------------------------------



 -------------------------------------------
  COSMO surface
  Area             =          798.206
  Volume           =         1517.619
  Number of Points =         2012
 -------------------------------------------



 ======================
 RI Hartree-Fock Scheme
 ======================
  
 Fit Set Quality     : GOOD
 Integration Quality : GOOD
 Threshold Quality   : GOOD
 Response Quality    : DEFAULT
 Is Range Separated  :  F
 
 RIHartreeFock Dependency: number of modified vectors:          24
 cosmo_calcen: 0.5 (esolb+esolc) (Hartrees) =   -0.025979

 Solvation energy (screening term,uncorrected) =    -16.301988 kcal/mol

 Solvation energy (dispersion and cavitation terms) =      1.492584 kcal/mol
 Solvation Energy Contributions (Hartrees)
          esola   esolb+esolc
     0.02597887   -0.05195774
 esol last cycle   -0.02597887
  
 Hartree-Fock exchange energy:   -107.071869762131     
 cosmo_calcen: 0.5 (esolb+esolc) (Hartrees) =   -0.025979

 Solvation energy (screening term,uncorrected) =    -16.301990 kcal/mol

 Solvation energy (dispersion and cavitation terms) =      1.492584 kcal/mol
 Solvation Energy Contributions (Hartrees)
          esola   esolb+esolc
     0.02597887   -0.05195774
 esol last cycle   -0.02597887
  pauli hf:                             -4.729721893387758       -128.7023         -2967.95        -12417.88
  elstat hf:                            -2.574854783794553        -70.0654         -1615.75         -6760.28

 Energy gradients wrt nuclear displacements
 ==========================================

     Atom      Cartesian (a.u./angstrom)
                 X         Y         Z
 ----------------------------------------
     1 S    -0.000286 -0.000052 -0.000078
     2 Si    0.000099 -0.000044 -0.000019
     3 O     0.000236  0.000319  0.000191
     4 O     0.000015  0.000021  0.000068
     5 O     0.000032  0.000019  0.000051
     6 C    -0.000055 -0.000001  0.000092
     7 C    -0.000019 -0.000002  0.000006
     8 C     0.000004 -0.000024 -0.000026
     9 C     0.000010 -0.000024 -0.000010
    10 C    -0.000089 -0.000035 -0.000012
    11 C     0.000051  0.000112  0.000027
    12 H    -0.000034  0.000013 -0.000052
    13 H    -0.000006 -0.000028 -0.000042
    14 H     0.000002 -0.000006  0.000027
    15 H    -0.000003  0.000017 -0.000001
    16 H     0.000039 -0.000037  0.000004
    17 H     0.000024 -0.000005  0.000014
    18 H     0.000053 -0.000020 -0.000015
    19 H     0.000008  0.000014 -0.000021
    20 H    -0.000013  0.000007 -0.000017
    21 H    -0.000008 -0.000018 -0.000020
    22 H    -0.000006 -0.000029 -0.000045
    23 H     0.000008 -0.000026 -0.000027
    24 H     0.000024 -0.000019 -0.000048
    25 H     0.000027 -0.000043  0.000041
    26 H    -0.000039 -0.000038 -0.000045
    27 H    -0.000072 -0.000074 -0.000045
 ----------------------------------------
 Mulliken charges used for AMS results%charges...

 dE(predicted):    -0.70688E-06, dE(actual):     0.61942E-05, Trust radius:    0.020000, all in a.u.
 
----------------------------------------------------------------------
Geometry Convergence after Step  10       (Hartree/Angstrom,Angstrom)
----------------------------------------------------------------------
current energy                               -6.50230976 Hartree
energy change                       0.00000619     0.00027000    T
constrained gradient max            0.00028826     0.00100000    T
constrained gradient rms            0.00006616     0.00066667    T
gradient max                        0.00028826
gradient rms                        0.00006616
cart. step max                      0.01250742     0.01000000    F
cart. step rms                      0.00383122     0.00666667    T
 
 
--------
Geometry
--------
Atoms
  Index Symbol   x (angstrom)   y (angstrom)   z (angstrom)
      1      S     2.79689723    -0.09734891    -0.05465362       adf.R=1.792
      2     Si    -2.80888557    -0.02661610     0.00213350       adf.R=1.908
      3      O     3.95981258     0.97051890     0.00322664       adf.R=1.517
      4      O     2.90111212    -0.82794858    -1.28711616       adf.R=1.517
      5      O     2.88957873    -0.81283253     1.18385172       adf.R=1.517
      6      C    -1.17589735     0.91782693    -0.07814411       adf.R=1.700
      7      C     0.07339130     0.04463422    -0.03509751       adf.R=1.700
      8      C    -2.89246139    -1.26694558    -1.40205792       adf.R=1.700
      9      C    -2.93697527    -0.92436616     1.64376877       adf.R=1.700
     10      C    -4.20955335     1.20828738    -0.15577800       adf.R=1.700
     11      C     1.33711412     0.89287448    -0.06576064       adf.R=1.700
     12      H    -1.15901603     1.63152783     0.75362529       adf.R=1.350
     13      H    -1.17503146     1.51841570    -0.99492963       adf.R=1.350
     14      H     0.08269170    -0.64185851    -0.88466158       adf.R=1.350
     15      H     0.07995547    -0.56634449     0.87044197       adf.R=1.350
     16      H    -2.79270162    -0.77032015    -2.37047836       adf.R=1.350
     17      H    -2.09919445    -2.01419611    -1.32214082       adf.R=1.350
     18      H    -3.84933557    -1.79496057    -1.39107085       adf.R=1.350
     19      H    -3.88777598    -1.45848297     1.71633092       adf.R=1.350
     20      H    -2.13425003    -1.65597366     1.76380947       adf.R=1.350
     21      H    -2.88105480    -0.22142226     2.47875464       adf.R=1.350
     22      H    -4.17369056     1.94659663     0.64915751       adf.R=1.350
     23      H    -4.15454398     1.74262725    -1.10747714       adf.R=1.350
     24      H    -5.17809111     0.70429954    -0.10775930       adf.R=1.350
     25      H     1.39647163     1.50286286    -0.96869018       adf.R=1.350
     26      H     1.41310404     1.54315982     0.80664546       adf.R=1.350
     27      H     4.20042958     1.26378503    -0.88893010       adf.R=1.350
 
Total System Charge             0.00000
Bonding info available!
 
 *** GOStep11 ***

 SOLVATION
-------------------------------------------

  The Delley construction of COSMO surface surface is calculated

       Division Level for Surface Triangles (NDIV)                  3
       Final Division Level for Triangles (NFDIV)                   1
       Radius of the Solvent (RSOL)                           1.93000 angstr
  Dielectric Constant (EPSL)                                 78.39000

       COSMO equation is solved iteratively-               conjugate-gradient

       Maximun of Iterations for Charges (NCIX)                  1000
       Criterion for Charge convergence (CCNV)                1.0E-08

  COSMO charges included variationally in SCF

       COSMO included at every SCF cycle

  Geometry-dependent empirical factor                         0.00000

  C-Matrix calculated in cspmtx

  In cspmtx, C-Matrix calculated using fitted potential

-------------------------------------------



 -------------------------------------------
  COSMO surface
  Area             =          797.872
  Volume           =         1516.886
  Number of Points =         2013
 -------------------------------------------



 ======================
 RI Hartree-Fock Scheme
 ======================
  
 Fit Set Quality     : GOOD
 Integration Quality : GOOD
 Threshold Quality   : GOOD
 Response Quality    : DEFAULT
 Is Range Separated  :  F
 
 RIHartreeFock Dependency: number of modified vectors:          24
 cosmo_calcen: 0.5 (esolb+esolc) (Hartrees) =   -0.025981

 Solvation energy (screening term,uncorrected) =    -16.303428 kcal/mol

 Solvation energy (dispersion and cavitation terms) =      1.491959 kcal/mol
 Solvation Energy Contributions (Hartrees)
          esola   esolb+esolc
     0.02598116   -0.05196233
 esol last cycle   -0.02598116
  
 Hartree-Fock exchange energy:   -107.071833712170     
 cosmo_calcen: 0.5 (esolb+esolc) (Hartrees) =   -0.025981

 Solvation energy (screening term,uncorrected) =    -16.303429 kcal/mol

 Solvation energy (dispersion and cavitation terms) =      1.491959 kcal/mol
 Solvation Energy Contributions (Hartrees)
          esola   esolb+esolc
     0.02598117   -0.05196233
 esol last cycle   -0.02598117
  pauli hf:                             -4.722771378401479       -128.5131         -2963.58        -12399.63
[...]
                               0.992     0.122     0.028
                        -----------------------------------
 
================================================================================
 
 
===  TOTAL NMR SHIELDING TENSOR (ppm)
 
                        ***********************************
                        CARTESIAN AXIS REPRESENTATION

                        ==== total shielding tensor
                        -----------------------------------
                              37.950     1.823    -0.103
                               1.823    29.315    -0.277
                              -0.103    -0.277    27.197
                        -----------------------------------
                                  isotropic =     31.487

                        ***********************************
                        -----------------------------------
                        PRINCIPAL AXIS REPRESENTATION

                        ==== Principal components:

                              27.159    28.981    38.322
 
                        ==== Principal Axis System:

                              -0.014     0.199     0.980
                               0.139    -0.970     0.199
                               0.990     0.139    -0.014
                        -----------------------------------
################################################################################
********************************************************************************
****  N U C L E U S : H(25)
 
 ADF-GUI atom: H(25)
 Internal NMR numbering of atoms: H(25)
 
 
================================================================================
 
 
===  PARAMAGNETIC NMR SHIELDING TENSORS (ppm)
 
    ===     paramagnetic b^(1) tensor       ===     paramagnetic u^(1) tensor
    -----------------------------------     -----------------------------------
           0.000     0.000     0.000               5.774    -9.311     8.944
           0.000     0.000     0.000              -9.311   -33.400    11.628
           0.000     0.000     0.000               8.944    11.628   -23.278
    -----------------------------------     -----------------------------------
              isotropic =      0.000                  isotropic =    -16.968

    ===     paramagnetic s^(1) tensor       ===     paramagnetic gauge tensor
    -----------------------------------     -----------------------------------
          -4.576     9.964    -9.475               0.440     1.666    -1.041
           9.964    24.750    -9.868               1.666     8.672     1.382
          -9.475    -9.868    17.616              -1.041     1.382     3.661
    -----------------------------------     -----------------------------------
              isotropic =     12.597                  isotropic =      4.258

                        ***********************************
                        CARTESIAN AXIS REPRESENTATION

                        ==== total paramagnetic tensor
                        -----------------------------------
                               1.638     2.319    -1.572
                               2.319     0.023     3.143
                              -1.572     3.143    -2.001
                        -----------------------------------
                                  isotropic =     -0.114

                        ***********************************
                        -----------------------------------
                        PRINCIPAL AXIS REPRESENTATION

                        ==== Principal components:

                              -5.309     1.584     3.383
 
                        ==== Principal Axis System:

                               0.360     0.587     0.725
                              -0.585    -0.463     0.666
                               0.727    -0.664     0.177
                        -----------------------------------
 
================================================================================
 
 
===  DIAMAGNETIC NMR SHIELDING TENSORS (ppm)
 
    ===       diamagnetic core tensor       ===    diamagnetic valence tensor
    -----------------------------------     -----------------------------------
           0.000     0.000     0.000              28.707    -2.070     0.732
           0.000     0.000     0.000              -2.070    28.029    -6.302
           0.000     0.000     0.000               0.732    -6.302    28.725
    -----------------------------------     -----------------------------------
              isotropic =      0.000                  isotropic =     28.487

                        ***********************************
                        CARTESIAN AXIS REPRESENTATION

                        ==== total diamagnetic tensor
                        -----------------------------------
                              28.707    -2.070     0.732
                              -2.070    28.029    -6.302
                               0.732    -6.302    28.725
                        -----------------------------------
                                  isotropic =     28.487

                        ***********************************
                        -----------------------------------
                        PRINCIPAL AXIS REPRESENTATION

                        ==== Principal components:

                              21.912    28.273    35.277
 
                        ==== Principal Axis System:

                              -0.152     0.945     0.288
                              -0.734     0.087    -0.674
                              -0.662    -0.314     0.680
                        -----------------------------------
 
================================================================================
 
 
===  TOTAL NMR SHIELDING TENSOR (ppm)
 
                        ***********************************
                        CARTESIAN AXIS REPRESENTATION

                        ==== total shielding tensor
                        -----------------------------------
                              30.344     0.250    -0.840
                               0.250    28.052    -3.159
                              -0.840    -3.159    26.723
                        -----------------------------------
                                  isotropic =     28.373

                        ***********************************
                        -----------------------------------
                        PRINCIPAL AXIS REPRESENTATION

                        ==== Principal components:

                              24.120    29.770    31.230
 
                        ==== Principal Axis System:

                               0.080     0.759    -0.647
                               0.621    -0.545    -0.563
                               0.780     0.357     0.515
                        -----------------------------------
################################################################################
********************************************************************************
****  N U C L E U S : H(26)
 
 ADF-GUI atom: H(26)
 Internal NMR numbering of atoms: H(26)
 
 
================================================================================
 
 
===  PARAMAGNETIC NMR SHIELDING TENSORS (ppm)
 
    ===     paramagnetic b^(1) tensor       ===     paramagnetic u^(1) tensor
    -----------------------------------     -----------------------------------
           0.000     0.000     0.000               4.565   -10.496    -8.555
           0.000     0.000     0.000             -10.496   -33.332   -14.202
           0.000     0.000     0.000              -8.555   -14.202   -22.517
    -----------------------------------     -----------------------------------
              isotropic =      0.000                  isotropic =    -17.094

    ===     paramagnetic s^(1) tensor       ===     paramagnetic gauge tensor
    -----------------------------------     -----------------------------------
          -3.341    10.741     9.441               0.440     2.169     0.848
          10.741    26.125    10.871               2.169     6.713     0.273
           9.441    10.871    16.567               0.848     0.273     3.832
    -----------------------------------     -----------------------------------
              isotropic =     13.117                  isotropic =      3.662

                        ***********************************
                        CARTESIAN AXIS REPRESENTATION

                        ==== total paramagnetic tensor
                        -----------------------------------
                               1.664     2.413     1.734
                               2.413    -0.493    -3.058
                               1.734    -3.058    -2.117
                        -----------------------------------
                                  isotropic =     -0.315

                        ***********************************
                        -----------------------------------
                        PRINCIPAL AXIS REPRESENTATION

                        ==== Principal components:

                              -5.599     1.410     3.243
 
                        ==== Principal Axis System:

                              -0.369     0.453     0.812
                               0.600    -0.551     0.580
                               0.710     0.701    -0.068
                        -----------------------------------
 
================================================================================
 
 
===  DIAMAGNETIC NMR SHIELDING TENSORS (ppm)
 
    ===       diamagnetic core tensor       ===    diamagnetic valence tensor
    -----------------------------------     -----------------------------------
           0.000     0.000     0.000              28.545    -2.023    -0.925
           0.000     0.000     0.000              -2.023    28.642     6.196
           0.000     0.000     0.000              -0.925     6.196    28.620
    -----------------------------------     -----------------------------------
              isotropic =      0.000                  isotropic =     28.602

                        ***********************************
                        CARTESIAN AXIS REPRESENTATION

                        ==== total diamagnetic tensor
                        -----------------------------------
                              28.545    -2.023    -0.925
                              -2.023    28.642     6.196
                              -0.925     6.196    28.620
                        -----------------------------------
                                  isotropic =     28.602

                        ***********************************
                        -----------------------------------
                        PRINCIPAL AXIS REPRESENTATION

                        ==== Principal components:

                              22.333    28.014    35.460
 
                        ==== Principal Axis System:

                              -0.131     0.948     0.290
                              -0.716     0.112    -0.689
                               0.686     0.298    -0.664
                        -----------------------------------
 
================================================================================
 
 
===  TOTAL NMR SHIELDING TENSOR (ppm)
 
                        ***********************************
                        CARTESIAN AXIS REPRESENTATION

                        ==== total shielding tensor
                        -----------------------------------
                              30.209     0.391     0.810
                               0.391    28.149     3.138
                               0.810     3.138    26.503
                        -----------------------------------
                                  isotropic =     28.287

                        ***********************************
                        -----------------------------------
                        PRINCIPAL AXIS REPRESENTATION

                        ==== Principal components:

                              24.055    29.583    31.223
 
                        ==== Principal Axis System:

                              -0.066     0.774    -0.630
                              -0.603    -0.534    -0.593
                               0.795    -0.340    -0.502
                        -----------------------------------
################################################################################
********************************************************************************
****  N U C L E U S : H(27)
 
 ADF-GUI atom: H(27)
 Internal NMR numbering of atoms: H(27)
 
 
================================================================================
 
 
===  PARAMAGNETIC NMR SHIELDING TENSORS (ppm)
 
    ===     paramagnetic b^(1) tensor       ===     paramagnetic u^(1) tensor
    -----------------------------------     -----------------------------------
           0.000     0.000     0.000              -0.216   -15.672    15.156
           0.000     0.000     0.000             -15.672    20.063    -7.196
           0.000     0.000     0.000              15.156    -7.196     1.543
    -----------------------------------     -----------------------------------
              isotropic =      0.000                  isotropic =      7.130

    ===     paramagnetic s^(1) tensor       ===     paramagnetic gauge tensor
    -----------------------------------     -----------------------------------
          -2.285    12.352   -12.547               0.872     1.363    -0.918
          12.352   -19.486     8.584               1.363    -3.375     0.661
         -12.547     8.584    -8.309              -0.918     0.661    -3.586
    -----------------------------------     -----------------------------------
              isotropic =    -10.027                  isotropic =     -2.029

                        ***********************************
                        CARTESIAN AXIS REPRESENTATION

                        ==== total paramagnetic tensor
                        -----------------------------------
                              -1.629    -1.957     1.691
                              -1.957    -2.798     2.050
                               1.691     2.050   -10.352
                        -----------------------------------
                                  isotropic =     -4.926

                        ***********************************
                        -----------------------------------
                        PRINCIPAL AXIS REPRESENTATION

                        ==== Principal components:

                             -11.347    -3.263    -0.169
 
                        ==== Principal Axis System:

                              -0.218    -0.548     0.808
                              -0.274    -0.760    -0.589
                               0.936    -0.350     0.016
                        -----------------------------------
 
================================================================================
 
 
===  DIAMAGNETIC NMR SHIELDING TENSORS (ppm)
 
    ===       diamagnetic core tensor       ===    diamagnetic valence tensor
    -----------------------------------     -----------------------------------
           0.000     0.000     0.000              26.754     6.313    -6.559
           0.000     0.000     0.000               6.313    26.481    -7.140
           0.000     0.000     0.000              -6.559    -7.140    37.571
    -----------------------------------     -----------------------------------
              isotropic =      0.000                  isotropic =     30.269

                        ***********************************
                        CARTESIAN AXIS REPRESENTATION

                        ==== total diamagnetic tensor
                        -----------------------------------
                              26.754     6.313    -6.559
                               6.313    26.481    -7.140
                              -6.559    -7.140    37.571
                        -----------------------------------
                                  isotropic =     30.269

                        ***********************************
                        -----------------------------------
                        PRINCIPAL AXIS REPRESENTATION

                        ==== Principal components:

                              20.276    25.316    45.213
 
                        ==== Principal Axis System:

                               0.669    -0.605    -0.431
                              -0.741    -0.503    -0.445
                              -0.052    -0.617     0.785
                        -----------------------------------
 
================================================================================
 
 
===  TOTAL NMR SHIELDING TENSOR (ppm)
 
                        ***********************************
                        CARTESIAN AXIS REPRESENTATION

                        ==== total shielding tensor
                        -----------------------------------
                              25.125     4.356    -4.868
                               4.356    23.683    -5.090
                              -4.868    -5.090    27.219
                        -----------------------------------
                                  isotropic =     25.342

                        ***********************************
                        -----------------------------------
                        PRINCIPAL AXIS REPRESENTATION

                        ==== Principal components:

                              19.731    21.210    35.085
 
                        ==== Principal Axis System:

                               0.402     0.734    -0.547
                              -0.857     0.093    -0.507
                              -0.321     0.673     0.666
                        -----------------------------------
 *******************************************************************************

                             N M R   E X I T
 NORMAL TERMINATION



 =================
 Timing Statistics
 =================
  
 Total Used :                     CPU=      755.76      System=       11.74     Elapsed=      801.35

 Calls  Section                     ( Mean, Percentage )
 ---------------------------------------------------------------------------------------------------
     3  ><      ................      0.00    0.00             0.00    0.02             0.00    0.00
     1  INIT    ................      0.73    0.10             0.05    0.42             0.78    0.10
     1  RDEIGX  ................    109.41   14.48             1.48   12.64           115.36   14.40
     1  AOF1K   ................     10.07    1.33             0.04    0.38            10.51    1.31
    22  AOPKK   ................     14.96   43.55             0.44   83.34            16.09   44.16
    22  XSIGP   ................      0.07    0.19             0.00    0.43             0.07    0.20
    22  AODKKK  ................     13.85   40.32             0.01    2.47            14.49   39.79
    22  XDV     ................      0.01    0.04             0.00    0.09             0.01    0.04
    22  XSIGD   ................      0.00    0.00             0.00    0.00             0.00    0.00
     1  EXIT PROCEDURE .........      0.00    0.00             0.02    0.21             0.03    0.00


 Currently Open Files (EXIT00)
 ====================

 Unit    Access Format  Status   Type       Ident (file)
 -------------------------------------------------------
   3      SEQ    FORM   TRANSP  NORMAL      LOGFILE
                                          ( /home/milias/Work/projects/open-collection/theoretical_chemistry/projects/nmr_diplomovky/reference_compounds/3-trimethylsilylpropane-1-sulfonic_acid/TSPSA.geopt_freq_nmrshield_pbe0_tz2p_good_cosmo-h2o.logfile )
