

 Parallel Execution: Process Information
 ==============================================================================
 Rank   Node Name                              NodeID   MyNodeRank  NodeMaster
    0   adf1                                      0          0          0
    1   adf1                                      0          1         -1
    2   adf1                                      0          2         -1
    3   adf1                                      0          3         -1
    4   adf1                                      0          4         -1
    5   adf1                                      0          5         -1
    6   adf1                                      1          0          1
    7   adf1                                      1          1         -1
    8   adf1                                      1          2         -1
    9   adf1                                      1          3         -1
   10   adf1                                      1          4         -1
   11   adf1                                      1          5         -1
 ==============================================================================


May use up to 11697MB of RAM as shared memory on node 0
May use up to 11718MB of RAM as shared memory on node 1

 *******************************************************************************
 *                                                                             *
 *  --------------------------------                                           *
 *   Amsterdam Modeling Suite (AMS)              2021.105                      *
 *  --------------------------------                                           *
 *                                               r97261 2021-09-16             *
 *                                                                             *
 *                                                                             *
 *                              =================                              *
 *                              |               |                              *
 *                              |     A M S     |                              *
 *                              |               |                              *
 *                              =================                              *
 *                                                                             *
 *                                                                             *
 *   Online information and documentation:  https://www.scm.com/support/       *
 *   E-mail:  support@scm.com   info@scm.com                                   *
 *                                                                             *
 *   Scientific publications using AMS results must be properly referenced     *
 *   See the User Manuals (or the web site) for recommended citations          *
 *   The terms and conditions of the End User License Agreement apply to       *
 *   the use of AMS, https://www.scm.com/license-terms/                        *
 *                                                                             *
 **********************  x86_64_linux_intel / intelmpi  ************************
 
 Licensed to: Dr. Miroslav Ilias / Matej Bel University, Department Chemistry, Fac. Natural Sciences / Banska Bystrica / SLOVAKIA
 SCM User ID: u17848
  
 AMS 2021.105  RunTime: Nov04-2021 21:19:32  ShM Nodes: 2  Procs: 12

 AMS jobname: ams
 AMS jobid  : 2119374615

 Start   directory: /home/milias/Work/projects/open-collection/theoretical_chemistry/projects/lead_water_complexes/adf/Pb_1H2O/srzora/tmp.milias.28691.0.noindex/
 Results directory: /home/milias/Work/projects/open-collection/theoretical_chemistry/projects/lead_water_complexes/adf/Pb_1H2O/srzora/Pb-1H2O_2p.geoptfreq_srzora_bp86_dzp_sc.results/
 Scratch directory: /tmp/amstmp_ams_kid0.2119374615/


 Communication costs MPI_COMM_WORLD:      2.851 usec per message,   0.0274 usec per 8-byte item
 Communication costs for intra-node:      1.568 usec per message,   0.0130 usec per 8-byte item

 RNG seed: -1995113990 1109089432 -1415985831 -72244142 -1205124722 1882240484 1586426433 -1583518310



                     *************************************************************************
                     *  ADF 2021.105  RunTime: Nov04-2021 21:19:32  ShM Nodes: 2  Procs: 12  *
                     *************************************************************************
  
       ***************************
       *  GEOMETRY OPTIMIZATION  *
       ***************************

Optimization Method                    Quasi Newton
Optimization Coordinates               Delocalized Coordinates
Optimize lattice                       F
 
 ------------------------------------------------------
 Convergence criteria (Hartree,Angstrom)
 ------------------------------------------------------
 Maximum gradient               0.001000000000
 Maximum rms gradient           0.000666666667
 Maximum step allowed           0.010000000000
 Maximum rms step allowed       0.006666666667
 Maximum energy change allowe   0.000040000000
 Maximum stress energy allowe   0.000500000000
 
Initial model Hessian                  Automatic Hessian
 
------------------------------------
Quasi-Newton Optimizer Parameters
------------------------------------
Hessian Update Method                  BFGS
Maximum number of steps                  250
First GDIIS cycle                          0
Maximum GDIIS vectors                      0
Trust radius (bohr)                        0.200000
Trust radius varies                        T
Constraints converged at all steps         T
Use projector                              T
 
 Rigid motions settings for: old optimizer
 Atomic rotations (x,y,z):     T T T
 Atomic translations (x,y,z):  T T T
 Tolerance:                   1.000000000000000E-006
 
--------
Geometry
--------
Formula: H2OPb
Atoms
  Index Symbol   x (angstrom)   y (angstrom)   z (angstrom)
      1     Pb     0.00000000     0.00000000     2.06464720
      2      H     0.00000000    -0.79902879    -0.88857026
      3      H    -0.00000000     0.79902879    -0.88857026
      4      O     0.00000000    -0.00000000    -0.28750669
 
Total System Charge             2.00000
Bonding info available!
 
 
----------------
ADF Engine Input
----------------
 
 Basis
 Type DZP
 Core Small
 End
 XC
 GGA BP86
 End
 

 Title: *** (NO TITLE) ***

Number of symmetry operators: 4
Schoenflies symbol:           C(2V)
 Using automatic Hessian for delocalized coordinates.
 *** GOStep1 ***

 Energy gradients wrt nuclear displacements
 ==========================================

     Atom      Cartesian (a.u./angstrom)
                 X         Y         Z
 ----------------------------------------
     1 Pb    0.000000  0.000000 -0.000194
     2 H     0.000000 -0.000025  0.000069
     3 H     0.000000  0.000025  0.000069
     4 O     0.000000  0.000000  0.000055
 ----------------------------------------
 Mulliken charges used for AMS results%charges...
 
----------------------------------------------------------------------
Geometry Convergence after Step   1       (Hartree/Angstrom,Angstrom)
----------------------------------------------------------------------
current energy                                0.14321830 Hartree
energy change                       0.14321830     0.00004000    F
constrained gradient max            0.00019365     0.00100000    T
constrained gradient rms            0.00006542     0.00066667    T
gradient max                        0.00019365
gradient rms                        0.00006542
cart. step max                      0.00013481     0.01000000    T
cart. step rms                      0.00005537     0.00666667    T
 
 
--------
Geometry
--------
Formula: H2OPb
Atoms
  Index Symbol   x (angstrom)   y (angstrom)   z (angstrom)
      1     Pb     0.00000000     0.00000000     2.06478201
      2      H     0.00000000    -0.79897175    -0.88864695
      3      H    -0.00000000     0.79897175    -0.88864695
      4      O     0.00000000    -0.00000000    -0.28748810
 
Total System Charge             2.00000
Bonding info available!
 
 *** GOStep2 ***

 Energy gradients wrt nuclear displacements
 ==========================================

     Atom      Cartesian (a.u./angstrom)
                 X         Y         Z
 ----------------------------------------
     1 Pb    0.000000  0.000000 -0.000161
     2 H     0.000000 -0.000012  0.000034
     3 H     0.000000  0.000012  0.000034
     4 O     0.000000  0.000000  0.000094
 ----------------------------------------
 Mulliken charges used for AMS results%charges...
 
---------------------------------------------------------
Geometry Convergence after Step   2       ** CONVERGED **
---------------------------------------------------------
current energy                                0.14321832 Hartree
energy change                       0.00000002     0.00004000    T
constrained gradient max            0.00016097     0.00100000    T
constrained gradient rms            0.00005571     0.00066667    T
gradient max                        0.00016097
gradient rms                        0.00005571
cart. step max                      0.00034753     0.01000000    T
cart. step rms                      0.00013073     0.00666667    T
 
Geometry optimization converged

Optimized geometry:
 
--------
Geometry
--------
Formula: H2OPb
Atoms
  Index Symbol   x (angstrom)   y (angstrom)   z (angstrom)
      1     Pb     0.00000000     0.00000000     2.06478201
      2      H     0.00000000    -0.79897175    -0.88864695
      3      H    -0.00000000     0.79897175    -0.88864695
      4      O     0.00000000    -0.00000000    -0.28748810
 
Total System Charge             2.00000
Bonding info available!
 
Performing a single point calculation on the final geometry ...

 *** adf ***



 ===========================
 A T T A C H E D   F I L E S
 ===========================
  
 Restart/tmp/amstmp_ams_kid0.2119374615/GOStep2.rkf*** GOStep2 ***



 ===============================
 M O D E L   P A R A M E T E R S
 ===============================
  
 DENSITY FUNCTIONAL POTENTIAL (scf)
    LDA:                               VWN                                      
    Gradient Corrections:              Becke88 Perdew86                        == Not Default ==

 SPIN  (restricted / unrestr.)
    Molecule:                          Restricted                               
    Fragments:                         Restricted                               

 OTHER ASPECTS
    Relativistic Corrections:          scalar (ZORA,MAPA)                       

    Nuclear Charge Density Model:      Point Charge Nuclei                      
    Core Treatment:                    Frozen Orbital(s)                        

    Hyperfine or Zeeman Interaction:   ---                                      



 ===============
 G E O M E T R Y  ***  Planar Molecule  ***
 ===============
  

 ATOMS
 =====                            X Y Z                    CHARGE
                                (Angstrom)             Nucl     +Core       At.Mass
                       --------------------------    ----------------       -------
    1  Pb              0.0000    0.0000    2.0648     82.00     36.00      207.9766
    2  H               0.0000   -0.7990   -0.8886      1.00      1.00        1.0078
    3  H              -0.0000    0.7990   -0.8886      1.00      1.00        1.0078
    4  O               0.0000   -0.0000   -0.2875      8.00      6.00       15.9949


 FRAGMENTS
 =========                                     Atoms in this Fragment     Cart. coord.s (Angstrom)
                                               -------------------------------------------------------
    1  Pb                                                1  Pb           0.0000    0.0000    2.0648
    2  H                                                 2  H            0.0000   -0.7990   -0.8886
    3  H                                                 3  H           -0.0000    0.7990   -0.8886
    4  O                                                 4  O            0.0000   -0.0000   -0.2875


 Interatomic Distance Matrix (Angstrom)
 --------------------------------------

   1)     0.000
   2)     3.060   0.000
   3)     3.060   1.598   0.000
   4)     2.352   1.000   1.000   0.000

 Min. Distance =    0.9999
 Max. Distance =    3.0596



 =====================================
 S Y M M E T R Y ,   E L E C T R O N S
 =====================================
  
 Symmetry: C(2V)

 Irreducible Representations, including subspecies
 -------------------------------------------------
 A1
 A2
 B1
 B2


 Configuration of Valence Electrons
 ==================================
 ( determined in the SCF procedure )

 Total:   42

 Net Charge: 2 (Nuclei minus Electrons)

 Aufbau principle for MO occupations will be applied through SCF cycle no.     150
 Thereafter, the program will assign electrons to MOs that are spatially
 similar to the occupied MOs in a "reference" cycle ("KeepOrbitals").
 The reference cycle is always the PREVIOUS cycle: it will evolve with
 the SCF procedure.
1
 ***************************************************************************************************



                                      ****************************************
                                      *  B U I L D : (Fragments, Functions)  *
                                      ****************************************
  



 =======
 S F O s  ***  (Symmetrized Fragment Orbitals)  ***
 =======
  
 SFOs are linear combinations of (valence) Fragment Orbitals (FOs), such that the SFOs transform as the
 irreducible representations of the (molecular) symmetry group. Each SFO is therefore characterized by
 an irrep of the molecule and by a few (or only one) generating FOs.
 The SFOs constitute a symmetry-adapted basis for the Fock matrix. The MO eigenvector coefficients in
 this basis provide a direct interpretation of the MOs in terms of Frontier Orbital Theory.

 The SFOs are combined with auxiliary Core Functions (CFs) to ensure orthogonalization on the (frozen)
 Core Orbitals (COs). The Core-orthogonalized SFOs (CSFOs) constitute the true Fock basis.

 The FOs, and hence also the (C)SFOs are combinations of the elementary basis functions (BAS). The basis
 functions that participate in the description of the SFOs depend on the irrep. The indices of the
 involved functions are printed below for each irrep.
 (The complete list of primitive basis functions is printed in another section)

 Total nr. of (C)SFOs (summation over all irreps) :    80

 NOTE: a (C)SFO that is defined as a combination of more than one FO is usually NOT normalized.



                                       === A1 ===
 Nr. of SFOs :   33
 Cartesian basis functions that participate in this irrep (total number =    58) :
      1     2     3     4     7    10    13    19    25    14
     17    20    23   105    26    27    28    29    30    31
     34    37    40    43    46    52    58    64    47    50
     53    56    59    62    74    84    94    67    72    77
     82    87    92    95   100    96   101    99   104    98
    103   106   107   110   113   119   114   117

    SFO  (index         Fragment          Generating    Expansion in Fragment Orbitals
  indx  incl.CFs)   Occup   Orb.Energy   FragmentType  Coeff.   Orbital     on Fragment
 --------------------------------------------------------------------------------------
     1      15      2.000      -5.257 au  Pb            1.00      1 S               1
                        (    -143.049 eV)
     2      16      2.000      -0.444 au  Pb            1.00      2 S               1
                        (     -12.093 eV)
     3      17       --         0.063 au  Pb            1.00      3 S               1
                        (       1.706 eV)
     4      18       --         0.955 au  Pb            1.00      4 S               1
                        (      25.999 eV)
     5      19       --         5.713 au  Pb            1.00      5 S               1
                        (     155.468 eV)
     6      20       --      3692.882 au  Pb            1.00      6 S               1
                        (  100488.432 eV)
     7      21      2.000      -3.139 au  Pb            1.00      1 P:z             1
                        (     -85.422 eV)
     8      22      0.667      -0.133 au  Pb            1.00      2 P:z             1
                        (      -3.632 eV)
     9      23       --         0.045 au  Pb            1.00      3 P:z             1
                        (       1.212 eV)
    10      24       --         0.426 au  Pb            1.00      4 P:z             1
                        (      11.596 eV)
    11      25       --         3.056 au  Pb            1.00      5 P:z             1
                        (      83.146 eV)
    12      26      2.000      -0.786 au  Pb            1.00      1 D:z2            1
                        (     -21.381 eV)
    13      27       --         0.427 au  Pb            1.00      2 D:z2            1
                        (      11.626 eV)
    14      28       --         3.399 au  Pb            1.00      3 D:z2            1
                        (      92.482 eV)
    15      29      2.000      -0.786 au  Pb            1.00      1 D:x2-y2         1
                        (     -21.381 eV)
    16      30       --         0.427 au  Pb            1.00      2 D:x2-y2         1
                        (      11.626 eV)
    17      31       --         3.399 au  Pb            1.00      3 D:x2-y2         1
                        (      92.482 eV)
    18      32      2.000      -4.933 au  Pb            1.00      1 F:z3            1
                        (    -134.237 eV)
    19      33       --         4.295 au  Pb            1.00      2 F:z3            1
                        (     116.866 eV)
    20      34       --        36.958 au  Pb            1.00      3 F:z3            1
                        (    1005.677 eV)
    21      35      2.000      -4.933 au  Pb            1.00      1 F:z             1
                        (    -134.237 eV)
    22      36       --         4.295 au  Pb            1.00      2 F:z             1
                        (     116.866 eV)
    23      37       --        36.958 au  Pb            1.00      3 F:z             1
                        (    1005.677 eV)
    24      38      1.000      -0.245 au  H             0.71      1 S               2
                        (      -6.661 eV)               0.71      1 S               3
    25      39       --         0.387 au  H             0.71      2 S               2
                        (      10.544 eV)               0.71      2 S               3
    26      40       --         0.398 au  H             0.71      1 P:y             2
                        (      10.843 eV)              -0.71      1 P:y             3
    27      41       --         0.398 au  H             0.71      1 P:z             2
                        (      10.843 eV)               0.71      1 P:z             3
    28      42      2.000      -0.896 au  O             1.00      1 S               4
                        (     -24.370 eV)
    29      43       --         0.998 au  O             1.00      2 S               4
                        (      27.170 eV)
    30      44      1.333      -0.347 au  O             1.00      1 P:z             4
                        (      -9.441 eV)
    31      45       --         0.813 au  O             1.00      2 P:z             4
                        (      22.121 eV)
    32      46       --         1.051 au  O             1.00      1 D:z2            4
                        (      28.612 eV)
    33      47       --         1.051 au  O             1.00      1 D:x2-y2         4
                        (      28.612 eV)



                                       === A2 ===
 Nr. of SFOs :    8
 Cartesian basis functions that participate in this irrep (total number =    11) :
     15    21    48    54    60    69    79    89    97   102
    115

    SFO  (index         Fragment          Generating    Expansion in Fragment Orbitals
  indx  incl.CFs)   Occup   Orb.Energy   FragmentType  Coeff.   Orbital     on Fragment
 --------------------------------------------------------------------------------------
     1       3      2.000      -0.786 au  Pb            1.00      1 D:xy            1
                        (     -21.381 eV)
     2       4       --         0.427 au  Pb            1.00      2 D:xy            1
                        (      11.626 eV)
     3       5       --         3.399 au  Pb            1.00      3 D:xy            1
                        (      92.482 eV)
     4       6      2.000      -4.933 au  Pb            1.00      1 F:xyz           1
                        (    -134.237 eV)
     5       7       --         4.295 au  Pb            1.00      2 F:xyz           1
                        (     116.866 eV)
     6       8       --        36.958 au  Pb            1.00      3 F:xyz           1
                        (    1005.677 eV)
     7       9       --         0.398 au  H             0.71      1 P:x             2
                        (      10.843 eV)              -0.71      1 P:x             3
     8      10       --         1.051 au  O             1.00      1 D:xy            4
                        (      28.612 eV)



                                       === B1 ===
 Nr. of SFOs :   18
 Cartesian basis functions that participate in this irrep (total number =    27) :
      5     8    11    16    22    32    35    38    41    44
     49    55    61    70    80    90    65    68    75    78
     85    88    97   102   108   111   116

    SFO  (index         Fragment          Generating    Expansion in Fragment Orbitals
  indx  incl.CFs)   Occup   Orb.Energy   FragmentType  Coeff.   Orbital     on Fragment
 --------------------------------------------------------------------------------------
     1       6      2.000      -3.139 au  Pb            1.00      1 P:x             1
                        (     -85.422 eV)
     2       7      0.667      -0.133 au  Pb            1.00      2 P:x             1
                        (      -3.632 eV)
     3       8       --         0.045 au  Pb            1.00      3 P:x             1
                        (       1.212 eV)
     4       9       --         0.426 au  Pb            1.00      4 P:x             1
                        (      11.596 eV)
     5      10       --         3.056 au  Pb            1.00      5 P:x             1
                        (      83.146 eV)
     6      11      2.000      -0.786 au  Pb            1.00      1 D:xz            1
                        (     -21.381 eV)
     7      12       --         0.427 au  Pb            1.00      2 D:xz            1
                        (      11.626 eV)
     8      13       --         3.399 au  Pb            1.00      3 D:xz            1
                        (      92.482 eV)
     9      14      2.000      -4.933 au  Pb            1.00      1 F:z2x           1
                        (    -134.237 eV)
    10      15       --         4.295 au  Pb            1.00      2 F:z2x           1
                        (     116.866 eV)
    11      16       --        36.958 au  Pb            1.00      3 F:z2x           1
                        (    1005.677 eV)
    12      17      2.000      -4.933 au  Pb            1.00      1 F:x             1
                        (    -134.237 eV)
    13      18       --         4.295 au  Pb            1.00      2 F:x             1
                        (     116.866 eV)
    14      19       --        36.958 au  Pb            1.00      3 F:x             1
                        (    1005.677 eV)
    15      20       --         0.398 au  H             0.71      1 P:x             2
                        (      10.843 eV)               0.71      1 P:x             3
    16      21      1.333      -0.347 au  O             1.00      1 P:x             4
                        (      -9.441 eV)
    17      22       --         0.813 au  O             1.00      2 P:x             4
                        (      22.121 eV)
    18      23       --         1.051 au  O             1.00      1 D:xz            4
                        (      28.612 eV)



                                       === B2 ===
 Nr. of SFOs :   21
 Cartesian basis functions that participate in this irrep (total number =    33) :
      6     9    12    18    24    33    36    39    42    45
     51    57    63    73    83    93    66    71    76    81
     86    91    95   100    96   101    99   104    98   103
    109   112   118

    SFO  (index         Fragment          Generating    Expansion in Fragment Orbitals
  indx  incl.CFs)   Occup   Orb.Energy   FragmentType  Coeff.   Orbital     on Fragment
 --------------------------------------------------------------------------------------
     1       6      2.000      -3.139 au  Pb            1.00      1 P:y             1
                        (     -85.422 eV)
     2       7      0.667      -0.133 au  Pb            1.00      2 P:y             1
                        (      -3.632 eV)
     3       8       --         0.045 au  Pb            1.00      3 P:y             1
                        (       1.212 eV)
     4       9       --         0.426 au  Pb            1.00      4 P:y             1
                        (      11.596 eV)
     5      10       --         3.056 au  Pb            1.00      5 P:y             1
                        (      83.146 eV)
     6      11      2.000      -0.786 au  Pb            1.00      1 D:yz            1
                        (     -21.381 eV)
     7      12       --         0.427 au  Pb            1.00      2 D:yz            1
                        (      11.626 eV)
     8      13       --         3.399 au  Pb            1.00      3 D:yz            1
                        (      92.482 eV)
     9      14      2.000      -4.933 au  Pb            1.00      1 F:z2y           1
                        (    -134.237 eV)
    10      15       --         4.295 au  Pb            1.00      2 F:z2y           1
                        (     116.866 eV)
    11      16       --        36.958 au  Pb            1.00      3 F:z2y           1
                        (    1005.677 eV)
    12      17      2.000      -4.933 au  Pb            1.00      1 F:y             1
                        (    -134.237 eV)
    13      18       --         4.295 au  Pb            1.00      2 F:y             1
                        (     116.866 eV)
    14      19       --        36.958 au  Pb            1.00      3 F:y             1
                        (    1005.677 eV)
    15      20      1.000      -0.245 au  H             0.71      1 S               2
                        (      -6.661 eV)              -0.71      1 S               3
    16      21       --         0.387 au  H             0.71      2 S               2
                        (      10.544 eV)              -0.71      2 S               3
    17      22       --         0.398 au  H             0.71      1 P:y             2
                        (      10.843 eV)               0.71      1 P:y             3
    18      23       --         0.398 au  H             0.71      1 P:z             2
                        (      10.843 eV)              -0.71      1 P:z             3
    19      24      1.333      -0.347 au  O             1.00      1 P:y             4
                        (      -9.441 eV)
    20      25       --         0.813 au  O             1.00      2 P:y             4
                        (      22.121 eV)
    21      26       --         1.051 au  O             1.00      1 D:yz            4
                        (      28.612 eV)



 ================================
 (Slater-type)  F U N C T I O N S  ***  (Basis and Fit)  ***
 ================================
  

 Atom Type    1  (Pb)
 ==============

 Valence Basis Sets:  26
 -----------------------
   1 S   60.000000
   2 S   37.900000
   3 S   22.100000
   4 S   13.150000
   2 P   38.650000
   3 P   20.600000
   4 P   12.450000
   3 D   23.450000
   4 D   11.600000
   1 S  196.000000
   5 S    7.650000
   5 S    5.200000
   6 S    3.700000
   6 S    2.400000
   6 S    1.580000
   5 P    6.600000
   5 P    4.200000
   6 P    2.700000
   6 P    1.600000
   6 P    0.960000
   5 D    6.000000
   5 D    3.650000
   5 D    2.200000
   4 F   17.560000
   4 F    9.950000
   4 F    5.750000

 Frozen Core Shells
 ------------------
    S:  4
    P:  3
    D:  2

 Atom Type    2  (H)
 ==============

 Valence Basis Sets:   3
 -----------------------
   1 S    0.760000
   1 S    1.280000
   2 P    1.250000

 Atom Type    3  (O)
 ==============

 Valence Basis Sets:   6
 -----------------------
   1 S    7.360000
   2 S    1.700000
   2 S    2.820000
   2 P    1.300000
   2 P    3.060000
   3 D    2.000000

 Frozen Core Shells
 ------------------
    S:  1


 BAS: List of all Elementary Cartesian Basis Functions
 =====================================================

 The numbering in the list below (to the right of the function characteristics) is referred
 to in print-outs of MO eigenvectors and Mulliken populations in the BAS representation
 (as contrasted to the SFO representation).

 Notes:
 1. The functions are characterized by a polynomial prefactor (powers of x,y,z and r) and
    an exponential decay factor alpha.
 2. Since the basis sets are specific for an atom TYPE, the individual functions occur on
    all atoms of that type.
 3. The word 'Core' in the left margin signals that it is a Core Function (CF) : not a
    degree of freedom in the valence set, but only used to ensure orthogonalization of
    the other valence basis functions on the frozen Core Orbitals.


 (power of) X  Y  Z  R     Alpha  on Atom
            ==========     =====     ==========

 Pb                                   1
                                  ---------------------------------------------------------------------------
    Core    0  0  0  0    60.000      1
    Core    0  0  0  1    37.900      2
    Core    0  0  0  2    22.100      3
    Core    0  0  0  3    13.150      4
    Core    1  0  0  0    38.650      5
    Core    0  1  0  0    38.650      6
    Core    0  0  1  0    38.650      7
    Core    1  0  0  1    20.600      8
    Core    0  1  0  1    20.600      9
    Core    0  0  1  1    20.600     10
    Core    1  0  0  2    12.450     11
    Core    0  1  0  2    12.450     12
    Core    0  0  1  2    12.450     13
    Core    2  0  0  0    23.450     14
    Core    1  1  0  0    23.450     15
    Core    1  0  1  0    23.450     16
    Core    0  2  0  0    23.450     17
    Core    0  1  1  0    23.450     18
    Core    0  0  2  0    23.450     19
    Core    2  0  0  1    11.600     20
    Core    1  1  0  1    11.600     21
    Core    1  0  1  1    11.600     22
    Core    0  2  0  1    11.600     23
    Core    0  1  1  1    11.600     24
    Core    0  0  2  1    11.600     25
            0  0  0  0   196.000     26
            0  0  0  4     7.650     27
            0  0  0  4     5.200     28
            0  0  0  5     3.700     29
            0  0  0  5     2.400     30
            0  0  0  5     1.580     31
            1  0  0  3     6.600     32
            0  1  0  3     6.600     33
            0  0  1  3     6.600     34
            1  0  0  3     4.200     35
            0  1  0  3     4.200     36
            0  0  1  3     4.200     37
            1  0  0  4     2.700     38
            0  1  0  4     2.700     39
            0  0  1  4     2.700     40
            1  0  0  4     1.600     41
            0  1  0  4     1.600     42
            0  0  1  4     1.600     43
            1  0  0  4     0.960     44
            0  1  0  4     0.960     45
            0  0  1  4     0.960     46
            2  0  0  2     6.000     47
            1  1  0  2     6.000     48
            1  0  1  2     6.000     49
            0  2  0  2     6.000     50
            0  1  1  2     6.000     51
            0  0  2  2     6.000     52
            2  0  0  2     3.650     53
            1  1  0  2     3.650     54
            1  0  1  2     3.650     55
            0  2  0  2     3.650     56
            0  1  1  2     3.650     57
            0  0  2  2     3.650     58
            2  0  0  2     2.200     59
            1  1  0  2     2.200     60
            1  0  1  2     2.200     61
            0  2  0  2     2.200     62
            0  1  1  2     2.200     63
            0  0  2  2     2.200     64
            3  0  0  0    17.560     65
            2  1  0  0    17.560     66
            2  0  1  0    17.560     67
            1  2  0  0    17.560     68
            1  1  1  0    17.560     69
            1  0  2  0    17.560     70
            0  3  0  0    17.560     71
            0  2  1  0    17.560     72
            0  1  2  0    17.560     73
            0  0  3  0    17.560     74
            3  0  0  0     9.950     75
            2  1  0  0     9.950     76
            2  0  1  0     9.950     77
            1  2  0  0     9.950     78
            1  1  1  0     9.950     79
            1  0  2  0     9.950     80
            0  3  0  0     9.950     81
            0  2  1  0     9.950     82
            0  1  2  0     9.950     83
            0  0  3  0     9.950     84
            3  0  0  0     5.750     85
            2  1  0  0     5.750     86
            2  0  1  0     5.750     87
            1  2  0  0     5.750     88
            1  1  1  0     5.750     89
            1  0  2  0     5.750     90
            0  3  0  0     5.750     91
            0  2  1  0     5.750     92
            0  1  2  0     5.750     93
            0  0  3  0     5.750     94

 H                                    2    3
                                  ---------------------------------------------------------------------------
            0  0  0  0     0.760     95  100
            0  0  0  0     1.280     96  101
            1  0  0  0     1.250     97  102
            0  1  0  0     1.250     98  103
            0  0  1  0     1.250     99  104

 O                                    4
                                  ---------------------------------------------------------------------------
    Core    0  0  0  0     7.360    105
            0  0  0  1     1.700    106
            0  0  0  1     2.820    107
            1  0  0  0     1.300    108
            0  1  0  0     1.300    109
            0  0  1  0     1.300    110
            1  0  0  0     3.060    111
            0  1  0  0     3.060    112
            0  0  1  0     3.060    113
            2  0  0  0     2.000    114
            1  1  0  0     2.000    115
            1  0  1  0     2.000    116
            0  2  0  0     2.000    117
            0  1  1  0     2.000    118
            0  0  2  0     2.000    119

 Total number of charge fitting functions (nprimf)       524
 Total number of Cartesian basis functions (naos)        119
 Total number of Cartesian core functions  (ncos)         26

1
 ***************************************************************************************************



                                              ***********************
                                              *  T E C H N I C A L  *
                                              ***********************
  



 =============================================================
 P A R A L L E L I Z A T I O N  and  V E C T O R I Z A T I O N
 =============================================================
  
 Nr of parallel processes:                               12
 Maximum vector length in NumInt loops:                 128



 =====================
 S C F   U P D A T E S
 =====================
  
 Max. nr. of cycles:                               300
 Convergence criterion:                              0.0000010000
   secondary criterion:                              0.0010000000

 Mix parameter (when DIIS does not apply):           0.2000000000
 Mixed ADIIS+SDIIS will be used                  
    Max number of expansion vectors:                10
    Pure ADIIS when Max([F,P]) is above              0.1000000000
    Pure SDIIS when Max([F,P]) is below              0.0010000000
 Automatic ElectronSmearing (in case of problematic SCF convergence) disabled



 =================
 P R E C I S I O N  ***  (General: NumInt, NeglectFunctionTails, ...)  ***
 =================
  

 NumInt:           Target precision:                 4.0000000000
 -------           Initial precision:                4.0000000000
                   Min. precision (optimization):    4.0000000000

 Neglect Functions:          Basis functions:        0.1000000000E-05
 ------------------          Fit functions:          0.1000000000E-05



 ===========================
 L I N E A R   S C A L I N G
 ===========================
  

 Cut-off radii density fit:                        0.1000000000E-07
 Overlap cut-off criterion AO matrix elements:     0.1000000000E-05
 Cut-offs for Coulomb potential and fitted density:0.1000000000E-07
 Cut-off criterion for Coulomb multipole terms:    0.1000000000E-07
 Progressive Convergence parameter:                 0.000000000    

 Number of elements of the density matrix on this node (used, total):      4465      7140



 ===========================================
 Numerical Integration : Fuzzy Cells (Becke)
 ===========================================
  
 Becke grid quality: NORMAL         
  
 Lebedev angular grid order:             min:  11 max:  23
 Nr. of radial points:                   min:  46 max: 123

 Total nr. of points:      40612
 Nr. of blocks:              320
 Block length:               127
 Nr. of dummy points:         28


 Test of Precision of the Numerical Integration Grid
 ===================================================

 Integral of the Total Core Density:                  47.99999749398986
 Relative Error:                                      -5.221E-08



 ========================
 Density Fitting (zlmFit)
 ========================
  
 ZlmFit Fit Quality: NORMAL         
  
 Max L-expansion:                        min:   5 max:   7
 Nr. of radial interpolation points:     min:  36 max: 114



 =====
 S C F  ***  ScaSCF  ***
 =====
  
 Initial density matrix is taken from previous geometry

 CYCLE    1
  ***********************************************************
  ** : orbital data taken from :/tmp/amstmp_ams_kid0.2119374615/GOStep2.rkf
  ***********************************************************
 SCF Error: norm([F,P])=      0.000011211686, max([F,P])=      0.000004899607
 orbitals (Q,E):
 ---------------
 A1 :1...19          ( 2.00    -5.7902)  ( 2.00    -5.4673)  ( 2.00    -5.4664)  ( 2.00    -3.6695)
                     ( 2.00    -1.3883)  ( 2.00    -1.3205)  ( 2.00    -1.3122)  ( 2.00    -0.9599)
                     ( 2.00    -0.8228)  ( 0.00    -0.5185)  ( 0.00    -0.3547)  ( 0.00    -0.2662)
                     ( 0.00    -0.2127)  ( 0.00    -0.0569)  ( 0.00    -0.0243)  ( 0.00     0.0621)
                     ( 0.00     0.0785)  ( 0.00     0.2307)  ( 0.00     0.5506)
 A2 :1...8           ( 2.00    -5.4673)  ( 2.00    -1.3205)  ( 0.00    -0.0397)  ( 0.00     0.1458)
                     ( 0.00     1.1576)  ( 0.00     2.8849)  ( 0.00     3.7611)  ( 0.00    36.4249)
 B1 :1...15          ( 2.00    -5.4682)  ( 2.00    -5.4665)  ( 2.00    -3.6740)  ( 2.00    -1.3155)
                     ( 2.00    -0.7332)  ( 0.00    -0.5701)  ( 0.00    -0.2244)  ( 0.00    -0.0370)
                     ( 0.00     0.0519)  ( 0.00     0.1178)  ( 0.00     0.7204)  ( 0.00     1.2719)
                     ( 0.00     2.5557)  ( 0.00     2.9638)  ( 0.00     3.7590)
 B2 :1...15          ( 2.00    -5.4682)  ( 2.00    -5.4668)  ( 2.00    -3.6751)  ( 2.00    -1.3169)
                     ( 2.00    -0.9331)  ( 0.00    -0.5772)  ( 0.00    -0.2905)  ( 0.00    -0.2144)
                     ( 0.00    -0.1038)  ( 0.00     0.0484)  ( 0.00     0.1576)  ( 0.00     0.4559)
                     ( 0.00     0.9320)  ( 0.00     1.0786)  ( 0.00     2.5504)

 CYCLE    2
  SDIIS (wt  0.000):  0.0893  0.9107
 A-DIIS (wt  1.000):  0.0000  1.0000
  DIIS coefficients:  0.0000  1.0000
 SCF Error: norm([F,P])=      0.000002281696, max([F,P])=      0.000000635437
 orbitals (Q,E):
 ---------------
 A1 :1...10          ( 2.00    -5.7902)  ( 2.00    -5.4673)  ( 2.00    -5.4664)  ( 2.00    -3.6695)
                     ( 2.00    -1.3883)  ( 2.00    -1.3205)  ( 2.00    -1.3122)  ( 2.00    -0.9599)
                     ( 2.00    -0.8228)  ( 0.00    -0.5185)
 A2 :1...3           ( 2.00    -5.4673)  ( 2.00    -1.3205)  ( 0.00    -0.0397)
 B1 :1...6           ( 2.00    -5.4682)  ( 2.00    -5.4665)  ( 2.00    -3.6740)  ( 2.00    -1.3155)
                     ( 2.00    -0.7332)  ( 0.00    -0.5701)
 B2 :1...6           ( 2.00    -5.4682)  ( 2.00    -5.4668)  ( 2.00    -3.6751)  ( 2.00    -1.3169)
                     ( 2.00    -0.9331)  ( 0.00    -0.5772)

 SCF CONVERGED

 CYCLE    3
1
 ***************************************************************************************************



                                                *******************
                                                *  R E S U L T S  *
                                                *******************
  
 *** Using FIT density in Focky
  SDIIS (wt  0.000):  0.0080  0.4722  0.5197
 A-DIIS (wt  1.000):  0.0000  0.2381  0.7619
  DIIS coefficients:  0.0000  0.2381  0.7619
 SCF Error: norm([F,P])=      0.000002029478, max([F,P])=      0.000000532346

 Scaled ZORA Orbital Energies, per Irrep and Spin:
 =================================================
                        Occup              E (au)              E (eV)       Diff (eV) with prev. cycle
                        -----      --------------------        ------       --------------------------
 A1
               1        2.000     -0.57901983085371E+01      -157.559               7.76E-06
               2        2.000     -0.54673421479528E+01      -148.774               1.72E-05
               3        2.000     -0.54663955437108E+01      -148.748               1.71E-05
               4        2.000     -0.36695389639819E+01       -99.853               6.27E-06
               5        2.000     -0.13883298834298E+01       -37.778               2.82E-06
               6        2.000     -0.13205476285467E+01       -35.934               4.19E-06
               7        2.000     -0.13122157251009E+01       -35.707               4.05E-06
               8        2.000     -0.95992561716077E+00       -26.121               1.58E-06
               9        2.000     -0.82282497573347E+00       -22.390               2.43E-06
              10        0.000     -0.51848676117363E+00       -14.109
              11        0.000     -0.35468623386829E+00        -9.652
              12        0.000     -0.26620708300753E+00        -7.244
              13        0.000     -0.21268544548974E+00        -5.787
              14        0.000     -0.56854452461245E-01        -1.547
              15        0.000     -0.24332120780212E-01        -0.662
              16        0.000      0.62080948443528E-01         1.689
              17        0.000      0.78495324913302E-01         2.136
              18        0.000      0.23068763367196E+00         6.277
              19        0.000      0.55062055184240E+00        14.983
 A2
               1        2.000     -0.54673009152386E+01      -148.773               1.72E-05
               2        2.000     -0.13204995860117E+01       -35.933               4.19E-06
               3        0.000     -0.39654038466068E-01        -1.079
               4        0.000      0.14584824432516E+00         3.969
               5        0.000      0.11576464659652E+01        31.501
               6        0.000      0.28848805323144E+01        78.502
               7        0.000      0.37611134717788E+01       102.345
               8        0.000      0.36424920765132E+02       991.173
 B1
               1        2.000     -0.54682173030784E+01      -148.798               1.73E-05
               2        2.000     -0.54665015123938E+01      -148.751               1.71E-05
               3        2.000     -0.36739895550547E+01       -99.974               6.38E-06
               4        2.000     -0.13154534958523E+01       -35.795               4.11E-06
               5        2.000     -0.73319397277839E+00       -19.951               2.81E-06
               6        0.000     -0.57013398002778E+00       -15.514
               7        0.000     -0.22443817488467E+00        -6.107
               8        0.000     -0.37002605808735E-01        -1.007
               9        0.000      0.51944087150720E-01         1.413
              10        0.000      0.11775411313826E+00         3.204
              11        0.000      0.72041185895834E+00        19.603
              12        0.000      0.12719230110732E+01        34.611
              13        0.000      0.25556539054048E+01        69.543
              14        0.000      0.29637956683737E+01        80.649
              15        0.000      0.37590190932512E+01       102.288
 B2
               1        2.000     -0.54682186937905E+01      -148.798               1.73E-05
               2        2.000     -0.54668168821793E+01      -148.760               1.72E-05
               3        2.000     -0.36751287155848E+01      -100.005               6.46E-06
               4        2.000     -0.13168640614389E+01       -35.834               4.15E-06
               5        2.000     -0.93308832418465E+00       -25.391               2.34E-06
               6        0.000     -0.57717570909053E+00       -15.706
               7        0.000     -0.29050416295609E+00        -7.905
               8        0.000     -0.21441321130601E+00        -5.834
               9        0.000     -0.10376597139312E+00        -2.824
              10        0.000      0.48425138833524E-01         1.318
              11        0.000      0.15761432005812E+00         4.289
              12        0.000      0.45587264580790E+00        12.405
              13        0.000      0.93198608516495E+00        25.361
              14        0.000      0.10785864862506E+01        29.350
              15        0.000      0.25503629225981E+01        69.399
  
 HOMO :        5 B1               -0.73319397277839E+00
 LUMO :        6 B2               -0.57717570909053E+00
  


 Orbital Energies, all Irreps
 ========================================

 Irrep        no.  (spin)   Occup              E (au)                E (eV)
 ---------------------------------------------------------------------------
 A1            1             2.00       -0.57901983085371E+01      -157.5593
 B2            1             2.00       -0.54682186937905E+01      -148.7978
 B1            1             2.00       -0.54682173030784E+01      -148.7978
 A1            2             2.00       -0.54673421479528E+01      -148.7739
 A2            1             2.00       -0.54673009152386E+01      -148.7728
 B2            2             2.00       -0.54668168821793E+01      -148.7597
 B1            2             2.00       -0.54665015123938E+01      -148.7511
 A1            3             2.00       -0.54663955437108E+01      -148.7482
 B2            3             2.00       -0.36751287155848E+01      -100.0053
 B1            3             2.00       -0.36739895550547E+01       -99.9743
 A1            4             2.00       -0.36695389639819E+01       -99.8532
 A1            5             2.00       -0.13883298834298E+01       -37.7784
 A1            6             2.00       -0.13205476285467E+01       -35.9339
 A2            2             2.00       -0.13204995860117E+01       -35.9326
 B2            4             2.00       -0.13168640614389E+01       -35.8337
 B1            4             2.00       -0.13154534958523E+01       -35.7953
 A1            7             2.00       -0.13122157251009E+01       -35.7072
 A1            8             2.00       -0.95992561716077E+00       -26.1209
 B2            5             2.00       -0.93308832418465E+00       -25.3906
 A1            9             2.00       -0.82282497573347E+00       -22.3902
 B1            5             2.00       -0.73319397277839E+00       -19.9512
 B2            6             0.00       -0.57717570909053E+00       -15.7058
 B1            6             0.00       -0.57013398002778E+00       -15.5141
 A1           10             0.00       -0.51848676117363E+00       -14.1087
 A1           11             0.00       -0.35468623386829E+00        -9.6515
 B2            7             0.00       -0.29050416295609E+00        -7.9050
 A1           12             0.00       -0.26620708300753E+00        -7.2439
 B1            7             0.00       -0.22443817488467E+00        -6.1073
 B2            8             0.00       -0.21441321130601E+00        -5.8345
 A1           13             0.00       -0.21268544548974E+00        -5.7875
 B2            9             0.00       -0.10376597139312E+00        -2.8236
 A1           14             0.00       -0.56854452461245E-01        -1.5471
 A2            3             0.00       -0.39654038466068E-01        -1.0790
 B1            8             0.00       -0.37002605808735E-01        -1.0069
 A1           15             0.00       -0.24332120780212E-01        -0.6621
 B2           10             0.00        0.48425138833524E-01         1.3177
 B1            9             0.00        0.51944087150720E-01         1.4135
 A1           16             0.00        0.62080948443528E-01         1.6893
 A1           17             0.00        0.78495324913302E-01         2.1360
 B1           10             0.00        0.11775411313826E+00         3.2043
 A2            4             0.00        0.14584824432516E+00         3.9687
 B2           11             0.00        0.15761432005812E+00         4.2889
 A1           18             0.00        0.23068763367196E+00         6.2773
 B2           12             0.00        0.45587264580790E+00        12.4049
 A1           19             0.00        0.55062055184240E+00        14.9831
 A1           20             0.00        0.68479004593367E+00        18.6341
 B1           11             0.00        0.72041185895834E+00        19.6034
 A1           21             0.00        0.92595995101421E+00        25.1967
 B2           13             0.00        0.93198608516495E+00        25.3606
 B2           14             0.00        0.10785864862506E+01        29.3498
 A2            5             0.00        0.11576464659652E+01        31.5012
 B1           12             0.00        0.12719230110732E+01        34.6108
 A1           22             0.00        0.13327869227763E+01        36.2670
 A1           23             0.00        0.14991291287994E+01        40.7934
 B2           15             0.00        0.25503629225981E+01        69.3989
 B1           13             0.00        0.25556539054048E+01        69.5429
 A1           24             0.00        0.27192107289898E+01        73.9935
 B2           16             0.00        0.28166088064413E+01        76.6438
 A1           25             0.00        0.28503029228932E+01        77.5607
 A2            6             0.00        0.28848805323144E+01        78.5016
 A1           26             0.00        0.29043980024714E+01        79.0327
 B1           14             0.00        0.29637956683737E+01        80.6490
 B2           17             0.00        0.29750371640075E+01        80.9549
 A1           27             0.00        0.31631765899317E+01        86.0744
 B2           18             0.00        0.37590157865497E+01       102.2880
 B1           15             0.00        0.37590190932512E+01       102.2881
 A2            7             0.00        0.37611134717788E+01       102.3451
 A1           28             0.00        0.37612798862993E+01       102.3496
 B2           19             0.00        0.37636667395146E+01       102.4146
 B1           16             0.00        0.37640723574532E+01       102.4256
 A1           29             0.00        0.37779260628426E+01       102.8026
 A1           30             0.00        0.52835637449047E+01       143.7731
 B2           20             0.00        0.36424056236192E+02       991.1490
 B1           17             0.00        0.36424058208363E+02       991.1491
 A2            8             0.00        0.36424920765132E+02       991.1725
 A1           31             0.00        0.36424958374650E+02       991.1735
 B2           21             0.00        0.36426239253508E+02       991.2084
 B1           18             0.00        0.36426418745006E+02       991.2133
 A1           32             0.00        0.36432553554148E+02       991.3802
 A1           33             0.00        0.36926659507002E+04    100482.5531


 Scaled ZORA Orbital Energies of the Core Orbitals:
 ==================================================

 (Note that the atoms are grouped by atomtype, see the labels, and may hence NOT be in input order)

 AtomType  Orbital  Atom                   E (au)                        E (eV)
 --------  -------  ----           --------------------        ----------------
 Pb          1S        1          -0.32300825198507E+04              -87895.017
             2S        1          -0.57786256990927E+03              -15724.441
             3S        1          -0.13918310768757E+03               -3787.365
             4S        1          -0.31952602039541E+02                -869.475
             2P        1          -0.49541427742571E+03              -13480.908
             3P        1          -0.11553689266136E+03               -3143.919
             4P        1          -0.24222600349908E+02                -659.130
             3D        1          -0.91668940602378E+02               -2494.439
             4D        1          -0.15330698835481E+02                -417.170
 O           1S        4          -0.19301183108424E+02                -525.212


 Fit test: (difference of exact and fit density, squared integrated, result summed over spins)
         Sum-of-Fragments:                             0.00000000008042
         Orthogonalized Fragments:                     0.00002869790901
         SCF:                                          0.00009109613297



 ==========================
 Electron Density at Nuclei
 ==========================
  
 The electron density is calculated at points on a small sphere around the center of a nucleus.
 The printed electron density is the average electron density on these points.
 The radius of the sphere is the printed approximate finite nuclear radius.
 Note: ZORA-4 density is used, which includes small component density

         Atom        Nuclear Radius (Angstrom)             Electron Density (a.u.)
         ----        -------------------------             -----------------------
     1)   Pb                0.0000713054                          2606419.40791
     2)   H                 0.0000181514                                0.39982
     3)   H                 0.0000181514                                0.39982
     4)   O                 0.0000345546                              317.65280



 =======================================
 M U L L I K E N   P O P U L A T I O N S
 =======================================
  
 The survey below gives for each atom:
 a) the total charge (Z minus electrons)
 b) the net spin polarization (nr of electrons spin-A minus spin-B)
 c) for each spin the atomic electron valence density (integrated) per L-value.

 Atom              Charge    Spin density          S         P         D         F
 ----              ------    ------------       ------    ------    ------    ------
 1 Pb              1.7829                       3.9874    6.2116   10.0180   14.0000
 2 H               0.4525                       0.4994    0.0481    0.0000    0.0000
 3 H               0.4525                       0.4994    0.0481    0.0000    0.0000
 4 O              -0.6878                       1.8473    4.8237    0.0167    0.0000

 Populations of individual BAS functions
 ----------------------------------------
 1 Pb          -0.0030 -0.0024  0.0031  0.0614 -0.0017 -0.0017 -0.0017 -0.0032 -0.0031 -0.0032
                0.0732  0.0731  0.0738  0.0046  0.0069  0.0069  0.0046  0.0069  0.0046  0.0371
                0.0556  0.0558  0.0371  0.0557  0.0375  0.0004  1.3249  0.6849  0.9697  0.9188
                0.0297  1.3301  1.3285  1.3368  0.6076  0.6079  0.6054  0.0254 -0.0015  0.1386
                0.0160 -0.0017  0.0013 -0.0041  0.0009  0.0150  0.4857  0.7274  0.7298  0.4855
                0.7286  0.4892  0.7240  1.0893  1.0881  0.7228  1.0879  0.7332  0.0863  0.1207
                0.1261  0.0907  0.1218  0.0675  0.1599  0.3197  0.3197  0.3197  0.3996  0.3197
                0.1599  0.3197  0.3197  0.1599  0.4922  0.9844  0.9845  0.9844  1.2306  0.9846
                0.4922  0.9844  0.9846  0.4925  0.1482  0.2959  0.2961  0.2961  0.3697  0.2952
                0.1484  0.2963  0.2952  0.1469
 2 H           -0.2197  0.7192  0.0278  0.0035  0.0167
 3 H           -0.2197  0.7192  0.0278  0.0035  0.0167
 4 O            0.0004  0.9540  0.8929  1.0034  0.6316  0.8188  0.8905  0.7313  0.7481 -0.0301
                0.0000  0.0004  0.0207  0.0089  0.0168

 Gross Charges per Atom (Z minus electrons)
 ==========================================
             1.7829    0.4525    0.4525   -0.6878
 Net Total:  2.00000000


 Atom-Atom Population Matrix (off-diagonal elements not doubled)
 ===============================================================

     1 :    34.1559
     2 :     0.0017    0.2850
     3 :     0.0017   -0.0322    0.2850
     4 :     0.0577    0.2930    0.2930    6.0441



 =================================================
 H I R S H F E L D   C H A R G E   A N A L Y S I S
 =================================================
  
 For each fragment: the (numerical) integral of rho(scf) * rho(fragment)/rho(sum-of-fragments)
 (nuclear charges are included, electrons are counted negative)

 The fragments and their ordering are defined in the early G E O M E T R Y output section.
 If you use single-atom fragments, this usually implies that all atoms of the same
 chemical type are grouped together. This may not be the order in which you listed them
 in the input file!

    1  Pb                        1.6207
    2  H                         0.2622
    3  H                         0.2622
    4  O                        -0.1451

 Sum of these charges (accuracy NumInt/Tails) =           2.00001825



 =============================
 V O R O N O I   C H A R G E S
 =============================
  
 For each atom: the (numerical) integral of the total electronic charge density in its Voronoi cell,
 i.e. the region of space that is closer to that atom than to any other atom.
 (cf. Wigner-Seitz cells in crystals)

 Within the Voronoi cell the subintegrals over the atomic sphere and the remaining part are evaluated
 separately to give the numbers of electrons (negative charge) in these regions.
 The net total charge in the cell (including the nuclear charge) is also given.

 Values are provided for
    a) the Initial (sum-of-fragments) density
    b) the Orthogonalized-Fragments density
    c) the SCF density
    d) the Voronoi Deformation Density (VDD): the difference SCF-Initial for the complete atomic cell


  Atom                Initial                    OrthFrag                   SCF
             Sphere RestCell NetTotal   Sphere RestCell NetTotal   Sphere RestCell NetTotal      VDD
 -----       ------------------------   ------------------------   ------------------------    -----
    1 Pb    -72.853   -8.759    0.388  -72.866   -8.827    0.307  -72.878   -7.240    1.882    1.494
    2 H      -0.079   -1.449   -0.527   -0.086   -1.322   -0.408   -0.089   -1.109   -0.197    0.330
    3 H      -0.079   -1.449   -0.527   -0.086   -1.322   -0.408   -0.089   -1.109   -0.197    0.330
    4 O      -2.819   -4.514    0.666   -2.998   -4.493    0.509   -2.841   -4.645    0.513   -0.153
 ---------------------------------------------------------------------------------------------------
 Total NetCharge:               0.000                      0.000                      2.000    2.000
 (accuracy NumInt/Tails)

 Remark: the 'NetTotal' Voronoi charges often do not match the Mulliken and/or Hirshfeld charges very
 well. This is caused by the fact that chemically different atoms are not treated in accordance with
 their relative sizes. (Voronoi cells are defined by boundary planes halfway between the atoms.)
 However, the CHANGES in charge, comparing 'Initial' to 'SCF' for instance, do give a fair indication
 of the flow of charge caused by the relaxation from sum-of-fragments to self-consistency.

 Warning: the absolute accuracy of the VDD charges obtained using the Fuzzy Cells (Becke) integration
 scheme is much poorer than the one obtained with an 'equivalent' Voronoi integration grid. 



 =================================================================
 M U L T I P O L E   D E R I V E D   C H A R G E   A N A L Y S I S
 =================================================================

 This charge analysis uses the atomic multipoles (obtained from the fitted density) up to some level X,
 and reconstructs these multipoles exactly (up to level X) by distributing charges over all atoms.
 This is achieved by using Lagrange multipliers and a weight function to keep the multipoles local.

 Dummy atoms can be included (by setting INCDUM in MDC-block to 1) to obtain a fractional charge.
 This is generally useful and necessary only for small symmetrical molecules, when there are not
 enough degrees of freedom to reconstruct the multipoles.

 Since the atomic multipoles are reconstructed up to level X,
 the molecular multipoles are represented also up to level X.
 The recommended level is to reconstruct up to quadrupole : -> MDC-q charges.

 See: M. Swart, P.Th. van Duijnen, J.G. Snijders, J.Comput.Chem., (2001), p. 79-88.

 ------------------------------------------------------------- 
 Atomic electronic multipole moments from SCF equations (a.u.)
 ------------------------------------------------------------- 

   atom        charge        dip-x     dip-y     dip-z      quad-xx   quad-xy   quad-xz   quad-yy   quad-yz   quad-zz
 --------------------------------------------------------------------------------------------------------------------
    1 Pb     1.815736    -0.000000 -0.000000 -0.290852    -0.098062 -0.000000 -0.000000  0.121733  0.000000 -0.023672
    2 H      0.206106     0.000000 -0.102870 -0.094710    -0.138755  0.000000  0.000000  0.122575  0.061770  0.016180
    3 H      0.206106     0.000000  0.102870 -0.094710    -0.138755 -0.000000  0.000000  0.122575 -0.061770  0.016180
    4 O     -0.227948    -0.000000 -0.000000 -0.588644    -0.930805 -0.000000 -0.000000  0.790463 -0.000000  0.140342

 --------------------------------------- 
 Multipole derived atomic charges (a.u.)
 --------------------------------------- 

 The MDC-m charges are just the Monopole terms in the multipole expansion, while for the MDC-d charges
 also the Dipoles are reconstructed. The usually preferred charges are the MDC-q charges.
 These reconstruct the Monopoles, Dipoles and Quadrupoles (both atomic AND molecular).

        Atom    Level:     MDC-m        MDC-d        MDC-q
 ---------------------------------------------------------
     1     Pb           1.815736     1.735826     1.828233
     2     H            0.206106     0.520228     0.474888
     3     H            0.206106     0.520228     0.474888
     4     O           -0.227948    -0.776281    -0.778010

 ------------------------------------------------ 
 Average absolute deviations in atomic multipoles
 ------------------------------------------------ 

 Stated here are the average differences between the atomic multipoles
 and the reconstructed atomic multipoles (from the distributed charges).
 If these values are not zero, this means there are not enough degrees of freedom,
 to be able to reconstruct the atomic multipoles. (This usually happens only
 for small and/or highly symmetric molecules). If this is the case, one could add
 dummy atoms as extra point charges (and setting INCDUM in MDC-block to 1).

 Level:                                 MDC-d        MDC-q
 ---------------------------------------------------------
 Charge   (a.u.)                       0.0000       0.0000
 Dipole   (Debye)                      0.0000       0.1683
 Quad.    (a.u.)                       0.2199       0.0181

 --------------------------------------- 
 Represented molecular multipole moments
 --------------------------------------- 

 Given here are the Molecular multipole moments from the atomic charges, and from the Fit Density.
 Note that the atomic charges represent the latter, NOT the ones from the Exact density.

            Q (a.u.)             Dipole moment (Debye)                                          Quadrupole moment (a.u.)
                                 x         y         z              xx        xy        xz        yy        yz        zz
------------------------------------------------------------------------------------------------------------------------
MDC-m         2.0000       -0.0000    0.0000   16.5630        -14.8394   -0.0000    0.0000  -13.4298   -0.0000   28.2692
MDC-d         2.0000        0.0000   -0.0000   13.8461        -15.7521   -0.0000   -0.0000  -12.1943    0.0000   27.9464
MDC-q         2.0000        0.0000   -0.0000   15.1520        -16.2240   -0.0000   -0.0000  -12.9763    0.0000   29.2004
 
Fit.Dens.     2.0000       -0.0000   -0.0000   13.8461        -15.9594   -0.0000   -0.0000  -11.1543   -0.0000   27.1137



 =============
 Dipole Moment  ***  (Debye)  ***
 =============
  
 Vector   :         0.00000000     -0.00000000     13.84779329
 Magnitude:        13.84779329

 This molecular dipole moment is calculated with analytic integration
 ************************************************************************************
 Since the molecule is NOT NEUTRAL, the dipole moment depends on the choice of origin
 ************************************************************************************



 =========================================
 Quadrupole Moment (Buckingham convention)  ***  (a.u.)  ***
 =========================================
  
      quad-xx        quad-xy        quad-xz        quad-yy        quad-yz        quad-zz
    -15.96255033    -0.00000000     0.00000000   -11.15450088     0.00000000    27.11705121

 This molecular quadrupole moment is calculated with analytic integration
1



 ===========================
 B O N D I N G   E N E R G Y  ***  (decomposition)  ***
 ===========================
  
*** IMPORTANT NOTE ***

The bond energy is computed as an energy difference between molecule and
fragments. In particular when the fragments are single atoms, they are usually
computed as SPHERICALLY SYMMETRIC and SPIN-RESTRICTED. Obviously, this usually
does NOT represent the true atomic groundstate.

To obtain the 'real' bond energy, (atomic) correction terms must be applied
for the true (multiplet) fragment ground state. See ref: E.J.Baerends,
V.Branchadell, M.Sodupe, Chem.Phys.Lett.265 (1997) 481

General theoretical background on the bond energy decomposition scheme used
here (Morokuma-Ziegler) can be found in the review paper:
F.M. Bickelhaupt and E.J. Baerends,
"Kohn-Sham Density Functional Theory: Predicting and Understanding Chemistry"
In: Rev. Comput. Chem.; Lipkowitz, K. B. and Boyd, D. B., Eds.;
Wiley-VCH: New York, 2000, Vol. 15, 1-86.

Symbols used in the Bickelhaupt-Baerends (BB) paper are given below to make
the direct connection to that paper, where detailed explanations can be found
on the meaning of the various terms.


                                                   hartree              eV         kcal/mol           kJ/mol
                                      --------------------     -----------       ----------      -----------

Pauli Repulsion
  Kinetic (Delta T^0):                   5.375348422531775        146.2707          3373.08         14112.98
  Delta V^Pauli Coulomb:                -3.355905384157927        -91.3188         -2105.86         -8810.93
  Delta V^Pauli LDA-XC:                 -0.653214919856161        -17.7749          -409.90         -1715.02
  Delta V^Pauli GGA-Exchange:            0.038647719777568          1.0517            24.25           101.47
  Delta V^Pauli GGA-Correlation:        -0.013283987271138         -0.3615            -8.34           -34.88
                                      --------------------     -----------       ----------      -----------
  Total Pauli Repulsion:                 1.391591851024117         37.8671           873.24          3653.62
 (Total Pauli Repulsion =
  Delta E^Pauli in BB paper)

Steric Interaction
  Pauli Repulsion (Delta E^Pauli):       1.391591851024117         37.8671           873.24          3653.62
  Electrostatic Interaction:            -0.303686560651788         -8.2637          -190.57          -797.33
 (Electrostatic Interaction =
  Delta V_elstat in the BB paper)
                                      --------------------     -----------       ----------      -----------
  Total Steric Interaction:              1.087905290372329         29.6034           682.67          2856.29
 (Total Steric Interaction =
  Delta E^0 in the BB paper)

Orbital Interactions
  A1:                                   -0.463868794315295        -12.6225          -291.08         -1217.89
  A2:                                    0.000059580198641          0.0016             0.04             0.16
  B1:                                   -0.145606510966257         -3.9622           -91.37          -382.29
  B2:                                   -0.335237557158723         -9.1223          -210.36          -880.17
                                      --------------------     -----------       ----------      -----------
  Total Orbital Interactions:           -0.944653282241991        -25.7053          -592.78         -2480.19

Alternative Decomposition Orb.Int.
  Kinetic:                              -5.737374449532767       -156.1219         -3600.26        -15063.47
  Coulomb:                               4.180831771232565        113.7662          2623.51         10976.77
  XC:                                    0.611889396058211         16.6504           383.97          1606.52
                                      --------------------     -----------       ----------      -----------
  Total Orbital Interactions:           -0.944653282241990        -25.7053          -592.78         -2480.19

  Residu (E=Steric+OrbInt+Res):         -0.000033740043086         -0.0009            -0.02            -0.09

Total Bonding Energy:                    0.143218268087252          3.8972            89.87           376.02


Summary of Bonding Energy (energy terms are taken from the energy decomposition above)
======================================================================================

  Electrostatic Energy:                 -0.303686560651788         -8.2637          -190.57          -797.33
  Kinetic Energy:                       -0.362026027000993         -9.8512          -227.17          -950.50
  Coulomb (Steric+OrbInt) Energy:        0.824892647031553         22.4465           517.63          2165.76
  XC Energy:                            -0.015961791291519         -0.4343           -10.02           -41.91
                                      --------------------     -----------       ----------      -----------
  Total Bonding Energy:                  0.143218268087253          3.8972            89.87           376.02


Correction terms (incorporated in energies above; only for test purposes):

1. Indication of fit-quality: 1st-order fit-correction used in the energy (hartree):  -0.0003336452
2. Electrostatic (Fit correction):   0.0000000000

Scaled ZORA energy correction, not included in bonding energy (hartree):            0.0000168960
 NOTE: This scaled ZORA energy correction should only be used to compare two calculations
 in which the only difference in the calculation is the electron configuration.
 Then the difference in energy of this term should be added to the difference in energy of
 the two electron configurations.
 This term should not be used otherwise.
 In practice it is useful only for core excitation energy calculations.



 =========================================
 F R A G M E N T   E N E R G Y   T E R M S  ***  (summed over all fragments)  ***
 =========================================
  

The energy terms below are (parts of) the Total Energy of the fragments from which the molecule
 is built.

Exchange and Correlation
  Exchange LDA:                       -377.633879462245318     -10275.9407       -236968.86       -991477.61
  Exchange GGA:                        -17.425101814079841       -474.1611        -10934.42        -45749.60
  Correlation LDA:                      -9.264782097559541       -252.1075         -5813.74        -24324.68
  Correlation GGA:                       3.212665304610338         87.4211          2015.98          8434.85
                                      --------------------     -----------       ----------      -----------
  Total XC:                           -401.111098069274362     -10914.7883       -251701.04      -1053117.04
1



 =======================================================
 S F O   P O P U L A T I O N S ,   M O   A N A L Y S I S
 =======================================================
  
 A Mulliken population analysis is performed on (input-)selected MOs. All populations refer to SFOs.
 BAS populations may have been printed directly after the SCF part.


                                       === A1 ===


 SFO contributions (%) per orbital
 (multiplication by the orbital occupation yields the SFO Gross Populations)

 Orb.:        1      2      3      4      5      6      7      8      9     10     11     12     13
 occup:     2.00   2.00   2.00   2.00   2.00   2.00   2.00   2.00   2.00   0.00   0.00   0.00   0.00
 CF+SFO     ----   ----   ----   ----   ----   ----   ----   ----   ----   ----   ----   ----   ----
 ------
     15:  100.00   0.00   0.00   0.00  -0.00   0.00  -0.00  -0.00  -0.00  -0.00  -0.00  -0.00  -0.00
     16:    0.00   0.00  -0.00  -0.00   0.52   0.00   0.07  79.10  18.78   0.28  -0.44   1.68   0.04
     17:    0.00   0.00   0.00   0.00   0.09  -0.00   0.01   0.75   0.06  -0.01   8.66  85.93   0.47
     21:    0.00   0.00   0.00  99.98   0.00   0.00   0.00   0.00  -0.00   0.00  -0.00   0.00  -0.00
     22:    0.00  -0.00  -0.00   0.00   0.65   0.00   0.05   0.20   6.08  86.17  -0.02  -0.75   8.33
     23:   -0.00  -0.00  -0.00   0.00   0.13   0.00   0.01   0.17   1.46   1.53   2.90   4.23  83.46
     24:    0.00  -0.00   0.00   0.00  -0.25  -0.00  -0.01   0.01  -0.17   1.64   0.01   0.01   5.59
     26:    0.00   0.00   0.00   0.00   4.60   0.46  94.32   0.05   0.39   0.02   0.01  -0.00  -0.00
     27:    0.00   0.00   0.00   0.00  -0.02   0.00   0.06   0.01   0.69   1.12   0.51   2.14   1.83
     29:    0.00   0.00   0.00   0.00   0.00  99.50   0.49   0.00   0.00   0.00  -0.00  -0.00  -0.00
     32:    0.00   4.58  95.42   0.00   0.00   0.00   0.00   0.00   0.00   0.00  -0.00  -0.00  -0.00
     35:    0.00  95.42   4.58   0.00   0.00   0.00   0.00   0.00   0.00   0.00   0.00   0.00   0.00
     38:    0.00   0.00   0.00   0.00   9.04   0.00   0.59   0.76   5.94   5.42  71.57   6.05   3.50
     39:    0.00   0.00   0.00   0.00  -0.87  -0.00   0.07   1.67   1.93  -0.54  11.35  -0.78  -5.22
     40:   -0.00  -0.00   0.00   0.00   0.92   0.00   0.07   0.17   0.55   0.01   3.72  -0.00   0.20
     41:    0.00  -0.00   0.00  -0.00   0.43   0.00   0.02  -0.21  -0.35   0.15   0.10   1.60   0.91
     42:   -0.00  -0.00  -0.00   0.00  83.18   0.02   3.33   0.20   5.87   2.93   1.40   0.09   0.75
     43:   -0.00   0.00   0.00   0.00   0.11  -0.00  -0.00   0.16  -0.50  -1.95  -5.05   0.03  -0.40
     44:   -0.00   0.00   0.00   0.01   1.23   0.00   0.91  17.05  59.18   3.41   6.51   0.61   0.10
     45:   -0.00   0.00   0.00   0.01  -0.00   0.00  -0.01  -0.03  -0.01  -0.51  -1.76  -1.76  -0.47


 Summation over all MOs, multiplied by occupation: Total SFO Gross Populations in this Irrep
 ===========================================================================================

    -0.00   -0.00    0.00    0.00    0.00    0.00   -0.00   -0.00   -0.00   -0.00   -0.00   -0.00
    -0.00    0.00    2.00    1.97    0.02   -0.00    0.00    0.00    2.00    0.14    0.04   -0.01
    -0.00    2.00    0.01   -0.00    2.00    0.00    0.00    2.00    0.00    0.00    2.00    0.00
     0.00    0.33    0.06    0.03   -0.00    1.85   -0.00    1.57   -0.00    0.00    0.00


                                       === A2 ===


 SFO contributions (%) per orbital
 (multiplication by the orbital occupation yields the SFO Gross Populations)

 Orb.:        1      2      3      4      5      6
 occup:     2.00   2.00   0.00   0.00   0.00   0.00
 CF+SFO     ----   ----   ----   ----   ----   ----
 ------
      3:    0.00  99.99   0.01   0.00   0.00   0.00
      4:    0.00   0.01  97.39   2.50   0.08   0.02
      5:    0.00   0.00   0.01   0.02   0.04  99.93
      6:  100.00   0.00   0.00   0.00   0.00   0.00
      9:   -0.00  -0.00   1.79  83.26  14.94  -0.00
     10:    0.00   0.00   0.80  14.21  84.94   0.05


 Summation over all MOs, multiplied by occupation: Total SFO Gross Populations in this Irrep
 ===========================================================================================

     0.00    0.00    2.00    0.00    0.00    2.00    0.00    0.00   -0.00    0.00


                                       === B1 ===


 SFO contributions (%) per orbital
 (multiplication by the orbital occupation yields the SFO Gross Populations)

 Orb.:        1      2      3      4      5      6      7      8      9
 occup:     2.00   2.00   2.00   2.00   2.00   0.00   0.00   0.00   0.00
 CF+SFO     ----   ----   ----   ----   ----   ----   ----   ----   ----
 ------
      6:    0.00   0.00 100.00   0.00  -0.00   0.00  -0.00  -0.00   0.00
      7:    0.00  -0.00   0.00   0.00   2.33  91.54   5.35   0.00   0.64
      8:    0.00   0.00   0.00   0.00  -0.05   4.44  90.60   0.11   3.31
      9:    0.00   0.00   0.00  -0.00  -0.12   1.51   3.15   0.06  94.19
     11:    0.00   0.00   0.00  99.94   0.03  -0.00   0.00   0.00   0.00
     12:    0.00   0.00   0.00   0.01   0.37   0.01   0.07  92.62   0.03
     14:    0.27  99.73   0.00   0.00   0.00  -0.00   0.00  -0.00   0.00
     17:   99.73   0.27   0.00   0.00   0.00   0.00   0.00   0.00   0.00
     20:    0.00  -0.00   0.00  -0.00   2.78   0.09   0.93   0.01   1.57
     21:    0.00   0.00  -0.00   0.03  94.54   2.27  -0.07   0.32   0.01
     22:    0.00   0.00  -0.00   0.00   0.12  -0.06  -0.07   3.23  -0.00
     23:    0.00   0.00   0.00   0.02   0.00   0.21   0.04   3.64   0.20


 Summation over all MOs, multiplied by occupation: Total SFO Gross Populations in this Irrep
 ===========================================================================================

     0.00    0.00   -0.00   -0.00   -0.00    2.00    0.05   -0.00   -0.00    0.00    2.00    0.01
    -0.00    2.00    0.00    0.00    2.00    0.00    0.00    0.06    1.89    0.00    0.00


                                       === B2 ===


 SFO contributions (%) per orbital
 (multiplication by the orbital occupation yields the SFO Gross Populations)

[...]
 from one for each symmetry representation, as in the SFO definition list earlier.

       E(eV)  Occ       MO           %     SFO (first member)   E(eV)  Occ   Fragment
 -------------------------------------------------------------------------------------

     -37.778  2.00     5 A1        83.18%     1 S             -24.370  2.00     4 O
                                    9.04%     1 S              -6.661  1.00     2 H
                                    4.60%     1 D:z2          -21.381  2.00     1 Pb
                                    1.23%     1 P:z            -9.441  1.33     4 O
     -35.934  2.00     6 A1        99.50%     1 D:x2-y2       -21.381  2.00     1 Pb
                                    0.46%     1 D:z2          -21.381  2.00     1 Pb
     -35.933  2.00     2 A2        99.99%     1 D:xy          -21.381  2.00     1 Pb
                                    0.01%     2 D:xy           11.626  0.00     1 Pb
     -35.834  2.00     4 B2        99.92%     1 D:yz          -21.381  2.00     1 Pb
                                    0.05%     1 P:y            -9.441  1.33     4 O
     -35.795  2.00     4 B1        99.94%     1 D:xz          -21.381  2.00     1 Pb
                                    0.03%     1 P:x            -9.441  1.33     4 O
     -35.707  2.00     7 A1        94.32%     1 D:z2          -21.381  2.00     1 Pb
                                    3.33%     1 S             -24.370  2.00     4 O
     -26.121  2.00     8 A1        79.10%     2 S             -12.093  2.00     1 Pb
                                   17.05%     1 P:z            -9.441  1.33     4 O
                                    1.67%     2 S              10.544  0.00     2 H
     -25.391  2.00     5 B2        68.67%     1 P:y            -9.441  1.33     4 O
                                   23.24%     1 S              -6.661  1.00     2 H
                                    7.57%     2 S              10.544  0.00     2 H
                                    1.79%     1 P:z            10.843  0.00     2 H
                                   -1.36%     1 P:y            10.843  0.00     2 H
     -22.390  2.00     9 A1        59.18%     1 P:z            -9.441  1.33     4 O
                                   18.78%     2 S             -12.093  2.00     1 Pb
                                    6.08%     2 P:z            -3.632  0.67     1 Pb
                                    5.94%     1 S              -6.661  1.00     2 H
                                    5.87%     1 S             -24.370  2.00     4 O
                                    1.93%     2 S              10.544  0.00     2 H
                                    1.46%     3 P:z             1.212  0.00     1 Pb
     -19.951  2.00     5 B1        94.54%     1 P:x            -9.441  1.33     4 O
                                    2.78%     1 P:x            10.843  0.00     2 H
                                    2.33%     2 P:x            -3.632  0.67     1 Pb
     -15.706  0.00     6 B2        93.37%     2 P:y            -3.632  0.67     1 Pb
                                    4.48%     3 P:y             1.212  0.00     1 Pb
                                    1.40%     4 P:y            11.596  0.00     1 Pb
     -15.514  0.00     6 B1        91.54%     2 P:x            -3.632  0.67     1 Pb
                                    4.44%     3 P:x             1.212  0.00     1 Pb
                                    2.27%     1 P:x            -9.441  1.33     4 O
                                    1.51%     4 P:x            11.596  0.00     1 Pb
     -14.109  0.00    10 A1        86.17%     2 P:z            -3.632  0.67     1 Pb
                                    5.42%     1 S              -6.661  1.00     2 H
                                    3.41%     1 P:z            -9.441  1.33     4 O
                                    2.93%     1 S             -24.370  2.00     4 O
                                   -1.95%     2 S              27.170  0.00     4 O
                                    1.64%     4 P:z            11.596  0.00     1 Pb
                                    1.53%     3 P:z             1.212  0.00     1 Pb
                                    1.12%     2 D:z2           11.626  0.00     1 Pb

 Energy gradients wrt nuclear displacements
 ==========================================

     Atom      Cartesian (a.u./angstrom)
                 X         Y         Z
 ----------------------------------------
     1 Pb    0.000000  0.000000 -0.000161
     2 H     0.000000 -0.000012  0.000034
     3 H     0.000000  0.000012  0.000034
     4 O     0.000000  0.000000  0.000094
 ----------------------------------------



 =======================================================================
 Electrostatic potential at the Nuclei due to electrons and other nuclei
 =======================================================================
  
         Atom                  Potential
         ----                  ---------
     1)   Pb                644.98008666
     2)   H                   0.51715794
     3)   H                   0.51715794
     4)   O                  21.83751345

=============================================================
=== CALCULATE ANALYTICAL SECOND DERIVATIVES OF THE ENERGY ===
=============================================================


-----------------------------------------------
*** RESTART ***
*** CHECKING FOR HESSIAN ON RESTART FILE ***
@@@ WARNING: Cannot find section: Hessian                                                                                                                                                         
*** NO HESSIAN EXISTS ON RESTART FILE ***
*** HESSIAN FROM RESTART FILE IS NOT COMPLETE ***
*** FURTHER CALCULATIONS WILL BE DONE         ***
-----------------------------------------------
                  ------------------------------------------------
                  
                  This Analytical Second Derivatives Progam    
                            was written for ADF by             
                  
                                Stephen K. Wolff               
                  
                         Scientific Computing & Modelling      
                  
                                Vrije University
                              Theoretical Chemistry
                                De Boelelaan 1083
                                1081 HV Amsterdam
                                 The Netherlands
                  
                  ------------------------------------------------
                  
                                    References:                
                                    ===========                
                  
                   Attila Berces, Ross M. Dickson, Liangyou Fan
                   Heiko Jacobsen, David Swerhone, Tom Ziegler,
                   Computer Physics Communications 100 (1997) 247.
                  
                   Heiko Jacobsen, Attila Berces
                   David Swerhone, Tom Ziegler,
                   Computer Physics Communications 100 (1997) 263.
                  
                   Stephen K. Wolff
                   Int. J. Quantum Chem. 104 (2005) 645.
                  
                  ------------------------------------------------
                  
              <><><><><><><><><><><><><><><><><><><><><><><><><>
 
                 SECOND DERIVATIVES INFORMATION:
                 -------------------------------
 
                 === PRINT
 
                   EIGS,  lprint_eigbas =  F
                   U1,    lprint_u1     =  F
                   PARTS, lprint_parts  =  F
 
                 === DEBUG
 
                   ALL        =  F
                   B1         =  F
                   DENSITIES  =  F
                   FIT        =  F
                   HESSIAN    =  F
                   NUMBERS    =  F
                   SYMMETRY   =  F
                   U1         =  F
 
                 === CPKS
 
                   MAX_CPKS_ITERATIONS    =    20
                   U1_ACCURACY PARAMETER  =     5.00
                   U1 ACCURACY            =     0.0000100
 

                 Estimated peak private memory usage    101 MB per process
                                 shared memory usage     42 MB per node

              <><><><><><><><><><><><><><><><><><><><><><><><><>
 Handling            4  atoms per pass in write_gradb1
 wr_gradb1   15605760.0000000        1048576000.00000     

######## LOOPING OVER NUCLEI ########

==========================
###### NUCLEUS:     1  Pb 
==========================

====================  solving CPKS equations  ====================

NUCLEUS  COORD.    ITERATION   ACCURACY
-------  ------    ---------   --------
    1       1          1       0.76707659D-02
    1       1          2       0.62223655D-03
    1       1          3       0.23377852D-04
    1       1          4       0.32364218D-05
*** CPKS converged.
----------------------------------------------
    1       2          1       0.10343059D-01
    1       2          2       0.45859837D-03
    1       2          3       0.35784771D-04
    1       2          4       0.38128884D-05
*** CPKS converged.
----------------------------------------------
    1       3          1       0.21337408D-01
    1       3          2       0.41313464D-02
    1       3          3       0.12189816D-03
    1       3          4       0.53631752D-04
    1       3          5       0.69010669D-05
*** CPKS converged.
----------------------------------------------

====================  end of solving CPKS equations  ====================

==========================
###### NUCLEUS:     2  H  
==========================

====================  solving CPKS equations  ====================

NUCLEUS  COORD.    ITERATION   ACCURACY
-------  ------    ---------   --------
    2       1          1       0.40560580D-02
    2       1          2       0.62743281D-03
    2       1          3       0.10551029D-03
    2       1          4       0.16788230D-04
    2       1          5       0.68795299D-06
*** CPKS converged.
----------------------------------------------
    2       2          1       0.60832746D-01
    2       2          2       0.63268509D-02
    2       2          3       0.71898863D-03
    2       2          4       0.14379090D-03
    2       2          5       0.18752665D-04
    2       2          6       0.42185944D-05
*** CPKS converged.
----------------------------------------------
    2       3          1       0.38780653D-01
    2       3          2       0.55055566D-02
    2       3          3       0.85952645D-03
    2       3          4       0.17207639D-03
    2       3          5       0.26659010D-04
    2       3          6       0.50144899D-05
*** CPKS converged.
----------------------------------------------

====================  end of solving CPKS equations  ====================

==========================
###### NUCLEUS:     4  O  
==========================

====================  solving CPKS equations  ====================

NUCLEUS  COORD.    ITERATION   ACCURACY
-------  ------    ---------   --------
    4       1          1       0.14140413D-01
    4       1          2       0.14745191D-02
    4       1          3       0.16257097D-03
    4       1          4       0.18716972D-04
    4       1          5       0.14491974D-05
*** CPKS converged.
----------------------------------------------
    4       2          1       0.15058265D-01
    4       2          2       0.87471431D-03
    4       2          3       0.41334654D-03
    4       2          4       0.27315972D-04
    4       2          5       0.39496555D-05
*** CPKS converged.
----------------------------------------------
    4       3          1       0.55985630D-01
    4       3          2       0.54135684D-02
    4       3          3       0.86702833D-03
    4       3          4       0.14703980D-03
    4       3          5       0.39729467D-04
    4       3          6       0.10540030D-04
    4       3          7       0.12945094D-05
*** CPKS converged.
----------------------------------------------

====================  end of solving CPKS equations  ====================


====================================================================
*** DONE CALCULATING ANALYTICAL SECOND DERIVATIVES OF THE ENERGY ***
====================================================================

 Mulliken charges used for AMS results%charges...
Scanning modes in range provided by user.


    =====================
     CALCULATION RESULTS
    =====================

Energy (hartree)             0.14321827

Gradients (hartree/bohr)
  Index   Atom            d/dx            d/dy            d/dz
      1     Pb    0.0000000000    0.0000000000   -0.0000851408
      2      H    0.0000000000   -0.0000065807    0.0000177904
      3      H    0.0000000000    0.0000065807    0.0000177904
      4      O    0.0000000000    0.0000000000    0.0000495601

 Symmetry: C(2V)

 -----------------------
 Normal Mode Frequencies
 -----------------------

 Index   Frequency (cm-1)   Intensity (km/mol)   Irrep
     7           264.5614             290.0876      B1
     8           340.9427              19.5895      A1
     9           574.5878              49.3224      B2
    10          1589.2562              60.6161      A1
    11          3405.9540             467.8283      A1
    12          3482.6417             390.6283      B2

 Zero-point energy (Hartree):     0.0220

 ------------
 Normal Modes
 ------------

 Number of removed rigid normal modes: 6
 
 Mode:     7      Frequency (cm-1):      264.5614     Intensity (km/mol):      290.0876     Irrep: B1
 Index  Atom      ---- Displacements (x/y/z) ----
     1    Pb       0.001741   0.000000  -0.000000
     2     H       0.702721  -0.000000   0.000000
     3     H       0.702721   0.000000   0.000000
     4     O      -0.111187  -0.000000   0.000000
 
 Mode:     8      Frequency (cm-1):      340.9427     Intensity (km/mol):       19.5895     Irrep: A1
 Index  Atom      ---- Displacements (x/y/z) ----
     1    Pb       0.000000  -0.000000   0.050059
     2     H       0.000000   0.009209  -0.575686
     3     H       0.000000  -0.009209  -0.575686
     4     O      -0.000000   0.000000  -0.578356
 
 Mode:     9      Frequency (cm-1):      574.5878     Intensity (km/mol):       49.3224     Irrep: B2
 Index  Atom      ---- Displacements (x/y/z) ----
     1    Pb       0.000000  -0.002886  -0.000000
     2     H       0.000000  -0.360950   0.605198
     3     H       0.000000  -0.360950  -0.605198
     4     O      -0.000000   0.083016   0.000000
 
 Mode:    10      Frequency (cm-1):     1589.2562     Intensity (km/mol):       60.6161     Irrep: A1
 Index  Atom      ---- Displacements (x/y/z) ----
     1    Pb       0.000000  -0.000000  -0.000037
     2     H      -0.000000   0.421869  -0.565204
     3     H      -0.000000  -0.421869  -0.565204
     4     O      -0.000000   0.000000   0.071703
 
 Mode:    11      Frequency (cm-1):     3405.9540     Intensity (km/mol):      467.8283     Irrep: A1
 Index  Atom      ---- Displacements (x/y/z) ----
     1    Pb       0.000000  -0.000000   0.000100
     2     H      -0.000000  -0.588303  -0.390833
     3     H      -0.000000   0.588303  -0.390833
     4     O       0.000000  -0.000000   0.047956
 
 Mode:    12      Frequency (cm-1):     3482.6417     Intensity (km/mol):      390.6283     Irrep: B2
 Index  Atom      ---- Displacements (x/y/z) ----
     1    Pb       0.000000  -0.000034  -0.000000
     2     H       0.000000  -0.568428  -0.417484
     3     H      -0.000000  -0.568428   0.417484
     4     O      -0.000000   0.072069  -0.000000

PES point character: Geometry corresponds to a local minimum on the PES.




 ============================
 Statistical Thermal Analysis  ***  ideal gas assumed  ***
 ============================
  
 Pressure:                  1.000000 atm.
 Temperature:             298.150000 K



 Moments of Inertia [amu*bohr^2] and principal axis
 ==================================================

           4.5949        348.8271        353.4220
 ------------------------------------------------
           0.0000          0.0000          1.0000
           0.0000          1.0000          0.0000
           1.0000          0.0000          0.0000


 The rotational contribution to the molecular entropy includes
 a term, dependent on the symmetry number sigma. The results 
 reported below were computed using sigma = 2, determined from
 the point group symmetry of the input geometry (C(2V)). 
 If this is not the correct symmetry, try symmetrizing the molecule before
 running the calculation (note: linear molecules should be aligned along one
 of the Cartesian axes).
 Contributions from frequencies below 20 1/cm are not included in vibrational sums.
 Their contributions, if any, are reported separately.


     Temp                                                        Transl      Rotat     Vibrat     Total
     ----                                                        ------      -----     ------     -----

     298.15   Entropy (cal/mol-K):                               42.148     19.588      3.343     65.079
              Nuclear Internal Energy (kcal/mol):                 0.889      0.889     14.444     16.222
              Constant Volume Heat Capacity (cal/mol-K):          2.981      2.981      4.473     10.434
          (c) Constant Volume Heat Capacity (cal/mol-K):          2.981      2.981      4.453     10.415

       Summary of energy terms
                                                   hartree              eV         kcal/mol           kJ/mol
                                      --------------------     -----------       ----------      -----------
      Energy from Engine:                0.143218268087252          3.8972            89.87           376.02
      Nuclear Internal Energy:           0.025850641487339          0.7034            16.22            67.87
  (c) Nuclear Internal Energy:           0.025832745883625          0.7029            16.21            67.82
      Internal Energy U:                 0.169068909574591          4.6006           106.09           443.89
      pV/n = RT:                         0.000944186013486          0.0257             0.59             2.48
      Enthalpy H:                        0.170013095588076          4.6263           106.68           446.37
      -T*S:                             -0.030921150596844         -0.8414           -19.40           -81.18
  (c) -T*S:                             -0.030925357387838         -0.8415           -19.41           -81.19
      Gibbs free energy:                 0.139091944991233          3.7849            87.28           365.19
 
 
 
  (c) The properties marked with this symbol have been corrected using 'low vibrational frequency free rotor
      interpolation corrections'. For those terms all positive frequencies are used (also ones below 20 1/cm),
      but the contribution to the partition function of small vibrational frequencies is modified as described
      in the following paper:
      S. Grimme, 'Supramolecular Binding Thermodynamics by Dispersion-Corrected Density Functional Theory'
      (Chem. Eur. J. 2012, 18, 9955-9964)
      Configuration: Dampener Frequency          :   100.000 1/cm
                     Dampener Alpha              :     4.000
                     Averaging Moment of Inertia : 1.000E-44 kg m2

--------------
Atomic charges
--------------
  Index   Atom    Charge
      1     Pb    1.7829
      2      H    0.4525
      3      H    0.4525
      4      O   -0.6878


Dipole moment vector    (Debye):     0.00000000   -0.00000000   13.84779329
              magnitude (Debye):    13.84779329


Final PES point is a local minimum. Geometry optimization successful!


AMS application finished. Exiting.
NORMAL TERMINATION
     Total cpu time:      15.16
  Total system time:       1.25
 Total elapsed time:      16.80
